 Gaussian 16, Revision A.03,
 Gaussian 16:  ES64L-G16RevA.03 25-Dec-2016

 ----------------------------------------------------------
 #p cam-b3lyp/Def2SVP td=(nstates=5) density=(transition=1)
 ----------------------------------------------------------

 --------------------------------
 TDDFT excited states in gaussian
 --------------------------------
 Symbolic Z-matrix:
 Charge =  0 Multiplicity = 1

                         Standard orientation:
 ---------------------------------------------------------------------
 Center     Atomic      Atomic             Coordinates (Angstroms)
 Number     Number       Type             X           Y           Z
 ---------------------------------------------------------------------
      1         12           0       25.312439   -0.596492    0.376978
      2          6           0       26.660185    1.963694   -1.658944
      3          6           0       24.036553    1.829872    2.473772
      4          6           0       24.286396   -3.063865    2.460467
      5          6           0       26.808368   -3.022146   -1.664542
      6          7           0       25.487751    1.610599    0.371661
      7          6           0       25.886685    2.458116   -0.659167
      8          6           0       25.569285    3.971697   -0.318954
      9          6           0       24.993090    3.860101    1.117730
     10          6           0       24.865251    2.344764    1.391247
     11          6           0       25.771169    4.572004    2.286884
     12          6           0       24.732891    4.781473   -1.392457
     13          6           0       25.418149    5.988723   -1.957554
     14          1           0       24.494483    7.235917   -2.253929
     15          7           0       24.334112   -0.562237    2.168820
     16          6           0       23.818006    0.512651    2.863800
     17          6           0       23.193907    0.041099    4.090110
     18          6           0       23.237006   -1.381199    4.134933
     19          6           0       23.962777   -1.747409    2.863375
     20          6           0       22.446727    0.952959    5.084042
     21          6           0       22.666054   -2.350469    5.164996
     22          8           0       22.693452   -3.558027    5.044884
     23          6           0       21.873831   -1.906649    6.462451
     24          7           0       25.608380   -2.760353    0.437438
     25          6           0       25.087967   -3.529186    1.385040
     26          6           0       25.390891   -5.050759    1.141798
     27          6           0       26.039478   -5.040808   -0.298850
     28          6           0       26.148436   -3.508367   -0.561597
     29          6           0       26.214282   -5.674758    2.305457
     30          6           0       25.221838   -5.832836   -1.299894
     31          6           0       26.057736   -6.693039   -2.245965
     32          7           0       26.615128   -0.640435   -1.247949
     33          6           0       27.063384   -1.682560   -2.036743
     34          6           0       27.924605   -1.122765   -3.032453
     35          6           0       27.782746    0.285950   -2.976558
     36          6           0       26.962905    0.566759   -1.848116
     37          6           0       28.737217   -1.884412   -4.009661
     38          6           0       28.120028    1.550164   -3.653832
     39          8           0       28.883633    1.824631   -4.574958
     40          6           0       27.291417    2.745794   -2.746346
     41          6           0       28.223675    3.718042   -2.267261
     42          8           0       28.614156    3.793867   -1.122470
     43          8           0       28.516272    4.639373   -3.247315
     44          6           0       29.525329    5.636942   -2.812159
     45          1           0       23.511665    2.558631    3.095251
     46          1           0       24.023056   -3.894251    3.118134
     47          1           0       27.163638   -3.841529   -2.293948
     48          1           0       26.549419    4.413449   -0.142510
     49          1           0       23.981622    4.264391    1.158619
     50          1           0       25.016082    5.014376    2.937442
     51          1           0       26.432577    5.321905    1.853655
     52          1           0       26.385008    3.903656    2.891041
     53          1           0       23.792283    5.036274   -0.903964
     54          1           0       24.557510    4.103587   -2.227983
     55          1           0       25.888523    5.732718   -2.907837
     56          1           0       26.180063    6.217681   -1.212994
     57          1           0       21.401415    0.656360    5.005345
     58          1           0       22.464543    1.976062    4.707735
     59          1           0       22.747116    0.865277    6.128897
     60          1           0       21.028381   -1.295208    6.145246
     61          1           0       22.529321   -1.546009    7.255703
     62          1           0       21.598771   -2.844695    6.943715
     63          1           0       24.494043   -5.662748    1.047823
     64          1           0       27.053546   -5.419437   -0.169249
     65          1           0       27.071893   -6.194435    1.877265
     66          1           0       25.620362   -6.307768    2.965227
     67          1           0       26.595265   -4.882973    2.948377
     68          1           0       24.571034   -5.194265   -1.896308
     69          1           0       24.481293   -6.495246   -0.848983
     70          1           0       27.119723   -6.462319   -2.161360
     71          1           0       25.736374   -6.434186   -3.255228
     72          1           0       25.838125   -7.756182   -2.146730
     73          1           0       28.693721   -2.972293   -3.958412
     74          1           0       29.716357   -1.404239   -4.026246
     75          1           0       28.169857   -1.766952   -4.933230
     76          1           0       26.554116    3.228695   -3.388301
     77          1           0       30.451851    5.130958   -2.539901
     78          1           0       29.055347    6.209943   -2.012897
     79          1           0       29.806062    6.330047   -3.604230
     80         12           0      -25.420527   -0.702430   -0.341413
     81          6           0      -26.251515    2.508811    1.007209
     82          6           0      -25.064723    0.742297   -3.436583
     83          6           0      -25.085429   -3.737293   -1.785412
     84          6           0      -26.755248   -2.106336    2.606285
     85          7           0      -25.628008    1.382298   -1.088164
     86          6           0      -25.901907    2.561716   -0.377864
     87          6           0      -25.793753    3.737671   -1.314411
     88          6           0      -25.936890    3.051459   -2.738032
     89          6           0      -25.569100    1.576667   -2.400448
     90          6           0      -27.427293    3.214770   -3.204816
     91          6           0      -24.528240    4.634978   -1.076393
     92          6           0      -24.884425    6.034945   -1.126524
     93          1           0      -23.766495    7.042257   -0.551823
     94          7           0      -24.944003   -1.301028   -2.333957
     95          6           0      -24.805502   -0.556927   -3.437781
     96          6           0      -24.378869   -1.390426   -4.519481
     97          6           0      -24.390340   -2.699997   -4.087319
     98          6           0      -24.779832   -2.649695   -2.602832
     99          6           0      -24.188967   -0.839747   -5.968547
    100          6           0      -23.984513   -3.978315   -4.849300
    101          8           0      -24.097838   -5.046174   -4.302680
    102          6           0      -23.367121   -3.895014   -6.225377
    103          7           0      -26.129390   -2.633752    0.252365
    104          6           0      -25.721027   -3.732813   -0.495237
    105          6           0      -25.910264   -4.998604    0.275729
    106          6           0      -26.429098   -4.480415    1.704810
    107          6           0      -26.383149   -2.978022    1.554814
    108          6           0      -26.789564   -5.982692   -0.419016
    109          6           0      -25.632353   -4.997895    3.024829
    110          6           0      -26.381727   -5.783775    4.026913
    111          7           0      -26.282974   -0.008041    1.487093
    112          6           0      -26.767347   -0.726707    2.556736
    113          6           0      -27.193534    0.270180    3.632571
    114          6           0      -26.903273    1.548385    3.114716
    115          6           0      -26.399799    1.326280    1.785148
    116          6           0      -27.830774   -0.117175    4.973994
    117          6           0      -27.083008    2.941152    3.392863
    118          8           0      -27.526923    3.513468    4.413745
    119          6           0      -26.832320    3.628253    1.988111
    120          6           0      -25.934291    4.865655    2.289255
    121          8           0      -24.708658    4.829525    2.075333
    122          8           0      -26.704175    5.905165    2.694796
    123          6           0      -25.805909    7.012141    3.172104
    124          1           0      -24.733308    1.212837   -4.364993
    125          1           0      -24.965164   -4.730545   -2.224480
    126          1           0      -27.091166   -2.442531    3.589304
    127          1           0      -26.707643    4.313546   -1.170317
    128          1           0      -25.284403    3.514767   -3.477253
    129          1           0      -28.123602    2.563645   -2.676918
    130          1           0      -27.475301    3.061841   -4.282129
    131          1           0      -27.735503    4.246740   -3.035446
    132          1           0      -23.897615    4.509705   -1.956897
    133          1           0      -23.980573    4.340388   -0.180880
    134          1           0      -25.705090    6.256551   -0.444036
    135          1           0      -25.103944    6.278370   -2.166362
    136          1           0      -23.167580   -1.136029   -6.207310
    137          1           0      -24.251243    0.244531   -6.059848
    138          1           0      -24.950261   -1.258888   -6.626328
    139          1           0      -23.223714   -4.892277   -6.641459
    140          1           0      -22.444862   -3.404146   -5.914743
    141          1           0      -24.015855   -3.281437   -6.850426
    142          1           0      -24.891366   -5.377005    0.360046
    143          1           0      -27.458579   -4.824020    1.802704
    144          1           0      -26.113930   -6.782826   -0.718684
    145          1           0      -27.193895   -5.604614   -1.357869
    146          1           0      -27.627356   -6.361093    0.167110
    147          1           0      -25.378626   -4.058140    3.515246
    148          1           0      -24.710960   -5.471586    2.688714
    149          1           0      -26.429414   -5.261476    4.982086
    150          1           0      -25.650061   -6.585031    4.124836
    151          1           0      -27.316188   -6.194434    3.642066
    152          1           0      -28.906910   -0.066774    4.812005
    153          1           0      -27.551703    0.560742    5.780566
    154          1           0      -27.473221   -1.105512    5.262963
    155          1           0      -27.835594    3.910482    1.671847
    156          1           0      -25.335271    6.836451    4.139299
    157          1           0      -26.276665    7.993594    3.218832
    158          1           0      -25.053610    7.131282    2.392132
 ---------------------------------------------------------------------

 SCF Done:  E(RCAM-B3LYP) =  -4069.78016649     A.U. after   19 cycles

 Excitation energies and oscillator strengths:

 Excited State   1:      Singlet-A      1.7187 eV  721.37 nm  f=0.3535  <S**2>=0.000
     309 -> 315       -0.18754
     312 -> 314        0.68234
     309 <- 315       -0.10714
 This state for optimization and/or second-order correction.
 Total Energy, E(TD-HF/TD-DFT) =  -4069.71700437
 Copying the excited state density for this state as the 1-particle RhoCI density.

 Excited State   2:      Singlet-A      1.7837 eV  695.08 nm  f=0.3741  <S**2>=0.000
     310 -> 316       -0.17650
     311 -> 313        0.68529
     310 <- 316       -0.10145

 Excited State   3:      Singlet-A      2.2587 eV  548.92 nm  f=0.1140  <S**2>=0.000
     310 -> 313        0.63968
     311 -> 316        0.28424

 Excited State   4:      Singlet-A      2.2689 eV  546.46 nm  f=0.0058  <S**2>=0.000
     309 -> 314        0.54882
     312 -> 315        0.43684

 Excited State   5:      Singlet-A      2.9985 eV  413.48 nm  f=0.0000  <S**2>=0.000
     312 -> 313        0.70711

 The electronic state is 1-A.
 Alpha  occ. eigenvalues --  -46.89438 -46.88230 -19.26166 -19.24329 -19.19880
 Alpha  occ. eigenvalues --  -19.19765 -19.19495 -19.19383 -19.19221 -19.18755
 Alpha  occ. eigenvalues --  -14.42275 -14.42268 -14.41921 -14.41759 -14.40338
 Alpha  occ. eigenvalues --  -14.39373 -14.39160 -14.38718 -10.39727 -10.38320
 Alpha  occ. eigenvalues --  -10.36398 -10.35992 -10.35684 -10.34914 -10.32516
 Alpha  occ. eigenvalues --  -10.31974 -10.31542 -10.31380 -10.31315 -10.31268
 Alpha  occ. eigenvalues --  -10.31265 -10.31213 -10.31125 -10.30935 -10.30488
 Alpha  occ. eigenvalues --  -10.30184 -10.30167 -10.29807 -10.29181 -10.29011
 Alpha  occ. eigenvalues --  -10.28976 -10.28861 -10.28776 -10.28705 -10.28669
 Alpha  occ. eigenvalues --  -10.28652 -10.28624 -10.28493 -10.28161 -10.28119
 Alpha  occ. eigenvalues --  -10.28114 -10.28049 -10.28022 -10.27992 -10.27813
 Alpha  occ. eigenvalues --  -10.27805 -10.27780 -10.27662 -10.27607 -10.27376
 Alpha  occ. eigenvalues --  -10.27363 -10.27359 -10.27122 -10.27023 -10.26942
 Alpha  occ. eigenvalues --  -10.26904 -10.26775 -10.26716 -10.26494 -10.26428
 Alpha  occ. eigenvalues --  -10.26394 -10.26332 -10.26299 -10.26255 -10.26246
 Alpha  occ. eigenvalues --  -10.25979 -10.25958 -10.25886 -10.25819 -10.25367
 Alpha  occ. eigenvalues --  -10.25288 -10.25143 -10.25109 -10.25033 -10.24937
 Alpha  occ. eigenvalues --  -10.24874  -3.17776  -3.16760  -1.92672  -1.92218
 Alpha  occ. eigenvalues --   -1.92077  -1.91668  -1.91209  -1.91067  -1.16051
 Alpha  occ. eigenvalues --   -1.15873  -1.11745  -1.11511  -1.09262  -1.07855
 Alpha  occ. eigenvalues --   -1.07431  -1.07134  -1.04089  -1.04085  -1.03038
 Alpha  occ. eigenvalues --   -1.02708  -1.02467  -1.01962  -1.01440  -1.00940
 Alpha  occ. eigenvalues --   -0.91849  -0.91225  -0.89137  -0.88942  -0.88694
 Alpha  occ. eigenvalues --   -0.88435  -0.88196  -0.88042  -0.87510  -0.87254
 Alpha  occ. eigenvalues --   -0.87220  -0.86893  -0.85608  -0.85477  -0.84415
 Alpha  occ. eigenvalues --   -0.84379  -0.83789  -0.83641  -0.82615  -0.82520
 Alpha  occ. eigenvalues --   -0.82506  -0.81038  -0.80719  -0.80681  -0.80462
 Alpha  occ. eigenvalues --   -0.80100  -0.78434  -0.78220  -0.77546  -0.76941
 Alpha  occ. eigenvalues --   -0.76540  -0.76454  -0.75764  -0.75475  -0.74929
 Alpha  occ. eigenvalues --   -0.74719  -0.72245  -0.72174  -0.71442  -0.71302
 Alpha  occ. eigenvalues --   -0.69056  -0.68850  -0.68803  -0.67870  -0.67425
 Alpha  occ. eigenvalues --   -0.67418  -0.67238  -0.66375  -0.65631  -0.65113
 Alpha  occ. eigenvalues --   -0.64964  -0.64802  -0.64588  -0.64438  -0.64353
 Alpha  occ. eigenvalues --   -0.64301  -0.62043  -0.61147  -0.60037  -0.59924
 Alpha  occ. eigenvalues --   -0.59169  -0.59118  -0.58799  -0.58437  -0.58240
 Alpha  occ. eigenvalues --   -0.58026  -0.57810  -0.57422  -0.57098  -0.57007
 Alpha  occ. eigenvalues --   -0.55986  -0.55947  -0.55767  -0.55559  -0.55062
 Alpha  occ. eigenvalues --   -0.54739  -0.54326  -0.54244  -0.54011  -0.53979
 Alpha  occ. eigenvalues --   -0.53697  -0.53553  -0.53243  -0.53210  -0.53040
 Alpha  occ. eigenvalues --   -0.52971  -0.52747  -0.52594  -0.52555  -0.52457
 Alpha  occ. eigenvalues --   -0.52130  -0.51915  -0.51698  -0.51412  -0.51257
 Alpha  occ. eigenvalues --   -0.51020  -0.50916  -0.50590  -0.50556  -0.50421
 Alpha  occ. eigenvalues --   -0.50218  -0.50146  -0.50127  -0.49578  -0.49517
 Alpha  occ. eigenvalues --   -0.49516  -0.49467  -0.49120  -0.48936  -0.48652
 Alpha  occ. eigenvalues --   -0.48649  -0.48545  -0.48202  -0.48068  -0.48006
 Alpha  occ. eigenvalues --   -0.48002  -0.47847  -0.47737  -0.47495  -0.47435
 Alpha  occ. eigenvalues --   -0.46783  -0.46621  -0.46548  -0.46424  -0.46236
 Alpha  occ. eigenvalues --   -0.46218  -0.46095  -0.45999  -0.45851  -0.45529
 Alpha  occ. eigenvalues --   -0.45387  -0.45144  -0.44848  -0.44680  -0.44638
 Alpha  occ. eigenvalues --   -0.44545  -0.44472  -0.44353  -0.44089  -0.43996
 Alpha  occ. eigenvalues --   -0.43933  -0.43750  -0.43569  -0.43459  -0.43290
 Alpha  occ. eigenvalues --   -0.43197  -0.43160  -0.43029  -0.42963  -0.42844
 Alpha  occ. eigenvalues --   -0.42410  -0.42369  -0.42297  -0.42005  -0.41997
 Alpha  occ. eigenvalues --   -0.41919  -0.41509  -0.41469  -0.41176  -0.41132
 Alpha  occ. eigenvalues --   -0.40784  -0.40564  -0.40286  -0.40228  -0.40027
 Alpha  occ. eigenvalues --   -0.39845  -0.39678  -0.39433  -0.38848  -0.38687
 Alpha  occ. eigenvalues --   -0.38554  -0.37873  -0.37663  -0.37272  -0.37175
 Alpha  occ. eigenvalues --   -0.37089  -0.36959  -0.36867  -0.36248  -0.36151
 Alpha  occ. eigenvalues --   -0.35914  -0.34792  -0.34288  -0.34000  -0.33846
 Alpha  occ. eigenvalues --   -0.33828  -0.33102  -0.33083  -0.31738  -0.31657
 Alpha  occ. eigenvalues --   -0.31483  -0.31405  -0.30647  -0.30634  -0.30231
 Alpha  occ. eigenvalues --   -0.30083  -0.29339  -0.28660  -0.24259  -0.24065
 Alpha  occ. eigenvalues --   -0.21315  -0.20209
 Alpha virt. eigenvalues --   -0.08518  -0.07580  -0.02516  -0.01776   0.00000
 Alpha virt. eigenvalues --    0.00044   0.01808   0.02100   0.02393   0.02963
 Alpha virt. eigenvalues --    0.04538   0.04856   0.05397   0.05450   0.05938

 Mulliken charges:
               1
     1  Mg  11.999972
     2  C    6.000038
     3  C    6.000066
     4  C    5.999907
     5  C    5.999920
     6  N    7.000014
     7  C    5.999954
     8  C    6.000006
     9  C    5.999997
    10  C    6.000000
    11  C    5.999984
    12  C    5.999997
    13  C    6.000006
    14  H    0.999980
    15  N    7.000013
    16  C    6.000002
    17  C    6.000082
    18  C    5.999976
    19  C    6.000116
    20  C    5.999973
    21  C    6.000031
    22  O    8.000040
    23  C    5.999987
    24  N    6.999987
    25  C    6.000067
    26  C    5.999984
    27  C    6.000008
    28  C    6.000009
    29  C    5.999994
    30  C    6.000022
    31  C    6.000004
    32  N    6.999989
    33  C    6.000001
    34  C    5.999919
    35  C    6.000031
    36  C    5.999914
    37  C    6.000023
    38  C    5.999952
    39  O    7.999949
    40  C    5.999991
    41  C    5.999994
    42  O    7.999994
    43  O    7.999997
    44  C    6.000004
    45  H    1.000021
    46  H    1.000010
    47  H    0.999979
    48  H    1.000002
    49  H    1.000005
    50  H    1.000019
    51  H    1.000042
    52  H    1.000017
    53  H    0.999980
    54  H    0.999994
    55  H    1.000002
    56  H    1.000015
    57  H    1.000040
    58  H    1.000043
    59  H    1.000066
    60  H    1.000014
    61  H    1.000049
    62  H    1.000041
    63  H    0.999991
    64  H    1.000006
    65  H    1.000025
    66  H    1.000002
    67  H    1.000013
    68  H    0.999981
    69  H    0.999962
    70  H    1.000022
    71  H    0.999980
    72  H    0.999979
    73  H    0.999949
    74  H    0.999967
    75  H    0.999930
    76  H    0.999968
    77  H    1.000007
    78  H    0.999995
    79  H    0.999986
    80  Mg  11.996692
    81  C    6.024708
    82  C    5.987572
    83  C    5.968164
    84  C    6.016426
    85  N    7.014414
    86  C    5.964505
    87  C    6.006591
    88  C    5.985700
    89  C    6.036530
    90  C    5.995400
    91  C    6.005455
    92  C    5.999541
    93  H    1.000274
    94  N    6.981584
    95  C    6.037396
    96  C    6.017275
    97  C    6.013332
    98  C    6.047865
    99  C    5.998669
   100  C    6.010856
   101  O    8.023784
   102  C    5.998435
   103  N    6.994962
   104  C    6.045912
   105  C    5.985329
   106  C    6.016153
   107  C    5.965325
   108  C    5.998509
   109  C    6.001880
   110  C    6.002416
   111  N    7.006487
   112  C    5.956360
   113  C    5.965109
   114  C    6.001390
   115  C    5.963653
   116  C    6.001975
   117  C    5.984288
   118  O    7.972441
   119  C    6.001511
   120  C    5.996028
   121  O    7.991413
   122  O    8.000763
   123  C    6.002661
   124  H    1.010862
   125  H    1.004494
   126  H    0.991874
   127  H    1.003562
   128  H    1.004327
   129  H    1.009204
   130  H    0.999138
   131  H    1.013370
   132  H    0.987884
   133  H    1.004173
   134  H    1.004847
   135  H    0.993876
   136  H    1.013975
   137  H    1.016350
   138  H    1.016482
   139  H    1.013739
   140  H    1.005396
   141  H    1.005200
   142  H    1.000675
   143  H    0.994102
   144  H    1.000362
   145  H    0.996016
   146  H    1.011702
   147  H    1.006121
   148  H    0.989290
   149  H    1.002924
   150  H    0.994198
   151  H    0.995870
   152  H    0.979261
   153  H    0.982136
   154  H    0.981528
   155  H    0.992217
   156  H    0.999284
   157  H    0.994959
   158  H    0.994871
 Sum of Mulliken charges = 624.00000

 Dipole moment (field-independent basis, Debye):
    X=              2.8671    Y=             -3.0884    Z=             -9.5247  Tot=             10.4153
 Quadrupole moment (field-independent basis, Debye-Ang):
   XX=           -148.9006   YY=              1.8606   ZZ=              7.0585
   XY=             76.5127   XZ=            246.1141   YZ=              6.7763

 Normal termination of Gaussian 16 at Thu Sep 23 09:15:53 2021.
