 Gaussian 16, Revision A.03,
 Gaussian 16:  ES64L-G16RevA.03 25-Dec-2016

 -----------------------------------
 #p cam-b3lyp/Def2SVP td=(nstates=5)
 -----------------------------------

 --------------------------------
 TDDFT excited states in gaussian
 --------------------------------
 Symbolic Z-matrix:
 Charge =  0 Multiplicity = 1

                         Standard orientation:
 ---------------------------------------------------------------------
 Center     Atomic      Atomic             Coordinates (Angstroms)
 Number     Number       Type             X           Y           Z
 ---------------------------------------------------------------------
      1         12           0       -9.287647   -0.060410   -0.411615
      2          6           0       -7.561713    0.774902    2.444479
      3          6           0       -9.359913    3.202190   -1.449701
      4          6           0      -10.871327   -0.964097   -3.402721
      5          6           0       -8.543299   -3.395358    0.088665
      6          7           0       -8.321329    1.715419    0.371932
      7          6           0       -7.802980    1.914779    1.654375
      8          6           0       -7.361536    3.365980    1.860324
      9          6           0       -8.124846    4.031676    0.687199
     10          6           0       -8.583827    2.917327   -0.275448
     11          6           0       -9.232186    5.000409    1.156709
     12          6           0       -5.830360    3.527013    1.783319
     13          6           0       -5.165250    4.478627    2.836789
     14          1           0       -3.946458    5.190533    2.395585
     15          7           0      -10.038998    0.972096   -2.106343
     16          6           0      -10.056203    2.309916   -2.305749
     17          6           0      -10.882690    2.700013   -3.408542
     18          6           0      -11.450845    1.521807   -3.920249
     19          6           0      -10.803257    0.408560   -3.110164
     20          6           0      -11.186864    4.150072   -3.790424
     21          6           0      -12.466621    1.398787   -5.113277
     22          8           0      -12.765446    2.439366   -5.753278
     23          6           0      -13.205713    0.048321   -5.507757
     24          7           0       -9.394503   -1.896692   -1.653967
     25          6           0      -10.211241   -2.015653   -2.728907
     26          6           0      -10.416935   -3.446609   -3.155054
     27          6           0       -9.642726   -4.245585   -2.084532
     28          6           0       -9.192564   -3.136653   -1.130064
     29          6           0      -11.913090   -3.863433   -3.345370
     30          6           0       -8.496502   -5.182152   -2.699089
     31          6           0       -8.834258   -6.677433   -2.718760
     32          7           0       -8.318896   -1.139285    0.990612
     33          6           0       -8.093696   -2.527323    1.121754
     34          6           0       -7.559736   -2.806580    2.461323
     35          6           0       -7.418226   -1.541474    3.014337
     36          6           0       -7.772949   -0.600037    2.034157
     37          6           0       -7.207623   -4.100844    3.102835
     38          6           0       -6.967545   -0.828905    4.218339
     39          8           0       -6.717411   -1.224658    5.368757
     40          6           0       -7.084564    0.718227    3.913079
     41          6           0       -8.059058    1.399572    4.864413
     42          8           0       -9.179289    1.006963    5.205477
     43          8           0       -7.370094    2.494922    5.293392
     44          6           0       -7.980132    3.267426    6.362611
     45          1           0       -9.394821    4.239570   -1.788664
     46          1           0      -11.417181   -1.373788   -4.255224
     47          1           0       -8.285592   -4.432394    0.312841
     48          1           0       -7.680108    3.708103    2.845550
     49          1           0       -7.355758    4.629162    0.197789
     50          1           0       -9.190296    5.416937    2.163091
     51          1           0      -10.151688    4.415312    1.149584
     52          1           0       -9.331216    5.863118    0.498317
     53          1           0       -5.482882    3.800166    0.787323
     54          1           0       -5.440103    2.510769    1.843567
     55          1           0       -4.919036    3.901461    3.728016
     56          1           0       -5.874480    5.270837    3.080615
     57          1           0      -12.272627    4.237976   -3.759108
     58          1           0      -10.638188    4.414740   -4.694390
     59          1           0      -10.812627    4.733855   -2.949493
     60          1           0      -12.519744   -0.489817   -6.160888
     61          1           0      -14.095045    0.342432   -6.064662
     62          1           0      -13.571405   -0.381814   -4.574973
     63          1           0       -9.941223   -3.577750   -4.127045
     64          1           0      -10.242209   -4.839066   -1.394636
     65          1           0      -12.124006   -4.825102   -2.878409
     66          1           0      -12.197953   -3.936482   -4.394792
     67          1           0      -12.553696   -3.070104   -2.962421
     68          1           0       -7.570797   -5.138429   -2.125423
     69          1           0       -8.215013   -4.825556   -3.689838
     70          1           0       -8.463773   -7.125200   -3.641071
     71          1           0       -9.914568   -6.810932   -2.666372
     72          1           0       -8.413689   -7.236983   -1.883423
     73          1           0       -7.519790   -4.895430    2.425100
     74          1           0       -7.534383   -4.101550    4.142894
     75          1           0       -6.118857   -4.157821    3.078487
     76          1           0       -6.117682    1.221467    3.939476
     77          1           0       -9.046960    3.447934    6.224732
     78          1           0       -7.531891    4.233508    6.594622
     79          1           0       -7.870707    2.734899    7.307703
     80         12           0        9.486877    0.215585   -0.201527
     81          6           0        7.398836   -2.057970    1.218520
     82          6           0        7.502871    2.902178    0.663930
     83          6           0       11.636434    2.292921   -1.871091
     84          6           0       11.415627   -2.535852   -1.543317
     85          7           0        7.572876    0.356501    0.635130
     86          6           0        6.984078   -0.704842    1.401129
     87          6           0        5.919592   -0.190172    2.285280
     88          6           0        5.754995    1.299991    1.742576
     89          6           0        7.009884    1.585421    0.947985
     90          6           0        4.443376    1.501009    0.830744
     91          6           0        6.173849   -0.406745    3.808771
     92          6           0        4.999683   -0.907545    4.586591
     93          1           0        3.597044   -0.292347    4.200558
     94          7           0        9.596734    2.321665   -0.492949
     95          6           0        8.650583    3.197208   -0.049567
     96          6           0        9.071995    4.505154   -0.418247
     97          6           0       10.346851    4.400665   -1.100189
     98          6           0       10.655901    2.931943   -1.134903
     99          6           0        8.191851    5.751099   -0.177450
    100          6           0       11.294922    5.415175   -1.659007
    101          8           0       12.320175    5.225270   -2.322975
    102          6           0       10.956269    6.912845   -1.305842
    103          7           0       11.260668   -0.075520   -1.644190
    104          6           0       11.986535    0.925959   -2.075079
    105          6           0       13.307086    0.466548   -2.689673
    106          6           0       13.216756   -1.082010   -2.574764
    107          6           0       11.864165   -1.262871   -1.888618
    108          6           0       13.521487    0.963606   -4.208831
    109          6           0       14.429434   -1.600699   -1.682803
    110          6           0       14.515805   -1.257799   -0.174999
    111          7           0        9.347366   -1.881688   -0.316345
    112          6           0       10.218565   -2.820721   -0.835426
    113          6           0        9.723797   -4.138641   -0.388124
    114          6           0        8.644330   -3.956846    0.423199
    115          6           0        8.454997   -2.527240    0.428949
    116          6           0       10.240869   -5.440507   -0.895633
    117          6           0        7.617590   -4.589896    1.250579
    118          8           0        7.393350   -5.763578    1.494752
    119          6           0        6.772728   -3.350100    1.782058
    120          6           0        5.403716   -3.495531    1.246971
    121          8           0        5.053801   -3.606725    0.059046
    122          8           0        4.602619   -3.490364    2.370835
    123          6           0        3.162023   -3.437831    2.089462
    124          1           0        6.930888    3.782418    0.964216
    125          1           0       12.342117    3.019702   -2.280440
    126          1           0       12.028996   -3.375979   -1.873721
    127          1           0        5.044913   -0.789482    2.029399
    128          1           0        5.716913    1.966356    2.603787
    129          1           0        3.725517    0.684800    0.911874
    130          1           0        4.782470    1.426101   -0.202362
    131          1           0        4.105332    2.502277    1.094500
    132          1           0        6.482969    0.533108    4.266267
    133          1           0        6.964278   -1.157149    3.812861
    134          1           0        5.057778   -0.668307    5.647696
    135          1           0        4.779117   -1.972144    4.665765
    136          1           0        8.164974    6.122883    0.846766
    137          1           0        7.223019    5.425274   -0.555639
    138          1           0        8.566157    6.640581   -0.683769
    139          1           0       10.092937    7.227117   -1.892403
    140          1           0       11.880432    7.487772   -1.361937
    141          1           0       10.730513    7.072511   -0.251298
    142          1           0       14.122681    0.825248   -2.062239
    143          1           0       13.270548   -1.595269   -3.534897
    144          1           0       14.270552    1.754709   -4.159389
    145          1           0       12.593827    1.380786   -4.601966
    146          1           0       13.907932    0.270179   -4.954682
    147          1           0       15.420568   -1.377827   -2.077543
    148          1           0       14.259285   -2.677397   -1.713324
    149          1           0       14.418536   -2.237101    0.293830
    150          1           0       13.753165   -0.546323    0.139185
    151          1           0       15.461888   -0.805188    0.121847
    152          1           0       10.113008   -6.096741   -0.035307
    153          1           0       11.280049   -5.386956   -1.220727
    154          1           0        9.495758   -5.836539   -1.584372
    155          1           0        6.771166   -3.585063    2.846102
    156          1           0        2.732490   -3.560165    3.084186
    157          1           0        2.939827   -4.334012    1.510155
    158          1           0        2.825726   -2.589801    1.492574
 ---------------------------------------------------------------------

 SCF Done:  E(RCAM-B3LYP) =  -4069.82317265     A.U. after   19 cycles

 Excitation energies and oscillator strengths:

 Excited State   1:      Singlet-A      1.6974 eV  730.46 nm  f=0.2393  <S**2>=0.000
     309 -> 315       -0.17633
     311 -> 313        0.21650
     312 -> 314        0.64934
     309 <- 315       -0.10341
 This state for optimization and/or second-order correction.
 Total Energy, E(TD-HF/TD-DFT) =  -4069.76079602
 Copying the excited state density for this state as the 1-particle RhoCI density.

 Excited State   2:      Singlet-A      1.7101 eV  725.00 nm  f=0.4929  <S**2>=0.000
     310 -> 316        0.16589
     311 -> 313        0.65108
     312 -> 314       -0.21535

 Excited State   3:      Singlet-A      2.2481 eV  551.51 nm  f=0.0925  <S**2>=0.000
     310 -> 313        0.62516
     311 -> 316       -0.31544

 Excited State   4:      Singlet-A      2.2663 eV  547.08 nm  f=0.0462  <S**2>=0.000
     309 -> 314        0.60910
     312 -> 315        0.34887

 Excited State   5:      Singlet-A      2.8556 eV  434.18 nm  f=0.0000  <S**2>=0.000
     312 -> 313        0.70699

 The electronic state is 1-A.
 Alpha  occ. eigenvalues --  -46.89236 -46.89235 -19.26463 -19.25592 -19.20357
 Alpha  occ. eigenvalues --  -19.20213 -19.19730 -19.19531 -19.19493 -19.18530
 Alpha  occ. eigenvalues --  -14.42475 -14.42272 -14.42227 -14.42180 -14.40287
 Alpha  occ. eigenvalues --  -14.39486 -14.39468 -14.39174 -10.40049 -10.39475
 Alpha  occ. eigenvalues --  -10.36721 -10.35701 -10.35384 -10.34837 -10.32273
 Alpha  occ. eigenvalues --  -10.32156 -10.31959 -10.31752 -10.31749 -10.31652
 Alpha  occ. eigenvalues --  -10.31239 -10.31168 -10.30857 -10.30528 -10.30465
 Alpha  occ. eigenvalues --  -10.30322 -10.30166 -10.29879 -10.29733 -10.29577
 Alpha  occ. eigenvalues --  -10.29224 -10.28993 -10.28972 -10.28801 -10.28550
 Alpha  occ. eigenvalues --  -10.28547 -10.28407 -10.28310 -10.28297 -10.28188
 Alpha  occ. eigenvalues --  -10.28096 -10.28089 -10.28065 -10.28046 -10.28014
 Alpha  occ. eigenvalues --  -10.27844 -10.27828 -10.27806 -10.27801 -10.27751
 Alpha  occ. eigenvalues --  -10.27674 -10.27571 -10.27507 -10.27499 -10.27489
 Alpha  occ. eigenvalues --  -10.27410 -10.27360 -10.27350 -10.27339 -10.27040
 Alpha  occ. eigenvalues --  -10.26920 -10.26761 -10.26698 -10.26551 -10.26487
 Alpha  occ. eigenvalues --  -10.26334 -10.26214 -10.26139 -10.26036 -10.25849
 Alpha  occ. eigenvalues --  -10.25841 -10.25753 -10.25563 -10.25486 -10.24715
 Alpha  occ. eigenvalues --  -10.24656  -3.17768  -3.17639  -1.92635  -1.92542
 Alpha  occ. eigenvalues --   -1.92211  -1.92099  -1.92084  -1.91940  -1.16936
 Alpha  occ. eigenvalues --   -1.15908  -1.10174  -1.09601  -1.08662  -1.08449
 Alpha  occ. eigenvalues --   -1.07842  -1.07425  -1.05116  -1.04733  -1.04065
 Alpha  occ. eigenvalues --   -1.03762  -1.03578  -1.02877  -1.02223  -1.01692
 Alpha  occ. eigenvalues --   -0.92351  -0.91497  -0.89081  -0.88913  -0.88882
 Alpha  occ. eigenvalues --   -0.88795  -0.88759  -0.87994  -0.87344  -0.87264
 Alpha  occ. eigenvalues --   -0.87043  -0.86896  -0.86454  -0.86237  -0.84618
 Alpha  occ. eigenvalues --   -0.84389  -0.83937  -0.83346  -0.82578  -0.82396
 Alpha  occ. eigenvalues --   -0.81703  -0.81507  -0.81189  -0.81183  -0.80262
 Alpha  occ. eigenvalues --   -0.79955  -0.78075  -0.77983  -0.77533  -0.77331
 Alpha  occ. eigenvalues --   -0.77181  -0.76827  -0.75967  -0.75769  -0.75357
 Alpha  occ. eigenvalues --   -0.74963  -0.72769  -0.72448  -0.72161  -0.71789
 Alpha  occ. eigenvalues --   -0.69858  -0.69235  -0.69231  -0.69036  -0.68309
 Alpha  occ. eigenvalues --   -0.67984  -0.67411  -0.67316  -0.66169  -0.65217
 Alpha  occ. eigenvalues --   -0.65153  -0.65075  -0.64968  -0.64692  -0.64623
 Alpha  occ. eigenvalues --   -0.64369  -0.62763  -0.62496  -0.60287  -0.60005
 Alpha  occ. eigenvalues --   -0.59665  -0.59394  -0.58989  -0.58898  -0.58756
 Alpha  occ. eigenvalues --   -0.58661  -0.57942  -0.57809  -0.57471  -0.57309
 Alpha  occ. eigenvalues --   -0.56018  -0.55911  -0.55843  -0.55506  -0.55435
 Alpha  occ. eigenvalues --   -0.55083  -0.55023  -0.54863  -0.54394  -0.53813
 Alpha  occ. eigenvalues --   -0.53498  -0.53451  -0.53195  -0.53162  -0.53130
 Alpha  occ. eigenvalues --   -0.52843  -0.52646  -0.52381  -0.52267  -0.52122
 Alpha  occ. eigenvalues --   -0.52041  -0.51926  -0.51683  -0.51481  -0.51429
 Alpha  occ. eigenvalues --   -0.51242  -0.51173  -0.51035  -0.50934  -0.50870
 Alpha  occ. eigenvalues --   -0.49979  -0.49833  -0.49624  -0.49529  -0.49410
 Alpha  occ. eigenvalues --   -0.49297  -0.49112  -0.48903  -0.48573  -0.48562
 Alpha  occ. eigenvalues --   -0.48507  -0.48433  -0.48323  -0.48222  -0.48099
 Alpha  occ. eigenvalues --   -0.47928  -0.47742  -0.47686  -0.47507  -0.47352
 Alpha  occ. eigenvalues --   -0.47241  -0.47219  -0.46921  -0.46836  -0.46735
 Alpha  occ. eigenvalues --   -0.46664  -0.46458  -0.46128  -0.46055  -0.45847
 Alpha  occ. eigenvalues --   -0.45635  -0.45594  -0.45324  -0.45173  -0.44814
 Alpha  occ. eigenvalues --   -0.44756  -0.44522  -0.44506  -0.44183  -0.43871
 Alpha  occ. eigenvalues --   -0.43862  -0.43848  -0.43552  -0.43435  -0.43334
 Alpha  occ. eigenvalues --   -0.43201  -0.42997  -0.42971  -0.42884  -0.42743
 Alpha  occ. eigenvalues --   -0.42521  -0.42505  -0.42298  -0.42186  -0.42116
 Alpha  occ. eigenvalues --   -0.42087  -0.42019  -0.41912  -0.41680  -0.41677
 Alpha  occ. eigenvalues --   -0.41494  -0.41219  -0.40831  -0.40707  -0.40648
 Alpha  occ. eigenvalues --   -0.40522  -0.39774  -0.39771  -0.39483  -0.39405
 Alpha  occ. eigenvalues --   -0.38816  -0.38472  -0.38228  -0.37858  -0.37473
 Alpha  occ. eigenvalues --   -0.37465  -0.37118  -0.36931  -0.36688  -0.36477
 Alpha  occ. eigenvalues --   -0.36355  -0.36211  -0.34945  -0.34871  -0.34627
 Alpha  occ. eigenvalues --   -0.34193  -0.33462  -0.33094  -0.31633  -0.31254
 Alpha  occ. eigenvalues --   -0.31200  -0.31088  -0.30978  -0.30554  -0.30535
 Alpha  occ. eigenvalues --   -0.30363  -0.29905  -0.29867  -0.24393  -0.24264
 Alpha  occ. eigenvalues --   -0.21143  -0.20938
 Alpha virt. eigenvalues --   -0.08642  -0.08471  -0.02337  -0.02080  -0.00226
 Alpha virt. eigenvalues --    0.00108   0.01579   0.01913   0.01968   0.02190
 Alpha virt. eigenvalues --    0.04784   0.04898   0.04976   0.05016   0.05471

 Mulliken charges:
               1
     1  Mg   0.836202
     2  C   -0.066121
     3  C   -0.099935
     4  C   -0.076198
     5  C   -0.074135
     6  N   -0.335360
     7  C   -0.053097
     8  C   -0.007797
     9  C   -0.038841
    10  C    0.100392
    11  C    0.060661
    12  C    0.062933
    13  C   -0.069963
    14  H    0.024743
    15  N   -0.347228
    16  C    0.138576
    17  C   -0.175735
    18  C   -0.042762
    19  C    0.173908
    20  C    0.164804
    21  C    0.001280
    22  O   -0.229494
    23  C    0.054696
    24  N   -0.257167
    25  C   -0.006285
    26  C   -0.021961
    27  C   -0.004557
    28  C    0.016372
    29  C    0.057078
    30  C    0.038420
    31  C   -0.002803
    32  N   -0.349054
    33  C    0.091911
    34  C   -0.191323
    35  C    0.000823
    36  C    0.118543
    37  C    0.151293
    38  C    0.078609
    39  O   -0.194934
    40  C    0.005705
    41  C    0.224979
    42  O   -0.216867
    43  O   -0.326368
    44  C    0.174506
    45  H   -0.017211
    46  H   -0.042188
    47  H   -0.036255
    48  H    0.000568
    49  H    0.005250
    50  H    0.014515
    51  H    0.013790
    52  H    0.016705
    53  H    0.006651
    54  H    0.005500
    55  H    0.043126
    56  H    0.028865
    57  H    0.042154
    58  H    0.047617
    59  H   -0.010049
    60  H    0.058950
    61  H    0.031830
    62  H    0.040083
    63  H    0.020436
    64  H    0.008911
    65  H    0.024816
    66  H    0.011977
    67  H    0.017505
    68  H    0.008406
    69  H    0.004939
    70  H    0.016922
    71  H    0.008635
    72  H    0.019748
    73  H   -0.000341
    74  H    0.052463
    75  H    0.026561
    76  H    0.033761
    77  H    0.037996
    78  H    0.033539
    79  H    0.035378
    80  Mg   0.798347
    81  C    0.018672
    82  C   -0.098326
    83  C   -0.026680
    84  C   -0.072785
    85  N   -0.371595
    86  C   -0.041968
    87  C   -0.004764
    88  C   -0.083382
    89  C    0.109771
    90  C    0.079520
    91  C    0.115847
    92  C   -0.087796
    93  H   -0.011918
    94  N   -0.377589
    95  C    0.154370
    96  C   -0.133079
    97  C   -0.038306
    98  C    0.104450
    99  C    0.104491
   100  C    0.019069
   101  O   -0.205722
   102  C    0.005683
   103  N   -0.192984
   104  C   -0.005938
   105  C   -0.021466
   106  C    0.004550
   107  C    0.005367
   108  C    0.043667
   109  C   -0.019967
   110  C   -0.000250
   111  N   -0.317280
   112  C    0.124326
   113  C   -0.222856
   114  C    0.035499
   115  C    0.083054
   116  C    0.127690
   117  C    0.060039
   118  O   -0.156765
   119  C   -0.043725
   120  C    0.209622
   121  O   -0.230576
   122  O   -0.341552
   123  C    0.182773
   124  H   -0.025459
   125  H   -0.002804
   126  H   -0.021400
   127  H    0.011838
   128  H    0.000652
   129  H    0.022463
   130  H    0.023648
   131  H    0.028283
   132  H    0.014326
   133  H    0.017043
   134  H    0.020606
   135  H    0.040476
   136  H    0.031503
   137  H    0.040542
   138  H   -0.006328
   139  H    0.058992
   140  H    0.025765
   141  H    0.020782
   142  H    0.023684
   143  H    0.011160
   144  H    0.021337
   145  H    0.027396
   146  H    0.018926
   147  H    0.016242
   148  H   -0.003186
   149  H    0.022489
   150  H    0.020559
   151  H    0.015672
   152  H    0.023515
   153  H    0.018772
   154  H    0.042460
   155  H    0.039481
   156  H    0.041839
   157  H    0.037383
   158  H    0.041806
 Sum of Mulliken charges =  -0.00000

 Dipole moment (field-independent basis, Debye):
    X=             -0.7557    Y=              3.1303    Z=              0.3264  Tot=              3.2368
 Quadrupole moment (field-independent basis, Debye-Ang):
   XX=           -491.2270   YY=           -502.1924   ZZ=           -537.2140
   XY=             21.4534   XZ=             30.5695   YZ=             52.2949

 Normal termination of Gaussian 16 at Thu Sep 16 10:34:18 2021.
