 Gaussian 16, Revision A.03,
 Gaussian 16:  ES64L-G16RevA.03 25-Dec-2016

 -----------------------------------
 #p cam-b3lyp/Def2SVP td=(nstates=5)
 -----------------------------------

 --------------------------------
 TDDFT excited states in gaussian
 --------------------------------
 Symbolic Z-matrix:
 Charge =  0 Multiplicity = 1

                         Standard orientation:
 ---------------------------------------------------------------------
 Center     Atomic      Atomic             Coordinates (Angstroms)
 Number     Number       Type             X           Y           Z
 ---------------------------------------------------------------------
      1         12           0       25.513034   -0.524229    0.265352
      2          6           0       24.071108    2.751418    0.474995
      3          6           0       26.665559    0.315733   -2.874342
      4          6           0       26.256585   -3.679832   -0.140248
      5          6           0       24.060953   -1.181627    3.342644
      6          7           0       25.133612    1.290201   -1.200653
      7          6           0       24.623648    2.490493   -0.785502
      8          6           0       24.961104    3.585988   -1.832122
      9          6           0       25.751714    2.794677   -2.956432
     10          6           0       25.869995    1.344238   -2.361281
     11          6           0       25.118038    2.740023   -4.409931
     12          6           0       25.786790    4.783861   -1.291611
     13          6           0       25.365460    6.153267   -1.690689
     14          1           0       24.440773    6.452309   -2.931946
     15          7           0       26.360745   -1.604657   -1.325107
     16          6           0       26.904749   -1.081820   -2.498010
     17          6           0       27.418827   -2.193572   -3.320706
     18          6           0       27.398660   -3.354732   -2.456231
     19          6           0       26.649836   -2.919446   -1.254455
     20          6           0       27.930203   -2.088498   -4.725579
     21          6           0       27.958058   -4.782450   -2.660034
     22          8           0       28.156820   -5.610768   -1.746428
     23          6           0       28.450460   -5.133954   -4.006162
     24          7           0       25.147041   -2.133052    1.390030
     25          6           0       25.522135   -3.379106    0.937916
     26          6           0       25.378055   -4.448445    2.056035
     27          6           0       25.009585   -3.527602    3.302299
     28          6           0       24.731419   -2.181282    2.656563
     29          6           0       24.360544   -5.639248    1.825968
     30          6           0       26.053021   -3.400657    4.400921
     31          6           0       25.657950   -3.995612    5.768772
     32          7           0       24.476425    0.583002    1.737879
     33          6           0       23.925166    0.164238    2.925687
     34          6           0       23.182364    1.266554    3.550521
     35          6           0       23.280157    2.298010    2.633510
     36          6           0       24.067758    1.844663    1.551818
     37          6           0       22.417409    1.280151    4.832694
     38          6           0       22.897730    3.651526    2.447904
     39          8           0       22.323286    4.482404    3.207626
     40          6           0       23.364340    3.996792    1.097409
     41          6           0       22.230157    4.560582    0.284899
     42          8           0       21.307741    3.943138   -0.125643
     43          8           0       22.450116    5.850695    0.032519
     44          6           0       21.382912    6.661564   -0.447138
     45          1           0       27.056078    0.493295   -3.878705
     46          1           0       26.484238   -4.748373   -0.115573
     47          1           0       23.543001   -1.422445    4.272460
     48          1           0       24.001078    3.952546   -2.197441
     49          1           0       26.758539    3.199161   -3.055897
     50          1           0       24.253459    3.384421   -4.566688
     51          1           0       24.737680    1.726688   -4.546698
     52          1           0       25.881474    2.927699   -5.165553
     53          1           0       26.833619    4.748196   -1.595491
     54          1           0       25.789021    4.837224   -0.203300
     55          1           0       26.242533    6.744640   -1.955340
     56          1           0       24.889450    6.609154   -0.822982
     57          1           0       27.395408   -2.796160   -5.358696
     58          1           0       28.981215   -2.375159   -4.689391
     59          1           0       27.966354   -1.052204   -5.063155
     60          1           0       27.600518   -5.089984   -4.687236
     61          1           0       28.750526   -6.179348   -3.938133
     62          1           0       29.341698   -4.568792   -4.277547
     63          1           0       26.382926   -4.844011    2.207303
     64          1           0       24.108699   -3.950078    3.747181
     65          1           0       23.882811   -5.540925    0.851840
     66          1           0       23.653231   -5.763239    2.646885
     67          1           0       24.937251   -6.563607    1.862372
     68          1           0       26.493890   -2.414125    4.544762
     69          1           0       26.910343   -3.993963    4.084726
     70          1           0       25.889770   -3.400898    6.652104
     71          1           0       26.330258   -4.835368    5.946635
     72          1           0       24.610098   -4.273291    5.874501
     73          1           0       22.687581    0.454022    5.491056
     74          1           0       21.365229    1.069832    4.641450
     75          1           0       22.495588    2.293336    5.226766
     76          1           0       24.133468    4.756342    1.235023
     77          1           0       20.724389    6.831463    0.405840
     78          1           0       20.768777    6.114845   -1.162860
     79          1           0       21.745937    7.634023   -0.780819
     80         12           0      -24.771715   -0.983024   -0.129267
     81          6           0      -26.326872    2.211449    0.773082
     82          6           0      -22.673077    0.874698   -2.231771
     83          6           0      -23.574423   -3.800200   -1.250692
     84          6           0      -26.807909   -2.571336    2.127524
     85          7           0      -24.668195    1.222205   -0.814727
     86          6           0      -25.308546    2.392670   -0.227475
     87          6           0      -24.874614    3.727890   -0.869431
     88          6           0      -23.825029    3.153548   -1.987019
     89          6           0      -23.691292    1.643984   -1.706134
     90          6           0      -24.226850    3.458251   -3.417055
     91          6           0      -24.312278    4.699817    0.211614
     92          6           0      -23.589018    5.901158   -0.318632
     93          1           0      -23.846207    7.261799    0.289793
     94          7           0      -23.319306   -1.445178   -1.581233
     95          6           0      -22.553712   -0.551526   -2.338754
     96          6           0      -21.616515   -1.295454   -3.178349
     97          6           0      -21.857749   -2.703316   -2.901467
     98          6           0      -22.957819   -2.737674   -1.868138
     99          6           0      -20.520325   -0.645839   -4.100225
    100          6           0      -21.263540   -3.935884   -3.481710
    101          8           0      -21.536215   -5.077153   -3.134001
    102          6           0      -20.179810   -3.835432   -4.473581
    103          7           0      -25.057822   -2.850694    0.412001
    104          6           0      -24.549732   -3.878404   -0.270608
    105          6           0      -24.986629   -5.248444    0.298983
    106          6           0      -25.629389   -4.827484    1.604239
    107          6           0      -25.925301   -3.296925    1.360412
    108          6           0      -25.939162   -6.006062   -0.618746
    109          6           0      -24.968011   -5.024729    2.943678
    110          6           0      -23.677586   -4.253382    3.120741
    111          7           0      -26.327299   -0.378539    1.116731
    112          6           0      -27.002034   -1.162874    2.069624
    113          6           0      -27.942534   -0.329714    2.777550
    114          6           0      -27.610308    0.969743    2.315385
    115          6           0      -26.638277    0.903813    1.298993
    116          6           0      -28.878001   -0.707261    3.888814
    117          6           0      -27.951543    2.402947    2.573444
    118          8           0      -28.669499    2.928117    3.451099
    119          6           0      -27.147566    3.208278    1.555117
    120          6           0      -28.085621    4.084040    0.721806
    121          8           0      -29.003720    3.759328   -0.087844
    122          8           0      -27.667760    5.372356    0.879909
    123          6           0      -28.395934    6.386282    0.083936
    124          1           0      -21.897642    1.465041   -2.722383
    125          1           0      -23.234402   -4.755502   -1.655835
    126          1           0      -27.504577   -3.011859    2.843958
    127          1           0      -25.797760    4.179250   -1.232872
    128          1           0      -22.827763    3.528718   -1.757128
    129          1           0      -23.426248    4.030761   -3.886299
    130          1           0      -25.122457    4.075661   -3.357623
    131          1           0      -24.651662    2.645466   -4.005741
    132          1           0      -23.746749    4.071546    0.900641
    133          1           0      -25.144193    5.061808    0.815875
    134          1           0      -23.748358    6.152062   -1.367073
    135          1           0      -22.521307    5.784396   -0.135239
    136          1           0      -19.572817   -0.991633   -3.685987
    137          1           0      -20.530733    0.443908   -4.085647
    138          1           0      -20.701215   -1.032879   -5.103092
    139          1           0      -20.350420   -3.077175   -5.238083
    140          1           0      -20.165817   -4.822447   -4.934529
    141          1           0      -19.337427   -3.454758   -3.896820
    142          1           0      -24.082073   -5.844354    0.421043
    143          1           0      -26.573553   -5.343441    1.780973
    144          1           0      -25.664510   -7.060178   -0.605563
    145          1           0      -25.871487   -5.643919   -1.644045
    146          1           0      -26.946263   -6.004433   -0.200249
    147          1           0      -24.859319   -6.097219    3.107412
    148          1           0      -25.571118   -4.595366    3.743512
    149          1           0      -22.888479   -4.870139    3.549316
    150          1           0      -23.774538   -3.425400    3.823342
    151          1           0      -23.263604   -3.851387    2.195929
    152          1           0      -28.730139   -0.036120    4.734514
    153          1           0      -28.864916   -1.711988    4.311179
    154          1           0      -29.890221   -0.568221    3.508528
    155          1           0      -26.514443    3.907853    2.101619
    156          1           0      -27.811703    6.651320   -0.797028
    157          1           0      -28.509680    7.149128    0.854163
    158          1           0      -29.414143    6.076416   -0.154769
 ---------------------------------------------------------------------

 SCF Done:  E(RCAM-B3LYP) =  -4069.81745116     A.U. after   19 cycles

 Excitation energies and oscillator strengths:

 Excited State   1:      Singlet-A      1.6630 eV  745.54 nm  f=0.3996  <S**2>=0.000
     309 -> 315       -0.16582
     311 -> 313        0.68886
     309 <- 315       -0.10534
 This state for optimization and/or second-order correction.
 Total Energy, E(TD-HF/TD-DFT) =  -4069.75633645
 Copying the excited state density for this state as the 1-particle RhoCI density.

 Excited State   2:      Singlet-A      1.7200 eV  720.85 nm  f=0.4220  <S**2>=0.000
     310 -> 316        0.17639
     312 -> 314        0.68704
     310 <- 316        0.10599

 Excited State   3:      Singlet-A      2.1713 eV  571.01 nm  f=0.1372  <S**2>=0.000
     309 -> 313        0.65261
     311 -> 315        0.25468

 Excited State   4:      Singlet-A      2.2103 eV  560.94 nm  f=0.1297  <S**2>=0.000
     310 -> 314        0.65015
     312 -> 316       -0.26633

 Excited State   5:      Singlet-A      3.0889 eV  401.39 nm  f=0.0000  <S**2>=0.000
     312 -> 313        0.70710

 The electronic state is 1-A.
 Alpha  occ. eigenvalues --  -46.88937 -46.87754 -19.25756 -19.25028 -19.19681
 Alpha  occ. eigenvalues --  -19.19631 -19.19052 -19.18763 -19.18573 -19.18465
 Alpha  occ. eigenvalues --  -14.42497 -14.42163 -14.42082 -14.41645 -14.39956
 Alpha  occ. eigenvalues --  -14.39721 -14.39584 -14.38860 -10.39951 -10.39074
 Alpha  occ. eigenvalues --  -10.34984 -10.34735 -10.34735 -10.34647 -10.31972
 Alpha  occ. eigenvalues --  -10.31907 -10.31726 -10.31534 -10.31498 -10.31369
 Alpha  occ. eigenvalues --  -10.31092 -10.31053 -10.30982 -10.30690 -10.30614
 Alpha  occ. eigenvalues --  -10.30574 -10.30467 -10.30184 -10.29725 -10.29575
 Alpha  occ. eigenvalues --  -10.29323 -10.29262 -10.28961 -10.28952 -10.28877
 Alpha  occ. eigenvalues --  -10.28817 -10.28783 -10.28776 -10.28651 -10.28597
 Alpha  occ. eigenvalues --  -10.28587 -10.28409 -10.28394 -10.28291 -10.28249
 Alpha  occ. eigenvalues --  -10.28223 -10.28124 -10.27591 -10.27540 -10.27530
 Alpha  occ. eigenvalues --  -10.27506 -10.27384 -10.27212 -10.27080 -10.27022
 Alpha  occ. eigenvalues --  -10.27006 -10.26967 -10.26835 -10.26792 -10.26757
 Alpha  occ. eigenvalues --  -10.26497 -10.26281 -10.26231 -10.25942 -10.25920
 Alpha  occ. eigenvalues --  -10.25896 -10.25824 -10.25731 -10.25719 -10.25627
 Alpha  occ. eigenvalues --  -10.25605 -10.25472 -10.25217 -10.25208 -10.24702
 Alpha  occ. eigenvalues --  -10.24559  -3.17514  -3.16494  -1.92397  -1.91984
 Alpha  occ. eigenvalues --   -1.91814  -1.91399  -1.90960  -1.90796  -1.18647
 Alpha  occ. eigenvalues --   -1.15999  -1.10383  -1.09736  -1.08333  -1.08110
 Alpha  occ. eigenvalues --   -1.07801  -1.05760  -1.05050  -1.04857  -1.03796
 Alpha  occ. eigenvalues --   -1.02822  -1.02557  -1.02269  -1.01811  -1.00605
 Alpha  occ. eigenvalues --   -0.93598  -0.92304  -0.89692  -0.89154  -0.88859
 Alpha  occ. eigenvalues --   -0.88695  -0.88571  -0.88397  -0.87766  -0.87321
 Alpha  occ. eigenvalues --   -0.86999  -0.86908  -0.86313  -0.85880  -0.84770
 Alpha  occ. eigenvalues --   -0.84582  -0.84052  -0.83553  -0.82940  -0.82650
 Alpha  occ. eigenvalues --   -0.82299  -0.82086  -0.81743  -0.81420  -0.80534
 Alpha  occ. eigenvalues --   -0.80076  -0.78520  -0.78328  -0.77738  -0.77272
 Alpha  occ. eigenvalues --   -0.77185  -0.76810  -0.76385  -0.75965  -0.75498
 Alpha  occ. eigenvalues --   -0.75227  -0.73202  -0.72762  -0.71951  -0.71519
 Alpha  occ. eigenvalues --   -0.70297  -0.69446  -0.69428  -0.69001  -0.67634
 Alpha  occ. eigenvalues --   -0.67519  -0.67142  -0.66278  -0.65948  -0.65062
 Alpha  occ. eigenvalues --   -0.64944  -0.64876  -0.64662  -0.64501  -0.64327
 Alpha  occ. eigenvalues --   -0.63822  -0.63059  -0.61940  -0.60361  -0.60228
 Alpha  occ. eigenvalues --   -0.59889  -0.59363  -0.59166  -0.59162  -0.59081
 Alpha  occ. eigenvalues --   -0.58322  -0.58238  -0.57783  -0.57718  -0.57400
 Alpha  occ. eigenvalues --   -0.56521  -0.56281  -0.56136  -0.55988  -0.55482
 Alpha  occ. eigenvalues --   -0.55300  -0.55206  -0.54941  -0.54804  -0.54289
 Alpha  occ. eigenvalues --   -0.53780  -0.53461  -0.53456  -0.53277  -0.53073
 Alpha  occ. eigenvalues --   -0.53044  -0.52822  -0.52727  -0.52497  -0.52433
 Alpha  occ. eigenvalues --   -0.52128  -0.51679  -0.51607  -0.51514  -0.51146
 Alpha  occ. eigenvalues --   -0.51142  -0.50832  -0.50731  -0.50385  -0.50187
 Alpha  occ. eigenvalues --   -0.50105  -0.50062  -0.49908  -0.49792  -0.49520
 Alpha  occ. eigenvalues --   -0.49281  -0.49116  -0.48841  -0.48811  -0.48781
 Alpha  occ. eigenvalues --   -0.48605  -0.48544  -0.48448  -0.48359  -0.48263
 Alpha  occ. eigenvalues --   -0.48077  -0.47734  -0.47717  -0.47565  -0.47442
 Alpha  occ. eigenvalues --   -0.47018  -0.46938  -0.46804  -0.46757  -0.46521
 Alpha  occ. eigenvalues --   -0.46239  -0.46153  -0.46140  -0.46078  -0.45999
 Alpha  occ. eigenvalues --   -0.45833  -0.45701  -0.45440  -0.45308  -0.44943
 Alpha  occ. eigenvalues --   -0.44813  -0.44567  -0.44533  -0.44475  -0.44354
 Alpha  occ. eigenvalues --   -0.44181  -0.43975  -0.43669  -0.43489  -0.43467
 Alpha  occ. eigenvalues --   -0.43182  -0.43059  -0.42711  -0.42635  -0.42633
 Alpha  occ. eigenvalues --   -0.42503  -0.42200  -0.42179  -0.41886  -0.41850
 Alpha  occ. eigenvalues --   -0.41755  -0.41653  -0.41459  -0.41204  -0.41198
 Alpha  occ. eigenvalues --   -0.40992  -0.40955  -0.40461  -0.40295  -0.40109
 Alpha  occ. eigenvalues --   -0.39952  -0.39709  -0.39228  -0.39149  -0.39105
 Alpha  occ. eigenvalues --   -0.38893  -0.38211  -0.37937  -0.37331  -0.37128
 Alpha  occ. eigenvalues --   -0.36975  -0.36765  -0.36557  -0.36521  -0.36290
 Alpha  occ. eigenvalues --   -0.36109  -0.35876  -0.34707  -0.34304  -0.34152
 Alpha  occ. eigenvalues --   -0.34096  -0.33068  -0.32932  -0.31624  -0.31513
 Alpha  occ. eigenvalues --   -0.31467  -0.31269  -0.30787  -0.30625  -0.30400
 Alpha  occ. eigenvalues --   -0.30316  -0.29508  -0.29172  -0.24249  -0.24140
 Alpha  occ. eigenvalues --   -0.21476  -0.21332
 Alpha virt. eigenvalues --   -0.09293  -0.08963  -0.01661  -0.01498  -0.00216
 Alpha virt. eigenvalues --    0.00331   0.01904   0.02190   0.02338   0.03367
 Alpha virt. eigenvalues --    0.04510   0.05161   0.05246   0.05737   0.06090

 Mulliken charges:
               1
     1  Mg   0.831090
     2  C   -0.003501
     3  C   -0.022627
     4  C   -0.061403
     5  C   -0.094161
     6  N   -0.252773
     7  C   -0.054204
     8  C    0.021058
     9  C   -0.061027
    10  C    0.018210
    11  C    0.057381
    12  C    0.048943
    13  C   -0.081513
    14  H    0.000612
    15  N   -0.364178
    16  C    0.090951
    17  C   -0.170520
    18  C   -0.041461
    19  C    0.129263
    20  C    0.140603
    21  C    0.009635
    22  O   -0.229726
    23  C    0.054898
    24  N   -0.351645
    25  C    0.076933
    26  C   -0.074962
    27  C   -0.035798
    28  C    0.084598
    29  C    0.075271
    30  C    0.058328
    31  C   -0.010541
    32  N   -0.321540
    33  C    0.100463
    34  C   -0.161324
    35  C   -0.007604
    36  C    0.104562
    37  C    0.130297
    38  C    0.044975
    39  O   -0.216261
    40  C    0.039332
    41  C    0.154826
    42  O   -0.173661
    43  O   -0.300078
    44  C    0.179713
    45  H   -0.038455
    46  H   -0.005586
    47  H   -0.029190
    48  H    0.021577
    49  H    0.016322
    50  H    0.019305
    51  H    0.019352
    52  H    0.018329
    53  H    0.008923
    54  H    0.007781
    55  H    0.022225
    56  H    0.037182
    57  H    0.036382
    58  H    0.019952
    59  H    0.011632
    60  H    0.032295
    61  H    0.020487
    62  H    0.045040
    63  H    0.021398
    64  H    0.000780
    65  H    0.029691
    66  H    0.014092
    67  H    0.016467
    68  H    0.016417
    69  H   -0.002363
    70  H    0.007291
    71  H    0.010592
    72  H    0.017251
    73  H    0.008822
    74  H    0.034140
    75  H    0.049479
    76  H    0.040263
    77  H    0.029051
    78  H    0.038725
    79  H    0.042920
    80  Mg   0.833730
    81  C   -0.021274
    82  C   -0.080158
    83  C   -0.082744
    84  C   -0.070314
    85  N   -0.301389
    86  C   -0.047376
    87  C   -0.021588
    88  C   -0.058508
    89  C    0.064036
    90  C    0.100734
    91  C    0.032550
    92  C   -0.071172
    93  H    0.011803
    94  N   -0.386360
    95  C    0.147006
    96  C   -0.156154
    97  C   -0.010719
    98  C    0.125027
    99  C    0.113797
   100  C   -0.027319
   101  O   -0.211688
   102  C    0.063960
   103  N   -0.345402
   104  C    0.087674
   105  C   -0.030107
   106  C   -0.026323
   107  C    0.096081
   108  C    0.087957
   109  C    0.059800
   110  C   -0.013220
   111  N   -0.360271
   112  C    0.064907
   113  C   -0.139142
   114  C   -0.053528
   115  C    0.135990
   116  C    0.107473
   117  C    0.083461
   118  O   -0.200405
   119  C    0.008597
   120  C    0.216106
   121  O   -0.257650
   122  O   -0.336362
   123  C    0.163767
   124  H   -0.033236
   125  H   -0.005313
   126  H   -0.025211
   127  H    0.025808
   128  H    0.008752
   129  H    0.023479
   130  H    0.000236
   131  H    0.025548
   132  H    0.009589
   133  H    0.036929
   134  H    0.030370
   135  H    0.032717
   136  H    0.039166
   137  H    0.020310
   138  H    0.045778
   139  H    0.005834
   140  H    0.040875
   141  H    0.037729
   142  H    0.013769
   143  H   -0.013285
   144  H    0.012817
   145  H    0.026528
   146  H    0.015532
   147  H    0.009179
   148  H    0.004002
   149  H    0.005197
   150  H    0.012497
   151  H    0.021973
   152  H    0.039111
   153  H    0.005107
   154  H    0.032602
   155  H    0.049801
   156  H    0.048530
   157  H    0.042670
   158  H    0.059328
 Sum of Mulliken charges =  -0.00000

 Dipole moment (field-independent basis, Debye):
    X=              7.1519    Y=              1.1824    Z=             -3.7490  Tot=              8.1610
 Quadrupole moment (field-independent basis, Debye-Ang):
   XX=           -639.8724   YY=           -502.4079   ZZ=           -489.1775
   XY=             31.3792   XZ=             22.6180   YZ=            -48.2359

 Normal termination of Gaussian 16 at Thu Sep  2 17:01:50 2021.
