 Gaussian 16, Revision A.03,
 Gaussian 16:  ES64L-G16RevA.03 25-Dec-2016

 ----------------------------------------------------------
 #p cam-b3lyp/Def2SVP td=(nstates=5) density=(transition=1)
 ----------------------------------------------------------

 --------------------------------
 TDDFT excited states in gaussian
 --------------------------------
 Symbolic Z-matrix:
 Charge =  0 Multiplicity = 1

                         Standard orientation:
 ---------------------------------------------------------------------
 Center     Atomic      Atomic             Coordinates (Angstroms)
 Number     Number       Type             X           Y           Z
 ---------------------------------------------------------------------
      1         12           0      -28.049972    0.269832    0.294506
      2          6           0      -25.354298   -1.901816    0.000527
      3          6           0      -25.653475    2.913544    0.013190
      4          6           0      -30.519110    2.427625    0.065231
      5          6           0      -30.208317   -2.465515   -0.171479
      6          7           0      -25.794151    0.453157   -0.083616
      7          6           0      -24.923858   -0.613677   -0.068369
      8          6           0      -23.486943   -0.124126   -0.268080
      9          6           0      -23.627823    1.395455    0.023904
     10          6           0      -25.112118    1.638036   -0.055635
     11          6           0      -23.059519    1.957610    1.385809
     12          6           0      -22.934810   -0.429767   -1.670131
     13          6           0      -21.497509   -0.135219   -1.871518
     14          1           0      -20.767858   -0.888853   -3.048268
     15          7           0      -28.105744    2.408249    0.055456
     16          6           0      -27.025446    3.301916   -0.010975
     17          6           0      -27.555177    4.632392   -0.121976
     18          6           0      -28.987472    4.502482   -0.247550
     19          6           0      -29.265446    3.043424   -0.012479
     20          6           0      -26.655255    5.891487   -0.258790
     21          6           0      -29.910331    5.703294   -0.478577
     22          8           0      -29.501427    6.851179   -0.422289
     23          6           0      -31.342292    5.462514   -0.770129
     24          7           0      -30.094079   -0.017461    0.211164
     25          6           0      -30.897916    1.050440    0.167501
     26          6           0      -32.391835    0.584782   -0.067276
     27          6           0      -32.338149   -0.985239   -0.206397
     28          6           0      -30.729873   -1.194483   -0.098671
     29          6           0      -33.468370    1.102023    0.922768
     30          6           0      -32.881112   -1.418443   -1.584993
     31          6           0      -33.532708   -2.806111   -1.623667
     32          7           0      -27.901704   -1.800322   -0.024897
     33          6           0      -28.839763   -2.793439   -0.068393
     34          6           0      -28.146532   -4.087180   -0.056604
     35          6           0      -26.818628   -3.775857    0.062258
     36          6           0      -26.689761   -2.406368    0.011889
     37          6           0      -28.811700   -5.467013   -0.025512
     38          6           0      -25.504544   -4.341332    0.125940
     39          8           0      -25.115869   -5.482496    0.171312
     40          6           0      -24.496874   -3.143779    0.103359
     41          6           0      -23.769819   -3.145024    1.402526
     42          8           0      -24.246919   -3.212880    2.501262
     43          8           0      -22.407223   -2.907956    1.151408
     44          6           0      -21.571980   -2.798379    2.313433
     45          1           0      -24.843357    3.645127    0.018153
     46          1           0      -31.435750    3.019658    0.013835
     47          1           0      -30.852815   -3.344056   -0.245610
     48          1           0      -22.908177   -0.567658    0.540978
     49          1           0      -23.223873    2.065472   -0.734238
     50          1           0      -22.433503    2.796141    1.081475
     51          1           0      -22.742319    1.238346    2.141365
     52          1           0      -23.899525    2.430602    1.894291
     53          1           0      -23.365249    0.154706   -2.483735
     54          1           0      -23.126204   -1.472661   -1.923037
     55          1           0      -20.998692   -0.361729   -0.929194
     56          1           0      -21.374788    0.939041   -2.008278
     57          1           0      -26.819167    6.055699   -1.324287
     58          1           0      -25.580886    5.721421   -0.185828
     59          1           0      -26.819050    6.812359    0.301216
     60          1           0      -31.337251    4.714924   -1.563331
     61          1           0      -31.767420    6.378083   -1.181666
     62          1           0      -31.736908    5.107473    0.182200
     63          1           0      -32.682213    1.020750   -1.023577
     64          1           0      -32.828928   -1.539110    0.593261
     65          1           0      -34.062155    1.858312    0.408415
     66          1           0      -32.969975    1.438919    1.831120
     67          1           0      -34.183039    0.307299    1.136594
     68          1           0      -32.017662   -1.376551   -2.248433
     69          1           0      -33.564055   -0.700622   -2.039771
     70          1           0      -34.535749   -2.592039   -1.994288
     71          1           0      -33.512831   -3.343738   -0.675606
     72          1           0      -33.048912   -3.429772   -2.375490
     73          1           0      -28.392126   -6.222020   -0.689536
     74          1           0      -29.844538   -5.220522   -0.272799
     75          1           0      -28.887304   -5.737931    1.027691
     76          1           0      -23.820925   -3.330257   -0.731245
     77          1           0      -20.953597   -3.695848    2.331805
     78          1           0      -22.031668   -2.670324    3.293722
     79          1           0      -20.951336   -1.912432    2.182026
     80         12           0       28.015090    0.163167    0.307615
     81          6           0       24.614460   -0.297614   -0.255240
     82          6           0       28.449313   -3.238107   -0.208592
     83          6           0       31.299510    0.532764    0.273054
     84          6           0       27.524478    3.589217    0.304902
     85          7           0       26.728031   -1.532593   -0.331271
     86          6           0       25.348797   -1.512030   -0.365696
     87          6           0       24.749881   -2.877706   -0.528589
     88          6           0       25.973938   -3.813679   -0.127425
     89          6           0       27.140157   -2.843416   -0.260765
     90          6           0       25.940084   -4.746670    1.174680
     91          6           0       24.081870   -3.167540   -1.951884
     92          6           0       24.705407   -2.474240   -3.199672
     93          1           0       24.801037   -3.359614   -4.418922
     94          7           0       29.665837   -1.147483   -0.051212
     95          6           0       29.625846   -2.535714   -0.231310
     96          6           0       30.937192   -3.075187   -0.465791
     97          6           0       31.814889   -1.970743   -0.352069
     98          6           0       30.966914   -0.776641   -0.060497
     99          6           0       31.154425   -4.588939   -0.494059
    100          6           0       33.346109   -2.130384   -0.489954
    101          8           0       33.867768   -3.206172   -0.800300
    102          6           0       34.148456   -0.938846   -0.174345
    103          7           0       29.183916    1.862593    0.168962
    104          6           0       30.532391    1.730902    0.454885
    105          6           0       31.235967    3.087422    0.679702
    106          6           0       29.989128    4.033510    0.437848
    107          6           0       28.846312    3.139304    0.244509
    108          6           0       31.927944    3.350491    1.979857
    109          6           0       30.155817    4.972185   -0.861973
    110          6           0       29.769380    6.395799   -0.556241
    111          7           0       26.381329    1.456121    0.270799
    112          6           0       26.340682    2.838079    0.277299
    113          6           0       24.937734    3.301443    0.178083
    114          6           0       24.211157    2.078145   -0.032701
    115          6           0       25.136330    1.029648    0.030610
    116          6           0       24.387895    4.658930    0.005584
    117          6           0       22.910403    1.447825   -0.343347
    118          8           0       21.844668    1.967156   -0.581866
    119          6           0       23.113679   -0.097388   -0.456612
    120          6           0       22.228413   -0.795976    0.476014
    121          8           0       21.319200   -1.596547    0.255943
    122          8           0       22.392524   -0.172979    1.740988
    123          6           0       21.619621   -0.773736    2.849150
    124          1           0       28.510537   -4.325523   -0.123380
    125          1           0       32.349575    0.756596    0.471747
    126          1           0       27.471888    4.675885    0.392379
    127          1           0       23.923521   -3.012710    0.169180
    128          1           0       26.002419   -4.476782   -0.992421
    129          1           0       24.994213   -4.772599    1.715459
    130          1           0       26.642508   -4.443310    1.950891
    131          1           0       26.025021   -5.790014    0.869600
    132          1           0       23.008821   -2.982346   -1.915963
    133          1           0       24.133112   -4.247239   -2.092122
    134          1           0       25.689382   -2.068169   -2.963165
    135          1           0       24.087538   -1.627647   -3.497768
    136          1           0       31.975125   -4.903970   -1.139278
    137          1           0       30.283616   -5.065907   -0.943068
    138          1           0       31.375954   -4.874119    0.534656
    139          1           0       34.092987   -0.759323    0.898925
    140          1           0       33.792792   -0.090009   -0.759208
    141          1           0       35.167698   -1.205298   -0.453930
    142          1           0       31.869213    3.271964   -0.188394
    143          1           0       29.841949    4.479181    1.421605
    144          1           0       32.153367    4.417044    1.984186
    145          1           0       32.897142    2.854172    1.930251
    146          1           0       31.315869    3.007790    2.814980
    147          1           0       29.546994    4.520802   -1.645248
    148          1           0       31.126919    4.964955   -1.358572
    149          1           0       28.845420    6.612209   -1.091955
    150          1           0       30.427587    7.117884   -1.040557
    151          1           0       29.536561    6.495624    0.503719
    152          1           0       25.118108    5.469405   -0.009687
    153          1           0       23.762209    4.838778    0.879120
    154          1           0       24.011682    4.586870   -1.014695
    155          1           0       22.863081   -0.328763   -1.491609
    156          1           0       22.365435   -0.818407    3.643619
    157          1           0       21.169362   -1.761526    2.750583
    158          1           0       20.959037    0.027478    3.181008
 ---------------------------------------------------------------------

 SCF Done:  E(RCAM-B3LYP) =  -4069.81417655     A.U. after   18 cycles

 Excitation energies and oscillator strengths:

 Excited State   1:      Singlet-A      1.7179 eV  721.73 nm  f=0.3708  <S**2>=0.000
     310 -> 315       -0.18176
     312 -> 314        0.68360
     310 <- 315       -0.10500
 This state for optimization and/or second-order correction.
 Total Energy, E(TD-HF/TD-DFT) =  -4069.75104603
 Copying the excited state density for this state as the 1-particle RhoCI density.

 Excited State   2:      Singlet-A      1.7655 eV  702.26 nm  f=0.3964  <S**2>=0.000
     309 -> 316       -0.17238
     311 -> 313        0.68748
     309 <- 316       -0.10344

 Excited State   3:      Singlet-A      2.2043 eV  562.48 nm  f=0.0885  <S**2>=0.000
     310 -> 314        0.62966
     312 -> 315        0.30514

 Excited State   4:      Singlet-A      2.2943 eV  540.41 nm  f=0.1178  <S**2>=0.000
     309 -> 313        0.63734
     311 -> 316        0.29069

 Excited State   5:      Singlet-A      3.1509 eV  393.49 nm  f=0.0000  <S**2>=0.000
     312 -> 313        0.70711

 The electronic state is 1-A.
 Alpha  occ. eigenvalues --  -46.89652 -46.89111 -19.24933 -19.24348 -19.20544
 Alpha  occ. eigenvalues --  -19.20486 -19.19030 -19.18827 -19.18682 -19.18517
 Alpha  occ. eigenvalues --  -14.42648 -14.42336 -14.42241 -14.42212 -14.40217
 Alpha  occ. eigenvalues --  -14.39649 -14.39190 -14.39086 -10.39737 -10.39495
 Alpha  occ. eigenvalues --  -10.35124 -10.35111 -10.34851 -10.34144 -10.32352
 Alpha  occ. eigenvalues --  -10.31629 -10.31584 -10.31303 -10.31212 -10.31188
 Alpha  occ. eigenvalues --  -10.31168 -10.31109 -10.31068 -10.30685 -10.30639
 Alpha  occ. eigenvalues --  -10.30552 -10.30198 -10.30084 -10.29533 -10.29359
 Alpha  occ. eigenvalues --  -10.29224 -10.28964 -10.28683 -10.28575 -10.28547
 Alpha  occ. eigenvalues --  -10.28434 -10.28418 -10.28347 -10.28339 -10.28238
 Alpha  occ. eigenvalues --  -10.28222 -10.28213 -10.28178 -10.28166 -10.28158
 Alpha  occ. eigenvalues --  -10.28080 -10.27893 -10.27778 -10.27737 -10.27733
 Alpha  occ. eigenvalues --  -10.27678 -10.27516 -10.27403 -10.27305 -10.27168
 Alpha  occ. eigenvalues --  -10.27143 -10.27133 -10.26973 -10.26912 -10.26911
 Alpha  occ. eigenvalues --  -10.26788 -10.26735 -10.26528 -10.26489 -10.26393
 Alpha  occ. eigenvalues --  -10.26233 -10.26222 -10.26068 -10.26061 -10.26050
 Alpha  occ. eigenvalues --  -10.26027 -10.25967 -10.25759 -10.25619 -10.25392
 Alpha  occ. eigenvalues --  -10.23974  -3.18073  -3.17636  -1.92979  -1.92531
 Alpha  occ. eigenvalues --   -1.92520  -1.92360  -1.92107  -1.91929  -1.16608
 Alpha  occ. eigenvalues --   -1.14823  -1.10367  -1.10327  -1.10109  -1.09378
 Alpha  occ. eigenvalues --   -1.08818  -1.06906  -1.05077  -1.04585  -1.03781
 Alpha  occ. eigenvalues --   -1.03723  -1.03712  -1.03190  -1.02815  -1.02348
 Alpha  occ. eigenvalues --   -0.93256  -0.92470  -0.89661  -0.89404  -0.89227
 Alpha  occ. eigenvalues --   -0.89225  -0.88830  -0.88084  -0.87991  -0.87674
 Alpha  occ. eigenvalues --   -0.86885  -0.86450  -0.86190  -0.85939  -0.85204
 Alpha  occ. eigenvalues --   -0.84838  -0.84461  -0.84040  -0.83154  -0.82727
 Alpha  occ. eigenvalues --   -0.82578  -0.82391  -0.81291  -0.80849  -0.80843
 Alpha  occ. eigenvalues --   -0.80158  -0.78326  -0.77751  -0.77507  -0.77343
 Alpha  occ. eigenvalues --   -0.77103  -0.76852  -0.76222  -0.76196  -0.75754
 Alpha  occ. eigenvalues --   -0.75518  -0.73238  -0.72650  -0.72145  -0.72037
 Alpha  occ. eigenvalues --   -0.69431  -0.69369  -0.69327  -0.69064  -0.68095
 Alpha  occ. eigenvalues --   -0.67779  -0.66834  -0.66756  -0.66419  -0.66090
 Alpha  occ. eigenvalues --   -0.65571  -0.64971  -0.64908  -0.64606  -0.64514
 Alpha  occ. eigenvalues --   -0.64005  -0.62687  -0.62549  -0.60282  -0.60232
 Alpha  occ. eigenvalues --   -0.59889  -0.59384  -0.59304  -0.58948  -0.58845
 Alpha  occ. eigenvalues --   -0.58450  -0.58292  -0.57565  -0.57533  -0.57256
 Alpha  occ. eigenvalues --   -0.56496  -0.56330  -0.55893  -0.55830  -0.55468
 Alpha  occ. eigenvalues --   -0.55355  -0.55105  -0.54921  -0.54615  -0.54379
 Alpha  occ. eigenvalues --   -0.54018  -0.53896  -0.53564  -0.53311  -0.53141
 Alpha  occ. eigenvalues --   -0.52912  -0.52720  -0.52637  -0.52631  -0.52182
 Alpha  occ. eigenvalues --   -0.51988  -0.51897  -0.51716  -0.51648  -0.51622
 Alpha  occ. eigenvalues --   -0.51116  -0.50855  -0.50834  -0.50728  -0.50478
 Alpha  occ. eigenvalues --   -0.50359  -0.50283  -0.50278  -0.49868  -0.49639
 Alpha  occ. eigenvalues --   -0.49558  -0.49309  -0.49277  -0.49039  -0.48851
 Alpha  occ. eigenvalues --   -0.48828  -0.48570  -0.48303  -0.48288  -0.48177
 Alpha  occ. eigenvalues --   -0.48094  -0.47745  -0.47532  -0.47371  -0.47258
 Alpha  occ. eigenvalues --   -0.47147  -0.47088  -0.46922  -0.46508  -0.46458
 Alpha  occ. eigenvalues --   -0.46393  -0.46278  -0.46215  -0.46139  -0.45800
 Alpha  occ. eigenvalues --   -0.45736  -0.45392  -0.45319  -0.45126  -0.45124
 Alpha  occ. eigenvalues --   -0.44997  -0.44982  -0.44697  -0.44665  -0.44652
 Alpha  occ. eigenvalues --   -0.44158  -0.43933  -0.43905  -0.43686  -0.43426
 Alpha  occ. eigenvalues --   -0.43309  -0.43229  -0.43226  -0.43115  -0.42949
 Alpha  occ. eigenvalues --   -0.42755  -0.42706  -0.42485  -0.42373  -0.42286
 Alpha  occ. eigenvalues --   -0.42137  -0.42025  -0.41969  -0.41854  -0.41716
 Alpha  occ. eigenvalues --   -0.41690  -0.41532  -0.41229  -0.40602  -0.40464
 Alpha  occ. eigenvalues --   -0.40254  -0.39999  -0.39908  -0.39707  -0.39110
 Alpha  occ. eigenvalues --   -0.38810  -0.38516  -0.38038  -0.37982  -0.37666
 Alpha  occ. eigenvalues --   -0.37439  -0.36901  -0.36896  -0.36565  -0.36510
 Alpha  occ. eigenvalues --   -0.36082  -0.35661  -0.35238  -0.35160  -0.34805
 Alpha  occ. eigenvalues --   -0.34238  -0.33715  -0.33326  -0.31756  -0.31279
 Alpha  occ. eigenvalues --   -0.31211  -0.31028  -0.30819  -0.30646  -0.30115
 Alpha  occ. eigenvalues --   -0.29964  -0.29939  -0.29662  -0.24659  -0.24102
 Alpha  occ. eigenvalues --   -0.21654  -0.21221
 Alpha virt. eigenvalues --   -0.09023  -0.08672  -0.02253  -0.01931   0.00626
 Alpha virt. eigenvalues --    0.00927   0.01710   0.02040   0.02522   0.02738
 Alpha virt. eigenvalues --    0.04079   0.04426   0.04944   0.05409   0.05833

 Mulliken charges:
               1
     1  Mg  11.999993
     2  C    6.000025
     3  C    6.000015
     4  C    5.999952
     5  C    5.999968
     6  N    7.000014
     7  C    5.999965
     8  C    6.000011
     9  C    5.999993
    10  C    6.000040
    11  C    5.999992
    12  C    6.000005
    13  C    5.999979
    14  H    1.000036
    15  N    7.000001
    16  C    6.000115
    17  C    6.000020
    18  C    6.000057
    19  C    6.000098
    20  C    5.999966
    21  C    6.000015
    22  O    8.000052
    23  C    5.999984
    24  N    6.999964
    25  C    6.000073
    26  C    5.999986
    27  C    6.000006
    28  C    5.999987
    29  C    6.000003
    30  C    6.000019
    31  C    6.000015
    32  N    6.999979
    33  C    5.999915
    34  C    5.999906
    35  C    6.000013
    36  C    5.999908
    37  C    6.000017
    38  C    5.999958
    39  O    7.999935
    40  C    6.000010
    41  C    6.000000
    42  O    7.999979
    43  O    8.000002
    44  C    5.999994
    45  H    1.000069
    46  H    0.999982
    47  H    0.999953
    48  H    1.000020
    49  H    1.000022
    50  H    1.000054
    51  H    1.000053
    52  H    0.999980
    53  H    0.999973
    54  H    1.000006
    55  H    1.000021
    56  H    1.000007
    57  H    1.000047
    58  H    1.000080
    59  H    1.000056
    60  H    1.000021
    61  H    1.000016
    62  H    1.000016
    63  H    0.999989
    64  H    0.999976
    65  H    0.999980
    66  H    0.999997
    67  H    0.999996
    68  H    1.000007
    69  H    0.999955
    70  H    0.999957
    71  H    0.999994
    72  H    0.999998
    73  H    0.999937
    74  H    0.999932
    75  H    0.999931
    76  H    0.999998
    77  H    1.000009
    78  H    0.999982
    79  H    1.000020
    80  Mg  11.997807
    81  C    6.028096
    82  C    5.982441
    83  C    5.963052
    84  C    6.014079
    85  N    7.006525
    86  C    5.963299
    87  C    6.012147
    88  C    5.986922
    89  C    6.034898
    90  C    5.995510
    91  C    6.002620
    92  C    6.004924
    93  H    0.991792
    94  N    6.990276
    95  C    6.047121
    96  C    6.018728
    97  C    6.013248
    98  C    6.046696
    99  C    5.996073
   100  C    6.012674
   101  O    8.019207
   102  C    5.994927
   103  N    6.997299
   104  C    6.046554
   105  C    5.981078
   106  C    6.013249
   107  C    5.963987
   108  C    5.996962
   109  C    6.005228
   110  C    5.999904
   111  N    7.004081
   112  C    5.959109
   113  C    5.969179
   114  C    5.994572
   115  C    5.966385
   116  C    6.003991
   117  C    5.985078
   118  O    7.972049
   119  C    5.997392
   120  C    5.992029
   121  O    7.991077
   122  O    8.006517
   123  C    6.002630
   124  H    1.012861
   125  H    1.005040
   126  H    0.987799
   127  H    1.000113
   128  H    1.005888
   129  H    1.014842
   130  H    0.999904
   131  H    1.003491
   132  H    1.004154
   133  H    0.990868
   134  H    0.992127
   135  H    1.007233
   136  H    1.016706
   137  H    1.016298
   138  H    1.019061
   139  H    1.009267
   140  H    1.010473
   141  H    1.013115
   142  H    1.002773
   143  H    0.998571
   144  H    1.009916
   145  H    0.995002
   146  H    1.005009
   147  H    1.000229
   148  H    0.986377
   149  H    1.004107
   150  H    0.994046
   151  H    0.999443
   152  H    0.979872
   153  H    0.980613
   154  H    0.982407
   155  H    0.993436
   156  H    0.994962
   157  H    0.993283
   158  H    0.999303
 Sum of Mulliken charges = 624.00000

 Dipole moment (field-independent basis, Debye):
    X=              8.0243    Y=             -7.0302    Z=             -0.1969  Tot=             10.6701
 Quadrupole moment (field-independent basis, Debye-Ang):
   XX=            446.3712   YY=             -1.7167   ZZ=             -0.4629
   XY=           -198.4216   XZ=             -6.4326   YZ=              0.8495

 Normal termination of Gaussian 16 at Thu Sep 23 12:31:32 2021.
