 Gaussian 16, Revision A.03,
 Gaussian 16:  ES64L-G16RevA.03 25-Dec-2016

 -----------------------------------
 #p cam-b3lyp/Def2SVP td=(nstates=5)
 -----------------------------------

 --------------------------------
 TDDFT excited states in gaussian
 --------------------------------
 Symbolic Z-matrix:
 Charge =  0 Multiplicity = 1

                         Standard orientation:
 ---------------------------------------------------------------------
 Center     Atomic      Atomic             Coordinates (Angstroms)
 Number     Number       Type             X           Y           Z
 ---------------------------------------------------------------------
      1         12           0       27.249517    0.614398   -0.002911
      2          6           0       23.833710    1.172460   -0.838354
      3          6           0       26.595443    1.588065    3.215304
      4          6           0       30.228954   -0.914533    1.013150
      5          6           0       27.695734   -0.914406   -3.135341
      6          7           0       25.234889    1.073136    1.084614
      7          6           0       24.079050    1.467104    0.525533
      8          6           0       23.310030    2.325392    1.513214
      9          6           0       24.162643    2.414833    2.868938
     10          6           0       25.501449    1.747326    2.268438
     11          6           0       24.326669    3.901664    3.256504
     12          6           0       21.917361    1.763438    1.749364
     13          6           0       21.785950    0.222841    1.804887
     14          1           0       21.535066   -0.409364    3.201187
     15          7           0       28.341900    0.438435    1.875808
     16          6           0       27.836024    0.916415    3.065058
     17          6           0       28.891528    0.777583    4.018794
     18          6           0       29.955556   -0.034571    3.469353
     19          6           0       29.584881   -0.182994    2.039196
     20          6           0       28.744851    1.198533    5.462745
     21          6           0       31.105062   -0.709860    4.219030
     22          8           0       31.178528   -0.619276    5.429364
     23          6           0       32.125005   -1.479698    3.572153
     24          7           0       28.704186   -0.807385   -0.885766
     25          6           0       29.859997   -1.127288   -0.322770
     26          6           0       30.721527   -2.033396   -1.187211
     27          6           0       29.703309   -2.312229   -2.375105
     28          6           0       28.669148   -1.261939   -2.185119
     29          6           0       32.093837   -1.355057   -1.673920
     30          6           0       29.188578   -3.824171   -2.327202
     31          6           0       29.587241   -4.800122   -3.397763
     32          7           0       26.170592    0.422231   -1.687667
     33          6           0       26.527859   -0.116731   -2.940414
     34          6           0       25.453595    0.103214   -3.926629
     35          6           0       24.437441    0.616259   -3.120667
     36          6           0       24.826115    0.695532   -1.737758
     37          6           0       25.475363   -0.072031   -5.484440
     38          6           0       23.045996    1.074618   -3.185214
     39          8           0       22.233596    1.194620   -4.117153
     40          6           0       22.596943    1.467885   -1.739219
     41          6           0       21.507293    0.472515   -1.535923
     42          8           0       21.636970   -0.723305   -1.595848
     43          8           0       20.339483    1.095332   -1.405389
     44          6           0       19.103883    0.291549   -1.103469
     45          1           0       26.483631    2.164631    4.135753
     46          1           0       31.202726   -1.382606    1.170459
     47          1           0       27.896463   -1.510719   -4.028445
     48          1           0       23.266197    3.240867    0.923180
     49          1           0       23.721344    1.834924    3.679968
     50          1           0       23.882790    4.045773    4.241341
     51          1           0       23.818612    4.601437    2.592454
     52          1           0       25.400689    4.074170    3.320552
     53          1           0       21.247331    2.108797    0.961987
     54          1           0       21.530218    2.094005    2.713622
     55          1           0       22.663275   -0.370658    1.548043
     56          1           0       20.958910   -0.001541    1.131174
     57          1           0       27.743292    1.572561    5.676606
     58          1           0       29.553407    1.895565    5.685593
     59          1           0       28.998706    0.335611    6.077398
     60          1           0       31.782442   -2.388938    3.077687
     61          1           0       32.867386   -1.784423    4.309547
     62          1           0       32.501757   -0.789130    2.816874
     63          1           0       30.919104   -3.010541   -0.747199
     64          1           0       30.373212   -2.282522   -3.234623
     65          1           0       32.188665   -0.365344   -1.226225
     66          1           0       32.021311   -1.223915   -2.753737
     67          1           0       33.001203   -1.937948   -1.508370
     68          1           0       28.105855   -3.876128   -2.442291
     69          1           0       29.452560   -4.296721   -1.382093
     70          1           0       28.813910   -4.975455   -4.145681
     71          1           0       29.729139   -5.689869   -2.783432
     72          1           0       30.588623   -4.653166   -3.802748
     73          1           0       25.418120   -1.139236   -5.696927
     74          1           0       26.378931    0.417612   -5.848011
     75          1           0       24.565782    0.369346   -5.891405
     76          1           0       22.298490    2.515466   -1.793546
     77          1           0       18.635791   -0.116921   -1.999383
     78          1           0       18.357550    0.895956   -0.586325
     79          1           0       19.445531   -0.497336   -0.433391
     80         12           0      -26.099913   -0.826808    0.078538
     81          6           0      -27.146797    2.624061   -0.243821
     82          6           0      -23.982005   -0.183284   -2.274699
     83          6           0      -25.486609   -4.054951    0.334448
     84          6           0      -29.046818   -1.526700    2.087405
     85          7           0      -25.552139    1.102702   -1.041605
     86          6           0      -26.073474    2.379780   -1.052998
     87          6           0      -25.367608    3.216999   -2.057832
     88          6           0      -24.719840    2.175761   -3.006433
     89          6           0      -24.778554    0.930218   -2.090917
     90          6           0      -25.501690    1.932947   -4.316031
     91          6           0      -24.244066    4.041509   -1.358715
     92          6           0      -24.116716    5.555991   -1.782664
     93          1           0      -23.366643    6.580249   -0.841223
     94          7           0      -24.786976   -1.978039   -0.881075
     95          6           0      -23.908852   -1.539900   -1.743410
     96          6           0      -23.031829   -2.640749   -2.095039
     97          6           0      -23.423407   -3.690026   -1.230534
     98          6           0      -24.625873   -3.259670   -0.570137
     99          6           0      -21.861051   -2.438436   -3.073995
    100          6           0      -22.748477   -5.025654   -1.087105
    101          8           0      -23.193418   -5.846974   -0.342239
    102          6           0      -21.462989   -5.273971   -1.806648
    103          7           0      -27.353948   -2.617388    0.888438
    104          6           0      -26.695180   -3.772528    0.954093
    105          6           0      -27.347087   -4.735107    1.874179
    106          6           0      -28.625659   -3.932611    2.273754
    107          6           0      -28.371136   -2.556593    1.717413
    108          6           0      -27.588522   -6.199010    1.357511
    109          6           0      -28.857889   -3.971621    3.834665
    110          6           0      -29.993373   -4.854957    4.422740
    111          7           0      -27.714313    0.195638    0.782462
    112          6           0      -28.788854   -0.144474    1.634363
    113          6           0      -29.604020    1.058750    1.900470
    114          6           0      -28.984513    2.096818    1.217491
    115          6           0      -27.904502    1.570191    0.529494
    116          6           0      -30.955394    1.071954    2.655254
    117          6           0      -29.110171    3.566600    0.954966
    118          8           0      -29.865112    4.425762    1.344926
    119          6           0      -28.007248    3.940754   -0.156928
    120          6           0      -27.329641    5.144511    0.158077
    121          8           0      -26.269252    5.154008    0.798801
    122          8           0      -27.933891    6.329577   -0.249967
    123          6           0      -27.173504    7.610726   -0.123747
    124          1           0      -23.195407   -0.090831   -3.025649
    125          1           0      -25.246142   -5.111308    0.470644
    126          1           0      -29.930957   -1.718359    2.697341
    127          1           0      -26.092639    3.773080   -2.652718
    128          1           0      -23.702108    2.384564   -3.335591
    129          1           0      -24.885333    2.181646   -5.180460
    130          1           0      -26.379307    2.577941   -4.284279
    131          1           0      -25.881756    0.918229   -4.437638
    132          1           0      -23.319486    3.530829   -1.628519
    133          1           0      -24.409572    3.918810   -0.288555
    134          1           0      -25.120822    5.923233   -1.993069
    135          1           0      -23.568152    5.483316   -2.722512
    136          1           0      -20.927779   -2.571333   -2.525243
    137          1           0      -21.855577   -1.498101   -3.624144
    138          1           0      -21.818347   -3.265035   -3.782650
    139          1           0      -20.668090   -4.602033   -1.484081
    140          1           0      -21.453956   -5.077351   -2.878673
    141          1           0      -21.112832   -6.276508   -1.559594
    142          1           0      -26.715359   -4.822533    2.758144
    143          1           0      -29.476613   -4.305439    1.703274
    144          1           0      -27.097450   -6.263204    0.387074
    145          1           0      -28.616532   -6.562859    1.345115
    146          1           0      -27.112338   -6.889907    2.053425
    147          1           0      -29.091582   -2.964510    4.181016
    148          1           0      -27.859332   -4.086409    4.256319
    149          1           0      -29.618439   -5.419189    5.276498
    150          1           0      -30.372987   -5.521346    3.648008
    151          1           0      -30.811891   -4.234629    4.789839
    152          1           0      -30.915783    0.294085    3.417266
    153          1           0      -31.747499    0.763720    1.972464
    154          1           0      -31.164357    2.042485    3.105856
    155          1           0      -28.522170    4.059194   -1.109852
    156          1           0      -26.278484    7.598888   -0.747362
    157          1           0      -27.075873    7.917232    0.917014
    158          1           0      -27.744295    8.361628   -0.669902
 ---------------------------------------------------------------------

 SCF Done:  E(RCAM-B3LYP) =  -4069.74189938     A.U. after   19 cycles

 Excitation energies and oscillator strengths:

 Excited State   1:      Singlet-A      1.6890 eV  734.07 nm  f=0.3531  <S**2>=0.000
     309 -> 315        0.20077
     312 -> 314        0.68047
     309 <- 315        0.11492
 This state for optimization and/or second-order correction.
 Total Energy, E(TD-HF/TD-DFT) =  -4069.67983011
 Copying the excited state density for this state as the 1-particle RhoCI density.

 Excited State   2:      Singlet-A      1.7382 eV  713.30 nm  f=0.3805  <S**2>=0.000
     310 -> 316       -0.16387
     311 -> 313        0.68893
     310 <- 316       -0.10278

 Excited State   3:      Singlet-A      2.1720 eV  570.83 nm  f=0.2263  <S**2>=0.000
     310 -> 313        0.67444
     311 -> 316        0.20201

 Excited State   4:      Singlet-A      2.1999 eV  563.59 nm  f=0.0722  <S**2>=0.000
     309 -> 314        0.61852
     312 -> 315       -0.32999

 Excited State   5:      Singlet-A      3.1603 eV  392.31 nm  f=0.0000  <S**2>=0.000
     312 -> 313        0.70710

 The electronic state is 1-A.
 Alpha  occ. eigenvalues --  -46.90237 -46.89447 -19.25106 -19.23977 -19.19647
 Alpha  occ. eigenvalues --  -19.19264 -19.18884 -19.18880 -19.18536 -19.18092
 Alpha  occ. eigenvalues --  -14.42456 -14.41999 -14.41766 -14.40177 -14.40164
 Alpha  occ. eigenvalues --  -14.39829 -14.39778 -14.39564 -10.38755 -10.38524
 Alpha  occ. eigenvalues --  -10.35962 -10.35136 -10.34995 -10.34345 -10.32489
 Alpha  occ. eigenvalues --  -10.32033 -10.31625 -10.31415 -10.31145 -10.31028
 Alpha  occ. eigenvalues --  -10.31004 -10.30953 -10.30762 -10.30730 -10.30603
 Alpha  occ. eigenvalues --  -10.30044 -10.30030 -10.29980 -10.29875 -10.29844
 Alpha  occ. eigenvalues --  -10.29378 -10.29321 -10.28951 -10.28880 -10.28844
 Alpha  occ. eigenvalues --  -10.28753 -10.28717 -10.28429 -10.28410 -10.28251
 Alpha  occ. eigenvalues --  -10.28193 -10.28178 -10.28123 -10.28112 -10.28089
 Alpha  occ. eigenvalues --  -10.28009 -10.27913 -10.27876 -10.27694 -10.27465
 Alpha  occ. eigenvalues --  -10.27270 -10.27168 -10.27146 -10.27038 -10.27015
 Alpha  occ. eigenvalues --  -10.26936 -10.26820 -10.26810 -10.26620 -10.26529
 Alpha  occ. eigenvalues --  -10.26438 -10.26360 -10.26297 -10.26287 -10.26216
 Alpha  occ. eigenvalues --  -10.26054 -10.25927 -10.25811 -10.25734 -10.25714
 Alpha  occ. eigenvalues --  -10.25660 -10.25542 -10.25538 -10.25447 -10.25107
 Alpha  occ. eigenvalues --  -10.25073  -3.18543  -3.17970  -1.93407  -1.93031
 Alpha  occ. eigenvalues --   -1.92857  -1.92821  -1.92433  -1.92269  -1.17091
 Alpha  occ. eigenvalues --   -1.14191  -1.12173  -1.10855  -1.10238  -1.08844
 Alpha  occ. eigenvalues --   -1.07731  -1.06415  -1.05662  -1.04962  -1.04889
 Alpha  occ. eigenvalues --   -1.04625  -1.03703  -1.02422  -1.01626  -1.00991
 Alpha  occ. eigenvalues --   -0.91971  -0.91262  -0.89264  -0.88976  -0.88875
 Alpha  occ. eigenvalues --   -0.88844  -0.88277  -0.87997  -0.87803  -0.87643
 Alpha  occ. eigenvalues --   -0.87112  -0.86144  -0.85381  -0.85199  -0.84711
 Alpha  occ. eigenvalues --   -0.84349  -0.84068  -0.83062  -0.82877  -0.82644
 Alpha  occ. eigenvalues --   -0.82145  -0.82021  -0.81120  -0.80961  -0.80409
 Alpha  occ. eigenvalues --   -0.80279  -0.78774  -0.77925  -0.77373  -0.77130
 Alpha  occ. eigenvalues --   -0.76705  -0.76413  -0.76325  -0.76227  -0.75411
 Alpha  occ. eigenvalues --   -0.74989  -0.72880  -0.72780  -0.71746  -0.71107
 Alpha  occ. eigenvalues --   -0.69221  -0.68925  -0.68788  -0.68550  -0.68145
 Alpha  occ. eigenvalues --   -0.67941  -0.67344  -0.66705  -0.66115  -0.65628
 Alpha  occ. eigenvalues --   -0.65607  -0.65218  -0.64979  -0.64780  -0.64228
 Alpha  occ. eigenvalues --   -0.64055  -0.62445  -0.61443  -0.61048  -0.60309
 Alpha  occ. eigenvalues --   -0.60110  -0.59296  -0.59067  -0.59003  -0.58717
 Alpha  occ. eigenvalues --   -0.58057  -0.57826  -0.57574  -0.57286  -0.57185
 Alpha  occ. eigenvalues --   -0.56555  -0.56342  -0.55865  -0.55749  -0.55512
 Alpha  occ. eigenvalues --   -0.55060  -0.54932  -0.54534  -0.54014  -0.53888
 Alpha  occ. eigenvalues --   -0.53878  -0.53555  -0.53396  -0.53080  -0.53039
 Alpha  occ. eigenvalues --   -0.52643  -0.52639  -0.52515  -0.52435  -0.52043
 Alpha  occ. eigenvalues --   -0.51988  -0.51856  -0.51775  -0.51551  -0.51319
 Alpha  occ. eigenvalues --   -0.50696  -0.50553  -0.50244  -0.50181  -0.50091
 Alpha  occ. eigenvalues --   -0.49860  -0.49827  -0.49713  -0.49708  -0.49563
 Alpha  occ. eigenvalues --   -0.49507  -0.49279  -0.49238  -0.48971  -0.48839
 Alpha  occ. eigenvalues --   -0.48745  -0.48530  -0.48312  -0.48282  -0.47944
 Alpha  occ. eigenvalues --   -0.47819  -0.47781  -0.47560  -0.47445  -0.47324
 Alpha  occ. eigenvalues --   -0.46974  -0.46923  -0.46618  -0.46435  -0.46313
 Alpha  occ. eigenvalues --   -0.46237  -0.45826  -0.45789  -0.45622  -0.45535
 Alpha  occ. eigenvalues --   -0.45407  -0.45330  -0.45203  -0.45120  -0.44924
 Alpha  occ. eigenvalues --   -0.44916  -0.44784  -0.44555  -0.44469  -0.44377
 Alpha  occ. eigenvalues --   -0.44022  -0.43969  -0.43698  -0.43595  -0.43443
 Alpha  occ. eigenvalues --   -0.43337  -0.43235  -0.42996  -0.42910  -0.42753
 Alpha  occ. eigenvalues --   -0.42669  -0.42410  -0.42221  -0.42018  -0.41880
 Alpha  occ. eigenvalues --   -0.41514  -0.41426  -0.41308  -0.41304  -0.41046
 Alpha  occ. eigenvalues --   -0.40881  -0.40637  -0.40370  -0.40199  -0.40140
 Alpha  occ. eigenvalues --   -0.40045  -0.39898  -0.39857  -0.39823  -0.38663
 Alpha  occ. eigenvalues --   -0.38330  -0.38012  -0.37667  -0.37440  -0.37133
 Alpha  occ. eigenvalues --   -0.37042  -0.36769  -0.36525  -0.36404  -0.36065
 Alpha  occ. eigenvalues --   -0.35733  -0.35732  -0.34274  -0.34125  -0.33598
 Alpha  occ. eigenvalues --   -0.33369  -0.33058  -0.32611  -0.31849  -0.31531
 Alpha  occ. eigenvalues --   -0.31403  -0.31102  -0.30766  -0.30747  -0.30697
 Alpha  occ. eigenvalues --   -0.30296  -0.29684  -0.28944  -0.24303  -0.23538
 Alpha  occ. eigenvalues --   -0.21626  -0.21338
 Alpha virt. eigenvalues --   -0.09074  -0.08788  -0.02577  -0.00356   0.00244
 Alpha virt. eigenvalues --    0.00934   0.01010   0.02316   0.02408   0.02657
 Alpha virt. eigenvalues --    0.04529   0.04764   0.05151   0.05166   0.06186

 Mulliken charges:
               1
     1  Mg   0.809051
     2  C   -0.024247
     3  C   -0.063365
     4  C   -0.069217
     5  C   -0.046397
     6  N   -0.259848
     7  C   -0.095511
     8  C    0.047103
     9  C   -0.094985
    10  C    0.038574
    11  C    0.067254
    12  C    0.028236
    13  C   -0.086680
    14  H   -0.003190
    15  N   -0.383447
    16  C    0.151043
    17  C   -0.160422
    18  C   -0.041623
    19  C    0.173069
    20  C    0.133624
    21  C   -0.012987
    22  O   -0.204443
    23  C    0.070709
    24  N   -0.255746
    25  C    0.022686
    26  C   -0.100946
    27  C   -0.016298
    28  C    0.028497
    29  C    0.062465
    30  C    0.013452
    31  C    0.006255
    32  N   -0.412706
    33  C    0.143964
    34  C   -0.181422
    35  C    0.017254
    36  C    0.150108
    37  C    0.132502
    38  C    0.023755
    39  O   -0.196867
    40  C    0.022537
    41  C    0.168900
    42  O   -0.207065
    43  O   -0.315698
    44  C    0.170859
    45  H   -0.008621
    46  H   -0.041470
    47  H   -0.025249
    48  H    0.008611
    49  H    0.035949
    50  H    0.010338
    51  H    0.022940
    52  H    0.020756
    53  H    0.017502
    54  H    0.016114
    55  H    0.065851
    56  H    0.027668
    57  H    0.007259
    58  H    0.023946
    59  H    0.038916
    60  H    0.044552
    61  H    0.029527
    62  H    0.034968
    63  H    0.015080
    64  H   -0.005463
    65  H    0.022379
    66  H    0.010550
    67  H    0.024207
    68  H    0.012518
    69  H    0.009693
    70  H    0.031443
    71  H    0.006070
    72  H    0.005318
    73  H    0.031924
    74  H    0.035001
    75  H    0.039133
    76  H    0.037211
    77  H    0.053506
    78  H    0.040936
    79  H    0.052148
    80  Mg   0.836521
    81  C   -0.017262
    82  C   -0.043213
    83  C   -0.045039
    84  C   -0.101702
    85  N   -0.239116
    86  C   -0.040142
    87  C   -0.024257
    88  C   -0.084542
    89  C    0.050332
    90  C    0.081901
    91  C    0.071395
    92  C   -0.043339
    93  H    0.034236
    94  N   -0.366953
    95  C    0.065571
    96  C   -0.128876
    97  C   -0.029966
    98  C    0.104902
    99  C    0.110682
   100  C    0.002112
   101  O   -0.168071
   102  C    0.040330
   103  N   -0.199805
   104  C   -0.011547
   105  C   -0.045229
   106  C    0.011787
   107  C    0.027161
   108  C    0.070634
   109  C    0.014214
   110  C    0.026935
   111  N   -0.397697
   112  C    0.109380
   113  C   -0.209682
   114  C   -0.008130
   115  C    0.122811
   116  C    0.119313
   117  C    0.086581
   118  O   -0.138071
   119  C   -0.010408
   120  C    0.199149
   121  O   -0.246408
   122  O   -0.357443
   123  C    0.195817
   124  H   -0.050852
   125  H   -0.004295
   126  H   -0.024479
   127  H   -0.003110
   128  H    0.009584
   129  H    0.019450
   130  H    0.006406
   131  H    0.023220
   132  H    0.001094
   133  H    0.050116
   134  H    0.026203
   135  H    0.014078
   136  H    0.026312
   137  H    0.029684
   138  H    0.019830
   139  H    0.028394
   140  H    0.022318
   141  H    0.029403
   142  H    0.020280
   143  H    0.004793
   144  H    0.029001
   145  H    0.015509
   146  H    0.009554
   147  H   -0.002224
   148  H   -0.009399
   149  H    0.017901
   150  H    0.014471
   151  H    0.016687
   152  H    0.008487
   153  H    0.029957
   154  H    0.038354
   155  H    0.050221
   156  H    0.028689
   157  H    0.055455
   158  H    0.024046
 Sum of Mulliken charges =  -0.00000

 Dipole moment (field-independent basis, Debye):
    X=              4.6400    Y=             -0.7680    Z=             -4.6587  Tot=              6.6199
 Quadrupole moment (field-independent basis, Debye-Ang):
   XX=           -550.5754   YY=           -509.5529   ZZ=           -522.6307
   XY=             73.3023   XZ=             21.0750   YZ=             -4.0503

 Normal termination of Gaussian 16 at Tue Sep 14 18:53:03 2021.
