 Gaussian 16, Revision A.03,
 Gaussian 16:  ES64L-G16RevA.03 25-Dec-2016

 ----------------------------------------------------------
 #p cam-b3lyp/Def2SVP td=(nstates=5) density=(transition=1)
 ----------------------------------------------------------

 --------------------------------
 TDDFT excited states in gaussian
 --------------------------------
 Symbolic Z-matrix:
 Charge =  0 Multiplicity = 1

                         Standard orientation:
 ---------------------------------------------------------------------
 Center     Atomic      Atomic             Coordinates (Angstroms)
 Number     Number       Type             X           Y           Z
 ---------------------------------------------------------------------
      1         12           0       -5.182339   -0.182011    0.890151
      2          6           0       -4.756337    3.108562   -0.211118
      3          6           0       -2.627243    0.359081    3.145242
      4          6           0       -5.067706   -3.536446    1.511190
      5          6           0       -7.240666   -0.748632   -1.836607
      6          7           0       -3.962631    1.556310    1.416821
      7          6           0       -4.117857    2.816209    0.990354
      8          6           0       -3.368996    3.870711    1.818377
      9          6           0       -2.526962    2.960077    2.792098
     10          6           0       -3.131397    1.471314    2.521225
     11          6           0       -0.990686    2.997613    2.643307
     12          6           0       -4.269722    4.882443    2.527190
     13          6           0       -3.578477    6.232613    2.790439
     14          1           0       -2.116003    6.423393    2.364210
     15          7           0       -4.107857   -1.416933    2.216260
     16          6           0       -3.120664   -0.989574    3.133965
     17          6           0       -2.684523   -2.139176    3.900920
     18          6           0       -3.346301   -3.316906    3.388749
     19          6           0       -4.242306   -2.794065    2.358480
     20          6           0       -1.761622   -1.980578    5.077769
     21          6           0       -3.310023   -4.827973    3.896401
     22          8           0       -4.025385   -5.698929    3.464212
     23          6           0       -2.294453   -5.149641    4.971204
     24          7           0       -5.947430   -1.889574   -0.077903
     25          6           0       -5.810029   -3.169213    0.374575
     26          6           0       -6.617169   -4.200156   -0.497420
     27          6           0       -7.325880   -3.268206   -1.478934
     28          6           0       -6.799013   -1.894755   -1.107909
     29          6           0       -5.915384   -5.457458   -1.152322
     30          6           0       -8.862711   -3.366346   -1.334609
     31          6           0       -9.560707   -2.558923   -0.217794
     32          7           0       -6.031655    0.934690   -0.665316
     33          6           0       -6.851750    0.578455   -1.704407
     34          6           0       -7.164281    1.700847   -2.524097
     35          6           0       -6.332231    2.774944   -1.970734
     36          6           0       -5.692369    2.248624   -0.916956
     37          6           0       -8.046545    1.843963   -3.684258
     38          6           0       -5.850553    4.135288   -2.166771
     39          8           0       -6.218844    5.000410   -2.968482
     40          6           0       -4.814072    4.438432   -1.044979
     41          6           0       -3.521733    4.826873   -1.600495
     42          8           0       -2.680921    4.068504   -2.071827
     43          8           0       -3.478834    6.192742   -1.726501
     44          6           0       -2.486666    6.813641   -2.625481
     45          1           0       -1.797492    0.614797    3.807808
     46          1           0       -5.178015   -4.578234    1.819253
     47          1           0       -7.964862   -0.900546   -2.639627
     48          1           0       -2.612415    4.383517    1.224909
     49          1           0       -2.790699    3.088893    3.841228
     50          1           0       -0.702388    3.214831    3.671648
     51          1           0       -0.687827    3.802705    1.974250
     52          1           0       -0.620349    2.046426    2.260759
     53          1           0       -4.663968    4.493202    3.465116
     54          1           0       -5.153372    5.086826    1.922038
     55          1           0       -3.684902    6.301436    3.873243
     56          1           0       -4.172047    7.071792    2.424927
     57          1           0       -1.409462   -0.949937    5.033090
     58          1           0       -0.943313   -2.695099    4.986208
     59          1           0       -2.250119   -2.177747    6.033201
     60          1           0       -1.250833   -5.221951    4.663325
     61          1           0       -2.619432   -6.062731    5.469946
     62          1           0       -2.427245   -4.313935    5.658183
     63          1           0       -7.294944   -4.609078    0.251570
     64          1           0       -7.009585   -3.575710   -2.475024
     65          1           0       -6.141581   -5.606924   -2.207407
     66          1           0       -6.288483   -6.349983   -0.651035
     67          1           0       -4.846640   -5.380786   -0.950094
     68          1           0       -9.071535   -4.429192   -1.218911
     69          1           0       -9.249148   -3.069365   -2.310024
     70          1           0      -10.309870   -3.241749    0.182149
     71          1           0      -10.095795   -1.684315   -0.587004
     72          1           0       -8.884904   -2.158129    0.536867
     73          1           0       -8.579337    2.788270   -3.577960
     74          1           0       -8.767060    1.039245   -3.830819
     75          1           0       -7.453582    2.025298   -4.580885
     76          1           0       -5.279826    5.236219   -0.466632
     77          1           0       -1.819378    6.076920   -3.074123
     78          1           0       -1.873900    7.487290   -2.025966
     79          1           0       -3.141899    7.295794   -3.350092
     80         12           0        4.327100   -0.906873   -0.914079
     81          6           0        7.059136    1.059082   -0.184067
     82          6           0        2.263576    1.976592   -0.471611
     83          6           0        1.651081   -2.775891   -1.243269
     84          6           0        6.368027   -3.723465   -1.168967
     85          7           0        4.709972    1.237254   -0.394732
     86          6           0        5.896837    1.810929   -0.176043
     87          6           0        5.687458    3.348134    0.018467
     88          6           0        4.102780    3.546052    0.048043
     89          6           0        3.627425    2.111118   -0.250994
     90          6           0        3.479956    3.921925    1.378814
     91          6           0        6.428857    4.233325   -0.994655
     92          6           0        7.238991    5.313816   -0.298296
     93          1           0        7.558425    6.641498   -1.000677
     94          7           0        2.255131   -0.428684   -0.939776
     95          6           0        1.610756    0.766509   -0.798901
     96          6           0        0.229793    0.646401   -0.951952
     97          6           0       -0.029734   -0.764218   -1.062104
     98          6           0        1.330461   -1.404425   -1.101601
     99          6           0       -0.737624    1.820791   -0.923912
    100          6           0       -1.363816   -1.492163   -1.088011
    101          8           0       -1.361970   -2.736408   -1.015888
    102          6           0       -2.648738   -0.769563   -1.074955
    103          7           0        4.094139   -2.907783   -1.193560
    104          6           0        2.860317   -3.498314   -1.374488
    105          6           0        2.903632   -5.059446   -1.569401
    106          6           0        4.462324   -5.242546   -1.813600
    107          6           0        5.024349   -3.886970   -1.347699
    108          6           0        2.366609   -6.045698   -0.458392
    109          6           0        4.952927   -5.795378   -3.228180
    110          6           0        4.952241   -4.793474   -4.352411
    111          7           0        6.243859   -1.345174   -0.601176
    112          6           0        6.980192   -2.507870   -0.726032
    113          6           0        8.345898   -2.305987   -0.461329
    114          6           0        8.404982   -0.918681   -0.285559
    115          6           0        7.101519   -0.349704   -0.380109
    116          6           0        9.333620   -3.388918   -0.564363
    117          6           0        9.346077    0.068826    0.079984
    118          8           0       10.529370   -0.093938    0.384533
    119          6           0        8.532910    1.464895    0.148754
    120          6           0        8.689292    2.040441    1.472955
    121          8           0        8.152473    1.671656    2.492475
    122          8           0        9.614527    2.992016    1.456824
    123          6           0       10.007134    3.601935    2.691194
    124          1           0        1.637652    2.850981   -0.283821
    125          1           0        0.861778   -3.520345   -1.364095
    126          1           0        6.969941   -4.630511   -1.255672
    127          1           0        6.073649    3.464500    1.030594
    128          1           0        3.909999    4.398672   -0.604052
    129          1           0        4.197734    4.126083    2.173870
    130          1           0        2.875004    3.098197    1.756816
    131          1           0        2.742618    4.711662    1.231639
    132          1           0        5.794835    4.701355   -1.747895
    133          1           0        7.088351    3.587160   -1.573524
    134          1           0        8.231403    4.887993   -0.145958
    135          1           0        6.711729    5.529750    0.630743
    136          1           0       -0.214733    2.775225   -0.985927
    137          1           0       -1.211171    1.860020    0.057311
    138          1           0       -1.540342    1.685714   -1.647863
    139          1           0       -3.452787   -1.414671   -0.718986
    140          1           0       -2.883467   -0.525309   -2.111442
    141          1           0       -2.582268    0.110787   -0.436141
    142          1           0        2.485211   -5.368797   -2.527703
    143          1           0        4.818276   -6.047383   -1.171662
    144          1           0        1.983829   -5.441068    0.362855
    145          1           0        3.218019   -6.524580    0.026845
    146          1           0        1.636677   -6.802695   -0.746653
    147          1           0        4.223873   -6.550184   -3.521866
    148          1           0        5.906461   -6.320943   -3.193553
    149          1           0        5.763792   -5.073660   -5.023055
    150          1           0        5.003759   -3.723851   -4.152952
    151          1           0        3.989304   -4.896509   -4.852672
    152          1           0        9.158958   -4.190253   -1.281868
    153          1           0        9.693198   -3.800517    0.377941
    154          1           0       10.209620   -2.832653   -0.897003
    155          1           0        8.963318    2.135189   -0.595009
    156          1           0        9.393620    4.468837    2.939166
    157          1           0       11.019423    3.979246    2.547428
    158          1           0        9.928089    2.878847    3.503120
 ---------------------------------------------------------------------

 SCF Done:  E(RCAM-B3LYP) =  -4069.84411040     A.U. after   19 cycles

 Excitation energies and oscillator strengths:

 Excited State   1:      Singlet-A      1.7032 eV  727.94 nm  f=0.6703  <S**2>=0.000
     310 -> 316        0.14059
     311 -> 313        0.37650
     312 -> 314        0.57467
 This state for optimization and/or second-order correction.
 Total Energy, E(TD-HF/TD-DFT) =  -4069.78151802
 Copying the excited state density for this state as the 1-particle RhoCI density.

 Excited State   2:      Singlet-A      1.7126 eV  723.97 nm  f=0.1837  <S**2>=0.000
     309 -> 315       -0.15035
     311 -> 313        0.57196
     312 -> 314       -0.37622

 Excited State   3:      Singlet-A      2.1223 eV  584.19 nm  f=0.1047  <S**2>=0.000
     309 -> 313        0.65107
     311 -> 315        0.23020

 Excited State   4:      Singlet-A      2.2307 eV  555.82 nm  f=0.1615  <S**2>=0.000
     310 -> 314        0.64270
     312 -> 316       -0.25818

 Excited State   5:      Singlet-A      2.2466 eV  551.88 nm  f=0.0001  <S**2>=0.000
     312 -> 313        0.70566

 The electronic state is 1-A.
 Alpha  occ. eigenvalues --  -46.88659 -46.87294 -19.24734 -19.24633 -19.20083
 Alpha  occ. eigenvalues --  -19.20045 -19.19122 -19.18406 -19.18213 -19.17624
 Alpha  occ. eigenvalues --  -14.42623 -14.42305 -14.41938 -14.41783 -14.39692
 Alpha  occ. eigenvalues --  -14.39262 -14.38571 -14.38523 -10.39632 -10.38076
 Alpha  occ. eigenvalues --  -10.36282 -10.35534 -10.34212 -10.34149 -10.31890
 Alpha  occ. eigenvalues --  -10.31398 -10.31213 -10.31196 -10.31153 -10.31081
 Alpha  occ. eigenvalues --  -10.30921 -10.30869 -10.30748 -10.30723 -10.30339
 Alpha  occ. eigenvalues --  -10.30177 -10.29728 -10.29330 -10.29137 -10.28945
 Alpha  occ. eigenvalues --  -10.28838 -10.28674 -10.28654 -10.28609 -10.28510
 Alpha  occ. eigenvalues --  -10.28443 -10.28350 -10.28334 -10.28294 -10.28220
 Alpha  occ. eigenvalues --  -10.27954 -10.27953 -10.27895 -10.27827 -10.27694
 Alpha  occ. eigenvalues --  -10.27568 -10.27548 -10.27477 -10.27458 -10.27458
 Alpha  occ. eigenvalues --  -10.27294 -10.27068 -10.27038 -10.26920 -10.26882
 Alpha  occ. eigenvalues --  -10.26824 -10.26780 -10.26530 -10.26511 -10.26495
 Alpha  occ. eigenvalues --  -10.26366 -10.26339 -10.26233 -10.26084 -10.25992
 Alpha  occ. eigenvalues --  -10.25890 -10.25863 -10.25797 -10.25791 -10.25634
 Alpha  occ. eigenvalues --  -10.25435 -10.25415 -10.25323 -10.25099 -10.24711
 Alpha  occ. eigenvalues --  -10.24200  -3.17185  -3.16081  -1.92096  -1.91636
 Alpha  occ. eigenvalues --   -1.91485  -1.90980  -1.90552  -1.90384  -1.17731
 Alpha  occ. eigenvalues --   -1.16009  -1.11667  -1.09300  -1.08497  -1.07856
 Alpha  occ. eigenvalues --   -1.07635  -1.07581  -1.04767  -1.04187  -1.03775
 Alpha  occ. eigenvalues --   -1.03258  -1.02975  -1.02836  -1.02157  -1.01325
 Alpha  occ. eigenvalues --   -0.92535  -0.91725  -0.89378  -0.89324  -0.89027
 Alpha  occ. eigenvalues --   -0.88467  -0.88413  -0.88007  -0.87442  -0.87216
 Alpha  occ. eigenvalues --   -0.87068  -0.86691  -0.86393  -0.86160  -0.84661
 Alpha  occ. eigenvalues --   -0.84219  -0.83825  -0.83587  -0.82681  -0.82662
 Alpha  occ. eigenvalues --   -0.82073  -0.81654  -0.81390  -0.80844  -0.80568
 Alpha  occ. eigenvalues --   -0.80174  -0.78373  -0.77531  -0.77413  -0.77270
 Alpha  occ. eigenvalues --   -0.76912  -0.76453  -0.76347  -0.75729  -0.75266
 Alpha  occ. eigenvalues --   -0.74929  -0.73000  -0.72754  -0.71435  -0.71105
 Alpha  occ. eigenvalues --   -0.70040  -0.69345  -0.68879  -0.68441  -0.68106
 Alpha  occ. eigenvalues --   -0.67487  -0.66739  -0.66385  -0.65212  -0.65088
 Alpha  occ. eigenvalues --   -0.64967  -0.64792  -0.64519  -0.64255  -0.64150
 Alpha  occ. eigenvalues --   -0.64075  -0.62087  -0.61968  -0.60069  -0.59943
 Alpha  occ. eigenvalues --   -0.59699  -0.59561  -0.59413  -0.58809  -0.58537
 Alpha  occ. eigenvalues --   -0.58192  -0.58019  -0.57985  -0.57832  -0.57280
 Alpha  occ. eigenvalues --   -0.56185  -0.56089  -0.55932  -0.55811  -0.55578
 Alpha  occ. eigenvalues --   -0.54904  -0.54550  -0.54410  -0.54260  -0.54103
 Alpha  occ. eigenvalues --   -0.53712  -0.53474  -0.53252  -0.53217  -0.52745
 Alpha  occ. eigenvalues --   -0.52651  -0.52502  -0.52357  -0.52199  -0.52064
 Alpha  occ. eigenvalues --   -0.52010  -0.51892  -0.51673  -0.51294  -0.51181
 Alpha  occ. eigenvalues --   -0.51128  -0.50972  -0.50480  -0.50059  -0.49993
 Alpha  occ. eigenvalues --   -0.49874  -0.49760  -0.49521  -0.49491  -0.49346
 Alpha  occ. eigenvalues --   -0.49228  -0.49135  -0.49123  -0.48970  -0.48886
 Alpha  occ. eigenvalues --   -0.48736  -0.48623  -0.48511  -0.48176  -0.47970
 Alpha  occ. eigenvalues --   -0.47849  -0.47799  -0.47380  -0.47252  -0.46991
 Alpha  occ. eigenvalues --   -0.46637  -0.46606  -0.46528  -0.46351  -0.46130
 Alpha  occ. eigenvalues --   -0.46060  -0.46033  -0.45878  -0.45638  -0.45604
 Alpha  occ. eigenvalues --   -0.45393  -0.45242  -0.44992  -0.44874  -0.44735
 Alpha  occ. eigenvalues --   -0.44666  -0.44488  -0.44297  -0.44078  -0.44043
 Alpha  occ. eigenvalues --   -0.43983  -0.43726  -0.43599  -0.43570  -0.43457
 Alpha  occ. eigenvalues --   -0.43227  -0.43110  -0.42968  -0.42933  -0.42750
 Alpha  occ. eigenvalues --   -0.42614  -0.42239  -0.42175  -0.42063  -0.41888
 Alpha  occ. eigenvalues --   -0.41684  -0.41666  -0.41381  -0.41318  -0.41202
 Alpha  occ. eigenvalues --   -0.40868  -0.40823  -0.40778  -0.40562  -0.40402
 Alpha  occ. eigenvalues --   -0.40198  -0.40120  -0.38940  -0.38860  -0.38689
 Alpha  occ. eigenvalues --   -0.38582  -0.38285  -0.38036  -0.37927  -0.37362
 Alpha  occ. eigenvalues --   -0.36971  -0.36932  -0.36570  -0.36418  -0.36187
 Alpha  occ. eigenvalues --   -0.36135  -0.35896  -0.34854  -0.34684  -0.33881
 Alpha  occ. eigenvalues --   -0.33649  -0.33645  -0.32716  -0.31711  -0.31277
 Alpha  occ. eigenvalues --   -0.31189  -0.31025  -0.30174  -0.30151  -0.29826
 Alpha  occ. eigenvalues --   -0.29602  -0.29221  -0.28997  -0.23886  -0.23742
 Alpha  occ. eigenvalues --   -0.21639  -0.21071
 Alpha virt. eigenvalues --   -0.09249  -0.08639  -0.01633  -0.01047   0.00242
 Alpha virt. eigenvalues --    0.00974   0.02176   0.02294   0.02922   0.03521
 Alpha virt. eigenvalues --    0.04442   0.04614   0.05832   0.05875   0.05906

 Mulliken charges:
               1
     1  Mg  12.001137
     2  C    6.015838
     3  C    5.994030
     4  C    5.986086
     5  C    5.998501
     6  N    7.006481
     7  C    5.983415
     8  C    6.007551
     9  C    5.999175
    10  C    6.017964
    11  C    5.998695
    12  C    6.001523
    13  C    6.001627
    14  H    0.997355
    15  N    6.997451
    16  C    6.026738
    17  C    6.010657
    18  C    6.012070
    19  C    6.022195
    20  C    5.997109
    21  C    6.007058
    22  O    8.012521
    23  C    5.998148
    24  N    6.995284
    25  C    6.026120
    26  C    5.994159
    27  C    6.006326
    28  C    5.985940
    29  C    6.001084
    30  C    6.003422
    31  C    6.004620
    32  N    7.001621
    33  C    5.986221
    34  C    5.976141
    35  C    5.999162
    36  C    5.986033
    37  C    6.004855
    38  C    5.992285
    39  O    7.982928
    40  C    5.997626
    41  C    5.996542
    42  O    8.002001
    43  O    7.998323
    44  C    6.001619
    45  H    1.004277
    46  H    1.000682
    47  H    0.990684
    48  H    1.000972
    49  H    0.996371
    50  H    0.995463
    51  H    1.006840
    52  H    1.006944
    53  H    0.993767
    54  H    1.003293
    55  H    0.995667
    56  H    0.999617
    57  H    1.009707
    58  H    1.009295
    59  H    1.009086
    60  H    1.004613
    61  H    1.005504
    62  H    1.000130
    63  H    0.997497
    64  H    0.997345
    65  H    1.003978
    66  H    0.997441
    67  H    1.000560
    68  H    0.991412
    69  H    1.000558
    70  H    0.992992
    71  H    1.002183
    72  H    0.996440
    73  H    0.985887
    74  H    0.986567
    75  H    0.984188
    76  H    0.993918
    77  H    0.999041
    78  H    0.994608
    79  H    0.997798
    80  Mg  12.002167
    81  C    5.985284
    82  C    6.020773
    83  C    6.021722
    84  C    5.990274
    85  N    6.996409
    86  C    6.022776
    87  C    5.993886
    88  C    6.014678
    89  C    5.969524
    90  C    6.003150
    91  C    5.998692
    92  C    5.998434
    93  H    1.005670
    94  N    7.008155
    95  C    5.959264
    96  C    5.984656
    97  C    5.984123
    98  C    5.964432
    99  C    6.004995
   100  C    5.983620
   101  O    7.971841
   102  C    6.005938
   103  N    7.000810
   104  C    5.964275
   105  C    6.014174
   106  C    5.990834
   107  C    6.023572
   108  C    6.000027
   109  C    5.995433
   110  C    5.997065
   111  N    6.996379
   112  C    6.033927
   113  C    6.023304
   114  C    6.003087
   115  C    6.030902
   116  C    5.995029
   117  C    6.013938
   118  O    8.028746
   119  C    6.003338
   120  C    6.003693
   121  O    8.005829
   122  O    8.001216
   123  C    5.997127
   124  H    0.992452
   125  H    0.994696
   126  H    1.009728
   127  H    0.997831
   128  H    0.994001
   129  H    0.987477
   130  H    1.000702
   131  H    0.999179
   132  H    1.008673
   133  H    0.993969
   134  H    0.994499
   135  H    1.004297
   136  H    0.987631
   137  H    0.978748
   138  H    0.993116
   139  H    0.986368
   140  H    0.999248
   141  H    0.995925
   142  H    0.997045
   143  H    1.001650
   144  H    0.999916
   145  H    0.989848
   146  H    0.998703
   147  H    1.009610
   148  H    0.998286
   149  H    1.000134
   150  H    0.999755
   151  H    1.009951
   152  H    1.018263
   153  H    1.020285
   154  H    1.013106
   155  H    1.008914
   156  H    1.006986
   157  H    1.003532
   158  H    1.001346
 Sum of Mulliken charges = 624.00000

 Dipole moment (field-independent basis, Debye):
    X=             12.8566    Y=             -4.6817    Z=              4.5115  Tot=             14.4070
 Quadrupole moment (field-independent basis, Debye-Ang):
   XX=             47.7095   YY=              2.0686   ZZ=              4.1283
   XY=              0.8262   XZ=            -22.2320   YZ=             -0.7647

 Normal termination of Gaussian 16 at Wed Sep 22 16:17:53 2021.
