 Gaussian 16, Revision A.03,
 Gaussian 16:  ES64L-G16RevA.03 25-Dec-2016

 -----------------------------------------------------
 #p cam-b3lyp/Def2SVP td=(nstates=5) density=(current)
 -----------------------------------------------------

 --------------------------------
 TDDFT excited states in gaussian
 --------------------------------
 Symbolic Z-matrix:
 Charge =  0 Multiplicity = 1

                         Standard orientation:
 ---------------------------------------------------------------------
 Center     Atomic      Atomic             Coordinates (Angstroms)
 Number     Number       Type             X           Y           Z
 ---------------------------------------------------------------------
      1         12           0       -0.688059    0.226376    0.214410
      2          6           0        2.744305    0.120796    0.321865
      3          6           0       -0.689072   -3.331052    0.148596
      4          6           0       -4.005607    0.159564   -0.432956
      5          6           0       -0.665372    3.569290   -0.059546
      6          7           0        0.867574   -1.415554    0.229283
      7          6           0        2.214360   -1.171922    0.263522
      8          6           0        3.006461   -2.476163    0.379592
      9          6           0        1.851703   -3.549281    0.116314
     10          6           0        0.595700   -2.729250    0.162878
     11          6           0        2.050236   -4.402126   -1.190184
     12          6           0        3.709875   -2.675025    1.799254
     13          6           0        5.123467   -3.185343    1.943209
     14          1           0        5.527989   -4.380760    1.155871
     15          7           0       -2.196489   -1.363630   -0.054848
     16          6           0       -2.028517   -2.691439    0.130633
     17          6           0       -3.275451   -3.380332    0.124913
     18          6           0       -4.282950   -2.374031   -0.012728
     19          6           0       -3.483737   -1.134140   -0.245681
     20          6           0       -3.269573   -4.872387    0.212997
     21          6           0       -5.786392   -2.545226   -0.147951
     22          8           0       -6.523176   -1.634985   -0.539985
     23          6           0       -6.437628   -3.876539    0.183297
     24          7           0       -2.146056    1.672478   -0.350408
     25          6           0       -3.475569    1.402938   -0.432641
     26          6           0       -4.282673    2.695325   -0.543773
     27          6           0       -3.193549    3.793402   -0.240768
     28          6           0       -1.919150    2.973178   -0.204764
     29          6           0       -5.171286    2.988390   -1.788632
     30          6           0       -3.436751    4.707956    1.031574
     31          6           0       -2.845007    4.329232    2.372749
     32          7           0        0.705723    1.579349    0.043005
     33          6           0        0.635039    2.948868    0.079090
     34          6           0        1.902302    3.580490    0.013341
     35          6           0        2.778177    2.509001    0.156950
     36          6           0        2.002141    1.321981    0.193556
     37          6           0        2.339028    5.038042   -0.055619
     38          6           0        4.117534    2.118606    0.233433
     39          8           0        5.110831    2.818455    0.160480
     40          6           0        4.215856    0.493703    0.327011
     41          6           0        4.971293    0.024860   -0.828130
     42          8           0        4.617186    0.116658   -2.020257
     43          8           0        6.180258   -0.505863   -0.504730
     44          6           0        7.166816   -0.722051   -1.569024
     45          1           0       -0.568139   -4.413597    0.220604
     46          1           0       -5.094430    0.186265   -0.356854
     47          1           0       -0.631171    4.623239    0.221541
     48          1           0        3.820216   -2.449067   -0.346218
     49          1           0        1.827420   -4.307188    0.899495
     50          1           0        2.104307   -5.449531   -0.895320
     51          1           0        2.938712   -3.979499   -1.659649
     52          1           0        1.202461   -4.408861   -1.875934
     53          1           0        3.029250   -3.383294    2.272025
     54          1           0        3.548491   -1.808377    2.439459
     55          1           0        5.371337   -3.302582    2.998134
     56          1           0        5.755167   -2.406415    1.517741
     57          1           0       -4.044729   -5.109960    0.940638
     58          1           0       -2.331135   -5.231607    0.636096
     59          1           0       -3.449530   -5.412043   -0.717407
     60          1           0       -6.048312   -4.348974    1.085634
     61          1           0       -6.490839   -4.491892   -0.715864
     62          1           0       -7.467397   -3.613262    0.426768
     63          1           0       -5.036478    2.578986    0.235203
     64          1           0       -3.167417    4.580348   -0.993579
     65          1           0       -4.731771    3.786593   -2.386620
     66          1           0       -6.132711    3.326215   -1.402162
     67          1           0       -5.240055    2.045043   -2.329245
     68          1           0       -4.516355    4.776615    1.158040
     69          1           0       -3.062217    5.713485    0.838577
     70          1           0       -3.599259    4.316233    3.159891
     71          1           0       -2.033396    4.984085    2.692631
     72          1           0       -2.440824    3.327921    2.223934
     73          1           0        1.455523    5.676385   -0.016780
     74          1           0        2.903538    5.198887   -0.974420
     75          1           0        2.986106    5.244778    0.796355
     76          1           0        4.830131    0.392229    1.222171
     77          1           0        8.198824   -0.750610   -1.219117
     78          1           0        7.061031   -0.083077   -2.445222
     79          1           0        7.030243   -1.761743   -1.866897
 ---------------------------------------------------------------------

 SCF Done:  E(RCAM-B3LYP) =  -2034.92810536     A.U. after   17 cycles

 Excitation energies and oscillator strengths:

 Excited State   1:      Singlet-A      1.7199 eV  720.86 nm  f=0.4165  <S**2>=0.000
     155 ->158         0.17819
     156 ->157         0.68655
     155 <-158         0.10696
 This state for optimization and/or second-order correction.
 Total Energy, E(TD-HF/TD-DFT) =  -2034.86489884
 Copying the excited state density for this state as the 1-particle RhoCI density.

 Excited State   2:      Singlet-A      2.1905 eV  566.02 nm  f=0.1756  <S**2>=0.000
     155 ->157         0.66247
     156 ->158        -0.23739

 Excited State   3:      Singlet-A      3.4082 eV  363.79 nm  f=0.0033  <S**2>=0.000
     153 ->157        -0.26133
     153 ->159         0.18500
     153 ->161         0.11833
     154 ->157         0.58892

 Excited State   4:      Singlet-A      3.4420 eV  360.21 nm  f=0.0010  <S**2>=0.000
     152 ->157        -0.12808
     153 ->157         0.52637
     153 ->159        -0.14512
     153 ->161        -0.13220
     154 ->157         0.32082
     154 ->159         0.10287
     156 ->158         0.12016

 Excited State   5:      Singlet-A      3.6099 eV  343.45 nm  f=0.0092  <S**2>=0.000
     150 ->157         0.24714
     150 ->159         0.14116
     151 ->157         0.42359
     151 ->158         0.11359
     151 ->159         0.22385
     151 ->161        -0.14174
     152 ->157         0.27811
     154 ->157        -0.11249

 The electronic state is 1-A.
 Alpha  occ. eigenvalues --  -46.89116 -19.25090 -19.18882 -19.18609 -19.18543
 Alpha  occ. eigenvalues --  -14.42144 -14.41552 -14.39589 -14.39511 -10.38954
 Alpha  occ. eigenvalues --  -10.35372 -10.34536 -10.31638 -10.31084 -10.30886
 Alpha  occ. eigenvalues --  -10.30437 -10.30138 -10.30083 -10.30061 -10.29892
 Alpha  occ. eigenvalues --  -10.29020 -10.28590 -10.28466 -10.28368 -10.28284
 Alpha  occ. eigenvalues --  -10.28016 -10.28011 -10.27985 -10.27692 -10.27509
 Alpha  occ. eigenvalues --  -10.27468 -10.27324 -10.26922 -10.26877 -10.26615
 Alpha  occ. eigenvalues --  -10.26428 -10.26241 -10.26187 -10.26076 -10.25721
 Alpha  occ. eigenvalues --  -10.25216 -10.25050 -10.24631  -3.17726  -1.92608
 Alpha  occ. eigenvalues --   -1.92141  -1.92075  -1.15873  -1.09902  -1.09468
 Alpha  occ. eigenvalues --   -1.05867  -1.05385  -1.04652  -1.04165  -1.03490
 Alpha  occ. eigenvalues --   -0.92625  -0.89032  -0.88267  -0.88212  -0.87793
 Alpha  occ. eigenvalues --   -0.87429  -0.86433  -0.84296  -0.83777  -0.82694
 Alpha  occ. eigenvalues --   -0.81852  -0.81178  -0.80334  -0.78401  -0.77490
 Alpha  occ. eigenvalues --   -0.77111  -0.76264  -0.75505  -0.73554  -0.71557
 Alpha  occ. eigenvalues --   -0.69645  -0.69225  -0.68141  -0.67141  -0.65646
 Alpha  occ. eigenvalues --   -0.65133  -0.64781  -0.64222  -0.62257  -0.60191
 Alpha  occ. eigenvalues --   -0.59847  -0.59080  -0.58307  -0.57925  -0.57304
 Alpha  occ. eigenvalues --   -0.56255  -0.55419  -0.54993  -0.54890  -0.54087
 Alpha  occ. eigenvalues --   -0.53314  -0.53142  -0.52801  -0.52607  -0.52234
 Alpha  occ. eigenvalues --   -0.52096  -0.51449  -0.50769  -0.50577  -0.50283
 Alpha  occ. eigenvalues --   -0.49854  -0.49551  -0.49243  -0.49104  -0.48809
 Alpha  occ. eigenvalues --   -0.48773  -0.48575  -0.48225  -0.47836  -0.47558
 Alpha  occ. eigenvalues --   -0.47157  -0.46867  -0.46533  -0.46179  -0.45971
 Alpha  occ. eigenvalues --   -0.45900  -0.45328  -0.45001  -0.44498  -0.43954
 Alpha  occ. eigenvalues --   -0.43937  -0.43637  -0.43383  -0.43224  -0.42976
 Alpha  occ. eigenvalues --   -0.42240  -0.41893  -0.41837  -0.41531  -0.41331
 Alpha  occ. eigenvalues --   -0.41125  -0.40634  -0.40001  -0.39847  -0.39535
 Alpha  occ. eigenvalues --   -0.38524  -0.38245  -0.37354  -0.36620  -0.36041
 Alpha  occ. eigenvalues --   -0.35684  -0.34566  -0.33452  -0.32893  -0.31346
 Alpha  occ. eigenvalues --   -0.31231  -0.30901  -0.30430  -0.30105  -0.23846
 Alpha  occ. eigenvalues --   -0.21477
 Alpha virt. eigenvalues --   -0.09096  -0.01203   0.00215   0.01833   0.02464
 Alpha virt. eigenvalues --    0.04747   0.06140   0.06716   0.07164   0.08093
 Alpha virt. eigenvalues --    0.08574   0.08859   0.09523   0.10196   0.10526

 Mulliken charges:
               1
     1  Mg   0.827761
     2  C   -0.000803
     3  C   -0.060631
     4  C   -0.063417
     5  C   -0.083218
     6  N   -0.271030
     7  C   -0.028132
     8  C   -0.044001
     9  C   -0.070727
    10  C    0.037088
    11  C    0.072235
    12  C    0.051248
    13  C   -0.047674
    14  H    0.017586
    15  N   -0.278434
    16  C    0.113056
    17  C   -0.142763
    18  C   -0.038666
    19  C    0.079246
    20  C    0.127342
    21  C   -0.006226
    22  O   -0.221434
    23  C    0.047514
    24  N   -0.290058
    25  C    0.040861
    26  C   -0.034695
    27  C    0.000720
    28  C    0.059253
    29  C    0.083467
    30  C   -0.011207
    31  C    0.012167
    32  N   -0.386749
    33  C    0.098710
    34  C   -0.179016
    35  C    0.094522
    36  C    0.110916
    37  C    0.138898
    38  C   -0.047250
    39  O   -0.173843
    40  C    0.018038
    41  C    0.191590
    42  O   -0.253905
    43  O   -0.327660
    44  C    0.186522
    45  H   -0.037710
    46  H   -0.010717
    47  H   -0.025264
    48  H    0.028678
    49  H    0.021757
    50  H    0.011533
    51  H    0.029200
    52  H    0.021406
    53  H   -0.009999
    54  H    0.010137
    55  H    0.033239
    56  H    0.034417
    57  H    0.007942
    58  H    0.012580
    59  H    0.036969
    60  H    0.031631
    61  H    0.045640
    62  H    0.022600
    63  H    0.014380
    64  H    0.014108
    65  H    0.015705
    66  H    0.019450
    67  H    0.032736
    68  H    0.006541
    69  H    0.006576
    70  H    0.015980
    71  H    0.016486
    72  H    0.016653
    73  H    0.004724
    74  H    0.044671
    75  H    0.039363
    76  H    0.029613
    77  H    0.034959
    78  H    0.058304
    79  H    0.018511
 Sum of Mulliken charges =  -0.00000

 Dipole moment (field-independent basis, Debye):
    X=             -0.7346    Y=             -2.2881    Z=              3.2506  Tot=              4.0425
 Quadrupole moment (field-independent basis, Debye-Ang):
   XX=           -272.4365   YY=           -226.0978   ZZ=           -258.7250
   XY=            -21.7638   XZ=             -4.5272   YZ=              0.5940

 Normal termination of Gaussian 16 at Fri Oct  8 15:58:25 2021.
