 Gaussian 16, Revision A.03,
 Gaussian 16:  ES64L-G16RevA.03 25-Dec-2016

 -----------------------------------
 #p cam-b3lyp/Def2SVP td=(nstates=5)
 -----------------------------------

 --------------------------------
 TDDFT excited states in gaussian
 --------------------------------
 Symbolic Z-matrix:
 Charge =  0 Multiplicity = 1

                         Standard orientation:
 ---------------------------------------------------------------------
 Center     Atomic      Atomic             Coordinates (Angstroms)
 Number     Number       Type             X           Y           Z
 ---------------------------------------------------------------------
      1         12           0        9.877235   -0.291391    0.168891
      2          6           0        8.111911    2.359702   -1.304338
      3          6           0       12.153025    1.814270    1.397094
      4          6           0       11.410230   -2.870131    1.382830
      5          6           0        7.979407   -2.441024   -2.037010
      6          7           0       10.116507    1.837510   -0.060922
      7          6           0        9.247596    2.743642   -0.526466
      8          6           0        9.788111    4.146716   -0.426168
      9          6           0       11.269702    3.904552    0.070831
     10          6           0       11.188955    2.455583    0.510789
     11          6           0       12.443274    4.172123   -0.926509
     12          6           0        8.970614    4.990067    0.680126
     13          6           0        8.528315    6.404999    0.182042
     14          1           0        7.456457    7.085984    1.193856
     15          7           0       11.360052   -0.473272    1.412821
     16          6           0       12.197817    0.528394    1.872796
     17          6           0       12.999665   -0.003219    2.940264
     18          6           0       12.807263   -1.442556    3.029225
     19          6           0       11.731279   -1.674282    1.991000
     20          6           0       14.011193    0.934878    3.659376
     21          6           0       13.379193   -2.571482    3.879131
     22          8           0       13.014897   -3.761203    3.868507
     23          6           0       14.389540   -2.091676    4.860102
     24          7           0        9.770204   -2.307091   -0.429170
     25          6           0       10.570271   -3.154766    0.296490
     26          6           0       10.479091   -4.584492   -0.238060
     27          6           0        9.183297   -4.509621   -1.087597
     28          6           0        8.977509   -3.003700   -1.262405
     29          6           0       11.832126   -4.982313   -0.950929
     30          6           0        7.904237   -5.222237   -0.473795
     31          6           0        6.817017   -5.666595   -1.465309
     32          7           0        8.323136   -0.132662   -1.344325
     33          6           0        7.698022   -1.076414   -2.101667
     34          6           0        6.626244   -0.496699   -2.879821
     35          6           0        6.731226    0.858969   -2.518484
     36          6           0        7.807699    1.045946   -1.639590
     37          6           0        5.602337   -1.116616   -3.858344
     38          6           0        6.119133    2.140985   -2.730022
     39          8           0        5.094792    2.492262   -3.254349
     40          6           0        7.131964    3.203801   -2.054563
     41          6           0        6.183284    4.087747   -1.372127
     42          8           0        5.629071    3.941694   -0.253393
     43          8           0        6.002057    5.118470   -2.215704
     44          6           0        5.061565    6.171749   -1.830827
     45          1           0       12.850082    2.503641    1.878371
     46          1           0       11.872215   -3.745529    1.844457
     47          1           0        7.373719   -3.146697   -2.609392
     48          1           0        9.736205    4.731162   -1.345189
     49          1           0       11.564273    4.436610    0.975597
     50          1           0       12.880293    3.208685   -1.188944
     51          1           0       13.161726    4.767087   -0.362913
     52          1           0       12.222691    4.662656   -1.873923
     53          1           0        9.457486    5.101025    1.649736
     54          1           0        8.128620    4.363649    0.974865
     55          1           0        8.069633    6.337107   -0.804201
     56          1           0        9.320826    7.151922    0.142605
     57          1           0       13.500002    1.390986    4.506049
     58          1           0       14.234191    1.846618    3.103846
     59          1           0       15.016317    0.547499    3.824358
     60          1           0       14.011770   -1.373480    5.586968
     61          1           0       15.165779   -1.692680    4.206002
     62          1           0       14.869742   -2.893147    5.422198
     63          1           0       10.359756   -5.211877    0.645355
     64          1           0        9.350312   -5.012288   -2.040198
     65          1           0       11.694350   -5.010686   -2.031741
     66          1           0       12.283844   -5.945756   -0.716070
     67          1           0       12.655216   -4.271790   -0.872091
     68          1           0        7.432052   -4.417142    0.089853
     69          1           0        8.068459   -6.077638    0.181861
     70          1           0        5.888453   -5.109634   -1.333595
     71          1           0        6.511844   -6.712998   -1.486046
     72          1           0        7.173511   -5.345508   -2.443036
     73          1           0        6.067717   -2.028633   -4.232177
     74          1           0        5.374640   -0.430661   -4.675334
     75          1           0        4.724552   -1.366946   -3.262678
     76          1           0        7.630550    3.779583   -2.834499
     77          1           0        5.627946    7.077526   -1.615015
     78          1           0        4.376509    5.847661   -1.048117
     79          1           0        4.469222    6.433916   -2.707380
     80         12           0       -8.991081   -1.025353    0.395308
     81          6           0      -11.287583    1.622715    0.863026
     82          6           0       -6.498812    1.309857    0.141405
     83          6           0       -6.980681   -3.427041   -0.680803
     84          6           0      -11.711453   -3.219021    0.198199
     85          7           0       -8.935963    1.228735    0.330530
     86          6           0      -10.001952    2.069905    0.660441
     87          6           0       -9.478977    3.502049    0.931921
     88          6           0       -7.933281    3.376243    0.672241
     89          6           0       -7.715616    1.863283    0.392848
     90          6           0       -7.305482    4.383064   -0.275749
     91          6           0       -9.809770    4.104186    2.306423
     92          6           0      -10.532154    5.477576    2.235388
     93          1           0       -9.856328    6.607232    2.980446
     94          7           0       -6.977609   -1.040064   -0.104626
     95          6           0       -6.106762    0.006228   -0.190181
     96          6           0       -4.789930   -0.537410   -0.422977
     97          6           0       -4.940169   -1.935172   -0.818372
     98          6           0       -6.355001   -2.144973   -0.552165
     99          6           0       -3.472544    0.392394   -0.525379
    100          6           0       -4.063704   -2.838322   -1.574253
    101          8           0       -4.265073   -3.986005   -1.852687
    102          6           0       -2.753571   -2.233975   -2.070576
    103          7           0       -9.370454   -3.012352   -0.365906
    104          6           0       -8.340712   -3.818780   -0.689180
    105          6           0       -8.811839   -5.268037   -0.830653
    106          6           0      -10.214554   -5.231980   -0.203103
    107          6           0      -10.464418   -3.746567   -0.067147
    108          6           0       -8.843893   -5.724360   -2.361134
    109          6           0      -10.140789   -5.921349    1.253214
    110          6           0       -9.420855   -5.095500    2.354076
    111          7           0      -11.094966   -0.946179    0.613089
    112          6           0      -12.031389   -1.903945    0.518231
    113          6           0      -13.315243   -1.301306    0.757133
    114          6           0      -13.064359    0.045303    0.942425
    115          6           0      -11.691923    0.256690    0.784561
    116          6           0      -14.687088   -1.948051    0.780428
    117          6           0      -13.779280    1.304502    1.167381
    118          8           0      -14.910512    1.696378    1.228307
    119          6           0      -12.653687    2.371756    1.204868
    120          6           0      -12.989254    3.341420    0.132716
    121          8           0      -13.169153    2.984310   -1.004413
    122          8           0      -13.154838    4.638189    0.591953
    123          6           0      -13.781635    5.609436   -0.365935
    124          1           0       -5.693979    2.036614    0.270890
    125          1           0       -6.341575   -4.280173   -0.919428
    126          1           0      -12.586795   -3.850196    0.365257
    127          1           0       -9.850115    4.162336    0.147822
    128          1           0       -7.417241    3.641572    1.595163
    129          1           0       -8.063278    4.885007   -0.875511
    130          1           0       -6.547530    3.955067   -0.932304
    131          1           0       -6.878718    5.159880    0.358203
    132          1           0       -8.982650    4.324760    2.981219
    133          1           0      -10.435272    3.424340    2.884475
    134          1           0      -11.588607    5.386762    2.487685
    135          1           0      -10.512714    5.802993    1.196058
    136          1           0       -2.698823   -0.058432    0.095981
    137          1           0       -3.570095    1.410180   -0.149520
    138          1           0       -3.056024    0.604118   -1.510127
    139          1           0       -2.239939   -1.960805   -1.148507
    140          1           0       -3.054315   -1.364129   -2.653691
    141          1           0       -2.103696   -2.928856   -2.603364
    142          1           0       -8.228114   -5.975807   -0.241113
    143          1           0      -11.072750   -5.624574   -0.748962
    144          1           0       -8.671794   -6.800953   -2.372218
    145          1           0       -8.110664   -5.300306   -3.048010
    146          1           0       -9.865417   -5.512736   -2.676672
    147          1           0       -9.694965   -6.915481    1.227537
    148          1           0      -11.140649   -5.965009    1.685260
    149          1           0       -9.220666   -5.627951    3.283269
    150          1           0      -10.064037   -4.250828    2.601466
    151          1           0       -8.493330   -4.715651    1.924451
    152          1           0      -14.819506   -2.693336    1.564393
    153          1           0      -14.749367   -2.447151   -0.186236
    154          1           0      -15.496582   -1.218209    0.791293
    155          1           0      -12.792054    2.843325    2.177626
    156          1           0      -13.117856    6.457362   -0.197068
    157          1           0      -14.801129    5.881181   -0.092908
    158          1           0      -13.847056    5.370736   -1.427170
 ---------------------------------------------------------------------

 SCF Done:  E(RCAM-B3LYP) =  -4069.81283133     A.U. after   19 cycles

 Excitation energies and oscillator strengths:

 Excited State   1:      Singlet-A      1.7000 eV  729.30 nm  f=0.5837  <S**2>=0.000
     310 -> 316        0.16447
     311 -> 313        0.64692
     312 -> 314       -0.23114
     310 <- 316        0.10115
 This state for optimization and/or second-order correction.
 Total Energy, E(TD-HF/TD-DFT) =  -4069.75035591
 Copying the excited state density for this state as the 1-particle RhoCI density.

 Excited State   2:      Singlet-A      1.7302 eV  716.60 nm  f=0.2249  <S**2>=0.000
     309 -> 315       -0.18661
     311 -> 313        0.23210
     312 -> 314        0.64057
     309 <- 315       -0.10425

 Excited State   3:      Singlet-A      2.1925 eV  565.48 nm  f=0.1305  <S**2>=0.000
     310 -> 313        0.65649
     311 -> 316       -0.24885

 Excited State   4:      Singlet-A      2.2496 eV  551.14 nm  f=0.0645  <S**2>=0.000
     309 -> 314        0.61697
     312 -> 315        0.33550

 Excited State   5:      Singlet-A      2.8143 eV  440.56 nm  f=0.0000  <S**2>=0.000
     312 -> 313        0.70690

 The electronic state is 1-A.
 Alpha  occ. eigenvalues --  -46.89371 -46.87654 -19.25009 -19.25009 -19.19742
 Alpha  occ. eigenvalues --  -19.19450 -19.19147 -19.19139 -19.18569 -19.18200
 Alpha  occ. eigenvalues --  -14.42681 -14.41941 -14.41806 -14.41751 -14.39592
 Alpha  occ. eigenvalues --  -14.39538 -14.39059 -14.38490 -10.38705 -10.38653
 Alpha  occ. eigenvalues --  -10.36067 -10.34999 -10.34770 -10.34166 -10.31799
 Alpha  occ. eigenvalues --  -10.31686 -10.31345 -10.31277 -10.31164 -10.30865
 Alpha  occ. eigenvalues --  -10.30686 -10.30618 -10.30588 -10.30579 -10.30345
 Alpha  occ. eigenvalues --  -10.30199 -10.30122 -10.30070 -10.29785 -10.29579
 Alpha  occ. eigenvalues --  -10.29433 -10.29308 -10.29169 -10.28978 -10.28814
 Alpha  occ. eigenvalues --  -10.28623 -10.28509 -10.28454 -10.28033 -10.27949
 Alpha  occ. eigenvalues --  -10.27923 -10.27882 -10.27858 -10.27851 -10.27830
 Alpha  occ. eigenvalues --  -10.27790 -10.27773 -10.27753 -10.27749 -10.27690
 Alpha  occ. eigenvalues --  -10.27585 -10.27410 -10.27327 -10.27082 -10.26908
 Alpha  occ. eigenvalues --  -10.26895 -10.26797 -10.26731 -10.26580 -10.26479
 Alpha  occ. eigenvalues --  -10.26475 -10.26372 -10.26350 -10.26332 -10.26129
 Alpha  occ. eigenvalues --  -10.26104 -10.26029 -10.25926 -10.25900 -10.25833
 Alpha  occ. eigenvalues --  -10.25762 -10.25472 -10.25393 -10.24869 -10.24804
 Alpha  occ. eigenvalues --  -10.24528  -3.17774  -3.16497  -1.92657  -1.92243
 Alpha  occ. eigenvalues --   -1.92067  -1.91382  -1.90964  -1.90811  -1.16076
 Alpha  occ. eigenvalues --   -1.15552  -1.11518  -1.10887  -1.10868  -1.09463
 Alpha  occ. eigenvalues --   -1.07485  -1.05686  -1.05280  -1.05016  -1.04384
 Alpha  occ. eigenvalues --   -1.04117  -1.03671  -1.03659  -1.02492  -1.01824
 Alpha  occ. eigenvalues --   -0.92809  -0.92194  -0.89190  -0.88725  -0.88641
 Alpha  occ. eigenvalues --   -0.88350  -0.88103  -0.88052  -0.87574  -0.87527
 Alpha  occ. eigenvalues --   -0.87050  -0.86375  -0.86347  -0.86116  -0.84627
 Alpha  occ. eigenvalues --   -0.84240  -0.83912  -0.83347  -0.82544  -0.82356
 Alpha  occ. eigenvalues --   -0.82352  -0.81364  -0.81026  -0.80697  -0.80386
 Alpha  occ. eigenvalues --   -0.79954  -0.78297  -0.78179  -0.77389  -0.77238
 Alpha  occ. eigenvalues --   -0.77008  -0.76593  -0.76024  -0.76010  -0.75480
 Alpha  occ. eigenvalues --   -0.75048  -0.72928  -0.72868  -0.72217  -0.71597
 Alpha  occ. eigenvalues --   -0.69323  -0.69219  -0.69023  -0.68859  -0.68012
 Alpha  occ. eigenvalues --   -0.67904  -0.67300  -0.67129  -0.66145  -0.65611
 Alpha  occ. eigenvalues --   -0.65314  -0.65162  -0.64988  -0.64947  -0.64533
 Alpha  occ. eigenvalues --   -0.64274  -0.62136  -0.61891  -0.60314  -0.60217
 Alpha  occ. eigenvalues --   -0.59928  -0.59555  -0.59235  -0.59116  -0.58727
 Alpha  occ. eigenvalues --   -0.58588  -0.58056  -0.57968  -0.57366  -0.57269
 Alpha  occ. eigenvalues --   -0.56408  -0.56035  -0.55804  -0.55527  -0.55210
 Alpha  occ. eigenvalues --   -0.55077  -0.54465  -0.54381  -0.54053  -0.53994
 Alpha  occ. eigenvalues --   -0.53522  -0.53300  -0.53256  -0.52877  -0.52787
 Alpha  occ. eigenvalues --   -0.52642  -0.52451  -0.52313  -0.52297  -0.51927
 Alpha  occ. eigenvalues --   -0.51717  -0.51661  -0.51514  -0.51335  -0.51122
 Alpha  occ. eigenvalues --   -0.51104  -0.50806  -0.50600  -0.50478  -0.50227
 Alpha  occ. eigenvalues --   -0.50093  -0.49863  -0.49612  -0.49529  -0.49341
 Alpha  occ. eigenvalues --   -0.49193  -0.49154  -0.49137  -0.49038  -0.48857
 Alpha  occ. eigenvalues --   -0.48586  -0.48219  -0.48196  -0.48128  -0.48108
 Alpha  occ. eigenvalues --   -0.47717  -0.47490  -0.47373  -0.47346  -0.47247
 Alpha  occ. eigenvalues --   -0.46960  -0.46846  -0.46570  -0.46431  -0.46275
 Alpha  occ. eigenvalues --   -0.45989  -0.45974  -0.45927  -0.45793  -0.45724
 Alpha  occ. eigenvalues --   -0.45616  -0.45440  -0.45230  -0.45139  -0.44987
 Alpha  occ. eigenvalues --   -0.44949  -0.44353  -0.44108  -0.43883  -0.43814
 Alpha  occ. eigenvalues --   -0.43652  -0.43551  -0.43525  -0.43189  -0.43178
 Alpha  occ. eigenvalues --   -0.43123  -0.42955  -0.42948  -0.42901  -0.42752
 Alpha  occ. eigenvalues --   -0.42739  -0.42313  -0.42237  -0.42171  -0.42111
 Alpha  occ. eigenvalues --   -0.41989  -0.41904  -0.41830  -0.41416  -0.41329
 Alpha  occ. eigenvalues --   -0.41295  -0.41225  -0.40891  -0.40756  -0.40644
 Alpha  occ. eigenvalues --   -0.40396  -0.40165  -0.39672  -0.39557  -0.38939
 Alpha  occ. eigenvalues --   -0.38836  -0.38162  -0.37923  -0.37900  -0.37671
 Alpha  occ. eigenvalues --   -0.37463  -0.37079  -0.36862  -0.36207  -0.36088
 Alpha  occ. eigenvalues --   -0.35642  -0.35325  -0.34233  -0.34073  -0.34029
 Alpha  occ. eigenvalues --   -0.33939  -0.33223  -0.33093  -0.31799  -0.31447
 Alpha  occ. eigenvalues --   -0.31399  -0.31063  -0.30653  -0.30419  -0.30203
 Alpha  occ. eigenvalues --   -0.30105  -0.29966  -0.29697  -0.24269  -0.24005
 Alpha  occ. eigenvalues --   -0.21405  -0.21199
 Alpha virt. eigenvalues --   -0.08994  -0.08523  -0.02381  -0.01260  -0.00375
 Alpha virt. eigenvalues --    0.00735   0.01854   0.02311   0.02688   0.03053
 Alpha virt. eigenvalues --    0.04674   0.05060   0.05468   0.05825   0.05977

 Mulliken charges:
               1
     1  Mg   0.852686
     2  C    0.059288
     3  C   -0.070803
     4  C   -0.057366
     5  C   -0.106627
     6  N   -0.271011
     7  C    0.000239
     8  C   -0.067203
     9  C   -0.030324
    10  C    0.007084
    11  C    0.073720
    12  C    0.057242
    13  C   -0.089302
    14  H    0.003297
    15  N   -0.473340
    16  C    0.176061
    17  C   -0.108098
    18  C   -0.095378
    19  C    0.154230
    20  C    0.089090
    21  C    0.047481
    22  O   -0.208839
    23  C    0.040267
    24  N   -0.291862
    25  C    0.056819
    26  C   -0.031465
    27  C   -0.009975
    28  C    0.036980
    29  C    0.062817
    30  C    0.033904
    31  C   -0.009158
    32  N   -0.270762
    33  C    0.124271
    34  C   -0.199778
    35  C    0.032461
    36  C    0.059106
    37  C    0.139584
    38  C    0.025660
    39  O   -0.149217
    40  C   -0.069115
    41  C    0.203216
    42  O   -0.257161
    43  O   -0.319502
    44  C    0.175494
    45  H   -0.039410
    46  H    0.000747
    47  H   -0.042578
    48  H    0.011967
    49  H    0.003449
    50  H    0.020916
    51  H    0.015965
    52  H    0.020635
    53  H    0.007627
    54  H    0.035072
    55  H    0.036257
    56  H    0.033842
    57  H    0.029945
    58  H    0.006300
    59  H    0.032884
    60  H    0.052560
    61  H    0.030817
    62  H    0.020894
    63  H    0.015987
    64  H    0.001663
    65  H   -0.000152
    66  H    0.021745
    67  H    0.019807
    68  H    0.012007
    69  H    0.018098
    70  H    0.013126
    71  H    0.021159
    72  H    0.010342
    73  H    0.013952
    74  H    0.043223
    75  H    0.040900
    76  H    0.043717
    77  H    0.032316
    78  H    0.058539
    79  H    0.030972
    80  Mg   0.812877
    81  C   -0.023530
    82  C   -0.077004
    83  C   -0.062148
    84  C   -0.064598
    85  N   -0.302381
    86  C   -0.035386
    87  C    0.006909
    88  C   -0.058755
    89  C    0.050772
    90  C    0.068857
    91  C    0.056820
    92  C   -0.088619
    93  H    0.008134
    94  N   -0.363186
    95  C    0.161169
    96  C   -0.116833
    97  C   -0.041576
    98  C    0.130765
    99  C    0.062100
   100  C   -0.022659
   101  O   -0.176934
   102  C    0.055104
   103  N   -0.263261
   104  C    0.030135
   105  C   -0.035140
   106  C   -0.014303
   107  C    0.032296
   108  C    0.066566
   109  C    0.004480
   110  C   -0.014621
   111  N   -0.320647
   112  C    0.064947
   113  C   -0.162978
   114  C   -0.035161
   115  C    0.139777
   116  C    0.116987
   117  C    0.068852
   118  O   -0.137220
   119  C    0.003885
   120  C    0.181177
   121  O   -0.201589
   122  O   -0.351201
   123  C    0.165335
   124  H   -0.033146
   125  H   -0.001227
   126  H   -0.031673
   127  H    0.018450
   128  H    0.008404
   129  H    0.008260
   130  H    0.023085
   131  H    0.009500
   132  H    0.019221
   133  H    0.008986
   134  H    0.045868
   135  H    0.015605
   136  H    0.028628
   137  H    0.004848
   138  H    0.035160
   139  H    0.022917
   140  H    0.037417
   141  H    0.022107
   142  H    0.016366
   143  H    0.012518
   144  H    0.016981
   145  H    0.035596
   146  H    0.016119
   147  H    0.019826
   148  H    0.001828
   149  H    0.023384
   150  H    0.021786
   151  H    0.021220
   152  H    0.028752
   153  H    0.019474
   154  H    0.036024
   155  H    0.033580
   156  H    0.035847
   157  H    0.043756
   158  H    0.056317
 Sum of Mulliken charges =  -0.00000

 Dipole moment (field-independent basis, Debye):
    X=              7.4546    Y=              1.7738    Z=              1.9039  Tot=              7.8957
 Quadrupole moment (field-independent basis, Debye-Ang):
   XX=           -486.3745   YY=           -471.8075   ZZ=           -517.4543
   XY=             49.2142   XZ=            -12.6970   YZ=              4.2943

 Normal termination of Gaussian 16 at Wed Sep  1 20:31:14 2021.
