 Gaussian 16, Revision A.03,
 Gaussian 16:  ES64L-G16RevA.03 25-Dec-2016

 ----------------------------------------------------------
 #p cam-b3lyp/Def2SVP td=(nstates=5) density=(transition=1)
 ----------------------------------------------------------

 --------------------------------
 TDDFT excited states in gaussian
 --------------------------------
 Symbolic Z-matrix:
 Charge =  0 Multiplicity = 1

                         Standard orientation:
 ---------------------------------------------------------------------
 Center     Atomic      Atomic             Coordinates (Angstroms)
 Number     Number       Type             X           Y           Z
 ---------------------------------------------------------------------
      1         12           0        5.072883   -0.806711   -0.394854
      2          6           0        3.065840    2.177134   -1.106082
      3          6           0        7.677032    1.395529    0.407939
      4          6           0        7.028097   -3.396762   -0.084441
      5          6           0        2.333395   -2.762654   -1.051681
      6          7           0        5.401016    1.476065   -0.552551
      7          6           0        4.412330    2.530470   -0.741309
      8          6           0        4.994535    3.956360   -0.635994
      9          6           0        6.560430    3.579975   -0.341358
     10          6           0        6.600648    2.050483   -0.155345
     11          6           0        7.519255    4.074060   -1.407117
     12          6           0        4.237208    4.779988    0.449187
     13          6           0        4.892950    6.066185    0.853151
     14          1           0        4.058017    7.317263    1.012398
     15          7           0        7.113920   -1.012056    0.077677
     16          6           0        8.026086    0.003594    0.385886
     17          6           0        9.322432   -0.583759    0.719336
     18          6           0        9.158303   -2.023402    0.587338
     19          6           0        7.721610   -2.238620    0.176609
     20          6           0       10.577957    0.224010    1.213962
     21          6           0       10.125811   -3.141639    0.737213
     22          8           0        9.848766   -4.328654    0.627709
     23          6           0       11.509901   -2.867471    1.158516
     24          7           0        4.725663   -2.740431   -0.451330
     25          6           0        5.706898   -3.643959   -0.417960
     26          6           0        5.189124   -5.094019   -0.564777
     27          6           0        3.695961   -4.883950   -0.422032
     28          6           0        3.537759   -3.343896   -0.726718
     29          6           0        5.577291   -5.740825   -1.889351
     30          6           0        2.932922   -5.250916    0.824375
     31          6           0        3.343293   -4.474243    2.057217
     32          7           0        3.132949   -0.434188   -1.054882
     33          6           0        2.087514   -1.366935   -1.179401
     34          6           0        0.888404   -0.672553   -1.579183
     35          6           0        1.271081    0.689138   -1.470016
     36          6           0        2.641178    0.798853   -1.164990
     37          6           0       -0.481724   -1.233451   -1.825532
     38          6           0        0.678793    2.059637   -1.559663
     39          8           0       -0.506256    2.431761   -1.696492
     40          6           0        1.843381    3.026428   -1.357238
     41          6           0        1.942084    3.983759   -2.546813
     42          8           0        2.196911    3.750757   -3.765276
     43          8           0        1.846370    5.248182   -2.045382
     44          6           0        2.002846    6.343182   -3.029428
     45          1           0        8.410622    2.073209    0.847372
     46          1           0        7.678045   -4.273478   -0.048453
     47          1           0        1.428964   -3.322088   -1.300123
     48          1           0        4.762491    4.427016   -1.591323
     49          1           0        6.829455    3.948315    0.648639
     50          1           0        8.250250    4.731799   -0.936004
     51          1           0        6.921148    4.649247   -2.112998
     52          1           0        7.909564    3.341503   -2.113271
     53          1           0        4.033830    4.076891    1.257640
     54          1           0        3.246867    5.026402    0.066099
     55          1           0        5.661984    6.459726    0.188861
     56          1           0        5.305601    5.956678    1.855648
     57          1           0       10.765077   -0.148755    2.221419
     58          1           0       10.409744    1.299619    1.265354
     59          1           0       11.385460   -0.020700    0.523804
     60          1           0       11.963093   -2.013046    0.655426
     61          1           0       12.042984   -3.777418    0.885228
     62          1           0       11.405039   -2.548045    2.194927
     63          1           0        5.635512   -5.673661    0.243297
     64          1           0        3.130188   -5.448190   -1.163939
     65          1           0        5.853612   -6.777178   -1.698593
     66          1           0        6.428663   -5.233698   -2.342067
     67          1           0        4.703217   -5.829581   -2.535503
     68          1           0        2.998833   -6.332020    0.949781
     69          1           0        1.886190   -4.958950    0.741098
     70          1           0        3.473906   -5.121892    2.923385
     71          1           0        2.585115   -3.758732    2.376296
     72          1           0        4.283122   -3.931620    1.954543
     73          1           0       -1.212713   -0.686190   -1.230838
     74          1           0       -0.693114   -2.287452   -1.645428
     75          1           0       -0.702405   -1.072031   -2.880891
     76          1           0        1.611954    3.659332   -0.500039
     77          1           0        3.012476    6.749188   -2.970459
     78          1           0        1.187842    6.984066   -2.693039
     79          1           0        1.721432    6.040073   -4.038724
     80         12           0       -5.164949   -0.656917    0.186569
     81          6           0       -3.109283    2.034452    1.142466
     82          6           0       -7.785902    1.613269   -0.073148
     83          6           0       -7.132493   -3.269014   -0.390747
     84          6           0       -2.627655   -2.925767    1.328911
     85          7           0       -5.420424    1.532536    0.518031
     86          6           0       -4.382858    2.435750    0.788467
     87          6           0       -4.836398    3.837469    0.424787
     88          6           0       -6.384458    3.742654    0.309763
     89          6           0       -6.545279    2.194015    0.241247
     90          6           0       -7.208842    4.477217    1.413187
     91          6           0       -4.132204    4.446499   -0.836952
     92          6           0       -3.968117    6.029444   -0.791272
     93          1           0       -4.546370    6.773558    0.415346
     94          7           0       -7.087194   -0.781707   -0.290094
     95          6           0       -7.987645    0.260955   -0.424976
     96          6           0       -9.250188   -0.217452   -0.909578
     97          6           0       -9.138735   -1.644637   -0.891969
     98          6           0       -7.756021   -1.933610   -0.555801
     99          6           0      -10.477724    0.704842   -1.181108
    100          6           0      -10.191982   -2.668929   -1.161871
    101          8           0       -9.987771   -3.889106   -0.955858
    102          6           0      -11.664158   -2.465957   -1.626671
    103          7           0       -5.036770   -2.783307    0.680587
    104          6           0       -5.952992   -3.661253    0.230440
    105          6           0       -5.402875   -5.107549    0.309578
    106          6           0       -3.981675   -5.011420    0.875895
    107          6           0       -3.850512   -3.425358    0.923872
    108          6           0       -6.366246   -6.035498    0.984699
    109          6           0       -2.856314   -5.701441    0.075414
    110          6           0       -2.677693   -5.203238   -1.379945
    111          7           0       -3.249351   -0.544177    1.129598
    112          6           0       -2.334166   -1.514484    1.359210
    113          6           0       -1.075362   -0.838260    1.668778
    114          6           0       -1.271824    0.568514    1.583126
    115          6           0       -2.650573    0.713456    1.294250
    116          6           0        0.269257   -1.522411    1.900809
    117          6           0       -0.652429    1.849542    1.704598
    118          8           0        0.506815    2.224902    1.858300
    119          6           0       -1.904529    2.921690    1.471844
    120          6           0       -1.970763    3.873847    2.651103
    121          8           0       -2.487837    3.592389    3.714411
    122          8           0       -1.464401    5.108338    2.313317
    123          6           0       -1.084768    6.031209    3.378089
    124          1           0       -8.496160    2.424382   -0.245522
    125          1           0       -7.798103   -4.082279   -0.686470
    126          1           0       -1.861845   -3.677522    1.529561
    127          1           0       -4.590799    4.517824    1.240071
    128          1           0       -6.655507    4.160048   -0.659559
    129          1           0       -7.827801    3.674644    1.812863
    130          1           0       -7.896476    5.195697    0.965421
    131          1           0       -6.693158    4.952974    2.247316
    132          1           0       -4.722867    4.286678   -1.738459
    133          1           0       -3.176156    3.943611   -0.976695
    134          1           0       -4.555881    6.438960   -1.612960
    135          1           0       -2.904854    6.246059   -0.891565
    136          1           0      -11.369320    0.167659   -0.855403
    137          1           0      -10.610476    0.924872   -2.239847
    138          1           0      -10.542289    1.704298   -0.751232
    139          1           0      -11.699029   -1.891486   -2.552775
    140          1           0      -12.286913   -2.013072   -0.855244
    141          1           0      -12.124241   -3.353521   -2.059397
    142          1           0       -5.453312   -5.491051   -0.708673
    143          1           0       -4.084670   -5.287768    1.925833
    144          1           0       -6.916411   -6.660027    0.280617
    145          1           0       -7.043176   -5.467551    1.623105
    146          1           0       -5.903060   -6.721183    1.695077
    147          1           0       -3.182361   -6.741071    0.038253
    148          1           0       -1.912338   -5.630841    0.616622
    149          1           0       -1.656894   -4.824579   -1.427678
    150          1           0       -3.414333   -4.414710   -1.534100
    151          1           0       -2.910631   -5.947428   -2.141695
    152          1           0        1.089931   -1.017144    1.392387
    153          1           0        0.295008   -2.514492    1.450931
    154          1           0        0.405162   -1.643535    2.975850
    155          1           0       -1.597464    3.502867    0.601961
    156          1           0       -1.848567    5.942000    4.151036
    157          1           0       -1.040309    7.079210    3.081545
    158          1           0       -0.078363    5.734499    3.673511
 ---------------------------------------------------------------------

 SCF Done:  E(RCAM-B3LYP) =  -4069.83720974     A.U. after   19 cycles

 Excitation energies and oscillator strengths:

 Excited State   1:      Singlet-A      1.5974 eV  776.15 nm  f=0.9512  <S**2>=0.000
     310 -> 316       -0.11107
     311 -> 313        0.44684
     311 -> 314       -0.12447
     312 -> 313        0.15478
     312 -> 314        0.48805
 This state for optimization and/or second-order correction.
 Total Energy, E(TD-HF/TD-DFT) =  -4069.77850541
 Copying the excited state density for this state as the 1-particle RhoCI density.

 Excited State   2:      Singlet-A      1.6898 eV  733.70 nm  f=0.0142  <S**2>=0.000
     309 -> 315       -0.12541
     310 -> 316        0.11849
     311 -> 313        0.49561
     312 -> 314       -0.46565

 Excited State   3:      Singlet-A      2.1501 eV  576.64 nm  f=0.0308  <S**2>=0.000
     309 -> 313        0.60092
     310 -> 314       -0.25999
     311 -> 315        0.21954

 Excited State   4:      Singlet-A      2.1897 eV  566.22 nm  f=0.2170  <S**2>=0.000
     309 -> 313        0.24329
     310 -> 314        0.60125
     312 -> 316        0.21392

 Excited State   5:      Singlet-A      2.2286 eV  556.33 nm  f=0.0011  <S**2>=0.000
     311 -> 313       -0.17011
     312 -> 313        0.67727

 The electronic state is 1-A.
 Alpha  occ. eigenvalues --  -46.88453 -46.87537 -19.25626 -19.23840 -19.19491
 Alpha  occ. eigenvalues --  -19.19167 -19.18781 -19.18758 -19.18616 -19.18011
 Alpha  occ. eigenvalues --  -14.42273 -14.42062 -14.41978 -14.41025 -14.39847
 Alpha  occ. eigenvalues --  -14.39760 -14.38981 -14.38691 -10.39768 -10.38592
 Alpha  occ. eigenvalues --  -10.35244 -10.35133 -10.34770 -10.34590 -10.31881
 Alpha  occ. eigenvalues --  -10.31679 -10.31276 -10.31181 -10.31159 -10.31139
 Alpha  occ. eigenvalues --  -10.30950 -10.30529 -10.30488 -10.30437 -10.30361
 Alpha  occ. eigenvalues --  -10.30312 -10.30223 -10.30033 -10.30027 -10.29452
 Alpha  occ. eigenvalues --  -10.29120 -10.29082 -10.28619 -10.28612 -10.28591
 Alpha  occ. eigenvalues --  -10.28546 -10.28543 -10.28483 -10.28434 -10.28415
 Alpha  occ. eigenvalues --  -10.28150 -10.28080 -10.27639 -10.27571 -10.27552
 Alpha  occ. eigenvalues --  -10.27526 -10.27495 -10.27378 -10.27349 -10.27343
 Alpha  occ. eigenvalues --  -10.27303 -10.27263 -10.27097 -10.26920 -10.26872
 Alpha  occ. eigenvalues --  -10.26787 -10.26695 -10.26644 -10.26328 -10.26275
 Alpha  occ. eigenvalues --  -10.26244 -10.26076 -10.26032 -10.25936 -10.25775
 Alpha  occ. eigenvalues --  -10.25694 -10.25691 -10.25651 -10.25566 -10.25529
 Alpha  occ. eigenvalues --  -10.25517 -10.25147 -10.24849 -10.24693 -10.24533
 Alpha  occ. eigenvalues --  -10.24486  -3.17025  -3.16276  -1.91895  -1.91481
 Alpha  occ. eigenvalues --   -1.91340  -1.91180  -1.90743  -1.90580  -1.15868
 Alpha  occ. eigenvalues --   -1.15008  -1.10238  -1.09205  -1.08067  -1.08007
 Alpha  occ. eigenvalues --   -1.07009  -1.05635  -1.04899  -1.03875  -1.03015
 Alpha  occ. eigenvalues --   -1.02807  -1.02629  -1.02082  -1.01690  -1.00356
 Alpha  occ. eigenvalues --   -0.92022  -0.91597  -0.89628  -0.89025  -0.88692
 Alpha  occ. eigenvalues --   -0.88343  -0.87825  -0.87726  -0.87142  -0.86979
 Alpha  occ. eigenvalues --   -0.86823  -0.86407  -0.85736  -0.84868  -0.84547
 Alpha  occ. eigenvalues --   -0.83931  -0.83439  -0.82901  -0.82738  -0.82139
 Alpha  occ. eigenvalues --   -0.81701  -0.81266  -0.80555  -0.80236  -0.79858
 Alpha  occ. eigenvalues --   -0.79667  -0.78341  -0.78322  -0.77154  -0.76684
 Alpha  occ. eigenvalues --   -0.76559  -0.76194  -0.75777  -0.75384  -0.75349
 Alpha  occ. eigenvalues --   -0.74606  -0.72577  -0.72103  -0.71765  -0.70704
 Alpha  occ. eigenvalues --   -0.70182  -0.69700  -0.69227  -0.68701  -0.67813
 Alpha  occ. eigenvalues --   -0.67357  -0.66990  -0.66914  -0.64877  -0.64728
 Alpha  occ. eigenvalues --   -0.64494  -0.64284  -0.64067  -0.63923  -0.63689
 Alpha  occ. eigenvalues --   -0.63673  -0.61802  -0.61217  -0.60537  -0.60089
 Alpha  occ. eigenvalues --   -0.59026  -0.58971  -0.58908  -0.58296  -0.58081
 Alpha  occ. eigenvalues --   -0.57696  -0.57492  -0.57227  -0.56942  -0.56444
 Alpha  occ. eigenvalues --   -0.56112  -0.55831  -0.55516  -0.55449  -0.55292
 Alpha  occ. eigenvalues --   -0.55210  -0.54626  -0.54580  -0.54319  -0.54050
 Alpha  occ. eigenvalues --   -0.53573  -0.53304  -0.52935  -0.52896  -0.52758
 Alpha  occ. eigenvalues --   -0.52611  -0.52457  -0.52439  -0.52138  -0.51927
 Alpha  occ. eigenvalues --   -0.51862  -0.51506  -0.51370  -0.50844  -0.50699
 Alpha  occ. eigenvalues --   -0.50601  -0.50531  -0.50433  -0.50136  -0.50068
 Alpha  occ. eigenvalues --   -0.49632  -0.49548  -0.49396  -0.49277  -0.49104
 Alpha  occ. eigenvalues --   -0.48906  -0.48753  -0.48711  -0.48549  -0.48382
 Alpha  occ. eigenvalues --   -0.48349  -0.48280  -0.48011  -0.47871  -0.47713
 Alpha  occ. eigenvalues --   -0.47567  -0.47512  -0.47408  -0.47265  -0.47033
 Alpha  occ. eigenvalues --   -0.46730  -0.46685  -0.46492  -0.46313  -0.45964
 Alpha  occ. eigenvalues --   -0.45813  -0.45774  -0.45682  -0.45591  -0.45436
 Alpha  occ. eigenvalues --   -0.45311  -0.45013  -0.44859  -0.44827  -0.44456
 Alpha  occ. eigenvalues --   -0.44323  -0.44247  -0.44112  -0.43977  -0.43905
 Alpha  occ. eigenvalues --   -0.43679  -0.43664  -0.43549  -0.43340  -0.43063
 Alpha  occ. eigenvalues --   -0.43007  -0.42670  -0.42512  -0.42454  -0.42410
 Alpha  occ. eigenvalues --   -0.42237  -0.42093  -0.41962  -0.41740  -0.41668
 Alpha  occ. eigenvalues --   -0.41581  -0.41313  -0.41255  -0.41155  -0.41039
 Alpha  occ. eigenvalues --   -0.40805  -0.40384  -0.40337  -0.40155  -0.39603
 Alpha  occ. eigenvalues --   -0.39582  -0.39356  -0.38997  -0.38992  -0.38777
 Alpha  occ. eigenvalues --   -0.38581  -0.38318  -0.37307  -0.37135  -0.36990
 Alpha  occ. eigenvalues --   -0.36913  -0.36583  -0.36352  -0.36309  -0.35850
 Alpha  occ. eigenvalues --   -0.35810  -0.35570  -0.34120  -0.33934  -0.33563
 Alpha  occ. eigenvalues --   -0.33321  -0.32867  -0.32624  -0.31308  -0.31119
 Alpha  occ. eigenvalues --   -0.31027  -0.30538  -0.30432  -0.30326  -0.30135
 Alpha  occ. eigenvalues --   -0.29940  -0.29132  -0.28954  -0.24021  -0.23673
 Alpha  occ. eigenvalues --   -0.21308  -0.20929
 Alpha virt. eigenvalues --   -0.09124  -0.08826  -0.01478  -0.00955   0.00308
 Alpha virt. eigenvalues --    0.00450   0.01984   0.02233   0.02561   0.03752
 Alpha virt. eigenvalues --    0.04654   0.05333   0.05677   0.05778   0.05941

 Mulliken charges:
               1
     1  Mg  11.997954
     2  C    6.012159
     3  C    5.992613
     4  C    5.986715
     5  C    6.005421
     6  N    7.003469
     7  C    5.978329
     8  C    6.007600
     9  C    5.994309
    10  C    6.018116
    11  C    5.993935
    12  C    6.002196
    13  C    5.998414
    14  H    1.002590
    15  N    6.993219
    16  C    6.029534
    17  C    6.015484
    18  C    6.012175
    19  C    6.025608
    20  C    5.999971
    21  C    6.008640
    22  O    8.021970
    23  C    5.997082
    24  N    6.999899
    25  C    6.025925
    26  C    5.993951
    27  C    6.001068
    28  C    5.978988
    29  C    5.997606
    30  C    6.005384
    31  C    6.004885
    32  N    7.004605
    33  C    5.965311
    34  C    5.978004
    35  C    5.990990
    36  C    5.974286
    37  C    6.000435
    38  C    5.983348
    39  O    7.978007
    40  C    6.000489
    41  C    5.999380
    42  O    7.998668
    43  O    7.998260
    44  C    6.000170
    45  H    1.009711
    46  H    1.006000
    47  H    0.994591
    48  H    1.001742
    49  H    1.001192
    50  H    1.002784
    51  H    1.010859
    52  H    0.999685
    53  H    0.995916
    54  H    1.003824
    55  H    0.998071
    56  H    0.996901
    57  H    1.012854
    58  H    1.013734
    59  H    1.012938
    60  H    1.005645
    61  H    1.011824
    62  H    1.006165
    63  H    1.001051
    64  H    1.002334
    65  H    1.004359
    66  H    0.997686
    67  H    1.010887
    68  H    0.996315
    69  H    1.000675
    70  H    0.999251
    71  H    0.997116
    72  H    0.990250
    73  H    0.978587
    74  H    0.989619
    75  H    0.996547
    76  H    0.992775
    77  H    0.996310
    78  H    0.999512
    79  H    1.000396
    80  Mg  12.001905
    81  C    5.985705
    82  C    6.001505
    83  C    6.015282
    84  C    5.993480
    85  N    6.992370
    86  C    6.025571
    87  C    5.992949
    88  C    6.009180
    89  C    5.982285
    90  C    5.999205
    91  C    5.996971
    92  C    6.000071
    93  H    1.000828
    94  N    7.005694
    95  C    5.971445
    96  C    5.980221
    97  C    5.989705
    98  C    5.974936
    99  C    6.003109
   100  C    5.993716
   101  O    7.974890
   102  C    6.003657
   103  N    7.005430
   104  C    5.974978
   105  C    6.004321
   106  C    5.993597
   107  C    6.016080
   108  C    6.002922
   109  C    5.997958
   110  C    5.996179
   111  N    6.995860
   112  C    6.029897
   113  C    6.034493
   114  C    6.004983
   115  C    6.028038
   116  C    5.997827
   117  C    6.014306
   118  O    8.020460
   119  C    6.003270
   120  C    6.000645
   121  O    8.001874
   122  O    8.001900
   123  C    5.999666
   124  H    0.987721
   125  H    0.995208
   126  H    1.005518
   127  H    0.998056
   128  H    0.996709
   129  H    1.002924
   130  H    0.996208
   131  H    0.988826
   132  H    1.008382
   133  H    0.999432
   134  H    1.002491
   135  H    0.998114
   136  H    0.986562
   137  H    0.982940
   138  H    0.984255
   139  H    0.993196
   140  H    0.992247
   141  H    0.987851
   142  H    0.999083
   143  H    1.000804
   144  H    0.999844
   145  H    1.001932
   146  H    0.990692
   147  H    1.003915
   148  H    0.995743
   149  H    0.999738
   150  H    1.006464
   151  H    1.002888
   152  H    1.022159
   153  H    1.014821
   154  H    1.008780
   155  H    1.008530
   156  H    1.002119
   157  H    1.002651
   158  H    0.998562
 Sum of Mulliken charges = 624.00000

 Dipole moment (field-independent basis, Debye):
    X=             17.3258    Y=             -0.7512    Z=              3.6457  Tot=             17.7211
 Quadrupole moment (field-independent basis, Debye-Ang):
   XX=             -6.9628   YY=              1.0994   ZZ=              0.4783
   XY=            -20.5103   XZ=             -3.5100   YZ=             -0.9373

 Normal termination of Gaussian 16 at Wed Sep 22 04:30:18 2021.
