 Gaussian 16, Revision A.03,
 Gaussian 16:  ES64L-G16RevA.03 25-Dec-2016

 -----------------------------------
 #p cam-b3lyp/Def2SVP td=(nstates=5)
 -----------------------------------

 --------------------------------
 TDDFT excited states in gaussian
 --------------------------------
 Symbolic Z-matrix:
 Charge =  0 Multiplicity = 1

                         Standard orientation:
 ---------------------------------------------------------------------
 Center     Atomic      Atomic             Coordinates (Angstroms)
 Number     Number       Type             X           Y           Z
 ---------------------------------------------------------------------
      1         12           0       11.541345    0.101282    0.537979
      2          6           0        8.144197   -0.670994   -0.320617
      3          6           0       12.371087   -2.898398   -1.215110
      4          6           0       14.755930    1.045626    0.285958
      5          6           0       10.516339    3.222331    1.489148
      6          7           0       10.372019   -1.517067   -0.633388
      7          6           0        9.025963   -1.635233   -0.822204
      8          6           0        8.661441   -2.923712   -1.639198
      9          6           0       10.025751   -3.757308   -1.518501
     10          6           0       10.993142   -2.635604   -1.175666
     11          6           0       10.030112   -4.809661   -0.433516
     12          6           0        8.110307   -2.626201   -3.023889
     13          6           0        6.871234   -3.433742   -3.490363
     14          1           0        7.027427   -4.678379   -4.482503
     15          7           0       13.404181   -0.856814   -0.273096
     16          6           0       13.497458   -2.134509   -0.863300
     17          6           0       14.909083   -2.418502   -1.149250
     18          6           0       15.628728   -1.259222   -0.657379
     19          6           0       14.632206   -0.280965   -0.277797
     20          6           0       15.461078   -3.611940   -1.833669
     21          6           0       17.129985   -1.144546   -0.570487
     22          8           0       17.791316   -2.135941   -0.782631
     23          6           0       17.870831    0.125864   -0.222266
     24          7           0       12.403908    1.878985    0.733048
     25          6           0       13.793448    1.962451    0.732721
     26          6           0       14.164043    3.408444    1.070443
     27          6           0       12.835772    4.016332    1.652773
     28          6           0       11.853868    2.947658    1.308863
     29          6           0       15.446833    3.663248    1.944125
     30          6           0       12.422988    5.450101    1.198701
     31          6           0       12.170346    6.474536    2.256375
     32          7           0        9.745615    1.073939    0.711012
     33          6           0        9.453061    2.338254    1.191965
     34          6           0        7.999454    2.500020    1.388209
     35          6           0        7.468161    1.326149    0.725713
     36          6           0        8.565318    0.546956    0.346033
     37          6           0        7.221092    3.626500    2.015381
     38          6           0        6.188654    0.641897    0.375466
     39          8           0        5.053269    1.007112    0.488475
     40          6           0        6.616942   -0.596839   -0.404586
     41          6           0        5.989639   -1.790320    0.251782
     42          8           0        6.336380   -2.089951    1.374113
     43          8           0        5.088359   -2.547544   -0.555279
     44          6           0        4.617836   -3.848089    0.010826
     45          1           0       12.663743   -3.833616   -1.697288
     46          1           0       15.748702    1.498689    0.291392
     47          1           0       10.233126    4.154754    1.981327
     48          1           0        7.955346   -3.556995   -1.102859
     49          1           0       10.337239   -4.153272   -2.485015
     50          1           0       10.231737   -4.319646    0.518745
     51          1           0       10.774735   -5.554493   -0.714001
     52          1           0        9.113607   -5.367049   -0.237243
     53          1           0        8.907318   -2.877234   -3.723105
     54          1           0        8.014534   -1.544539   -3.118051
     55          1           0        6.252848   -2.674594   -3.969915
     56          1           0        6.283368   -3.837926   -2.666166
     57          1           0       15.807248   -4.279877   -1.045499
     58          1           0       16.367792   -3.328998   -2.368465
     59          1           0       14.846184   -4.178869   -2.533696
     60          1           0       18.955603    0.073030   -0.312782
     61          1           0       17.633057    0.322071    0.823305
     62          1           0       17.596468    1.056850   -0.716957
     63          1           0       14.459412    3.788286    0.091965
     64          1           0       12.872662    3.928495    2.738191
     65          1           0       15.721244    2.763598    2.495624
     66          1           0       15.298888    4.523257    2.597017
     67          1           0       16.280806    3.960067    1.308507
     68          1           0       11.531366    5.376457    0.576142
     69          1           0       13.178604    5.788712    0.489962
     70          1           0       11.098140    6.656441    2.326698
     71          1           0       12.648739    7.413144    1.976961
     72          1           0       12.502476    6.247131    3.269098
     73          1           0        6.234500    3.290691    2.334051
     74          1           0        7.150913    4.409398    1.259715
     75          1           0        7.834392    4.051523    2.810145
     76          1           0        6.358951   -0.427954   -1.450171
     77          1           0        3.827884   -3.655825    0.737051
     78          1           0        5.417272   -4.345232    0.559828
     79          1           0        4.277222   -4.514405   -0.781472
     80         12           0      -10.859161    0.912216    0.171116
     81          6           0      -11.257106   -2.569454    0.507352
     82          6           0       -7.489331    0.279783   -0.410333
     83          6           0      -10.428777    4.121823   -0.606546
     84          6           0      -14.306379    1.164148   -0.139715
     85          7           0       -9.601875   -1.003686   -0.089460
     86          6           0       -9.912254   -2.315893    0.209987
     87          6           0       -8.725344   -3.235500    0.406460
     88          6           0       -7.513566   -2.312590    0.134317
     89          6           0       -8.193391   -0.934567   -0.156579
     90          6           0       -6.467662   -2.241884    1.319914
     91          6           0       -8.670192   -4.533471   -0.516779
     92          6           0       -9.278895   -4.442435   -1.925607
     93          1           0       -8.312914   -4.325815   -3.141690
     94          7           0       -9.221765    2.015018   -0.403740
     95          6           0       -7.927016    1.597857   -0.527554
     96          6           0       -7.055884    2.746391   -0.813866
     97          6           0       -7.904817    3.893816   -0.872539
     98          6           0       -9.275137    3.348081   -0.627672
     99          6           0       -5.544324    2.639554   -0.976787
    100          6           0       -7.285108    5.286601   -1.265260
    101          8           0       -6.094398    5.325961   -1.542232
    102          6           0       -8.211497    6.569112   -1.383632
    103          7           0      -12.158319    2.360002   -0.417517
    104          6           0      -11.768133    3.691792   -0.538068
    105          6           0      -13.069049    4.657245   -0.732872
    106          6           0      -14.258055    3.551679   -0.718256
    107          6           0      -13.518264    2.292543   -0.399164
    108          6           0      -13.190025    5.734249    0.385154
    109          6           0      -15.079937    3.420987   -2.071649
    110          6           0      -16.613854    3.495517   -2.021135
    111          7           0      -12.515896   -0.390969    0.297774
    112          6           0      -13.862770   -0.183236    0.144706
    113          6           0      -14.556375   -1.481251    0.282616
    114          6           0      -13.528813   -2.425801    0.547886
    115          6           0      -12.311878   -1.690577    0.491701
    116          6           0      -16.028761   -1.756087    0.150805
    117          6           0      -13.299958   -3.869368    0.746827
    118          8           0      -14.066968   -4.828304    0.917113
    119          6           0      -11.791969   -3.962099    0.926189
    120          6           0      -11.413824   -4.398392    2.228057
    121          8           0      -11.410453   -3.620871    3.217378
    122          8           0      -11.028399   -5.753676    2.227238
    123          6           0      -10.458333   -6.310729    3.449732
    124          1           0       -6.403803    0.165401   -0.429070
    125          1           0      -10.311202    5.202954   -0.701123
    126          1           0      -15.382837    1.338146   -0.189975
    127          1           0       -8.824257   -3.526586    1.451521
    128          1           0       -7.121632   -2.625378   -0.832816
    129          1           0       -5.542637   -2.732259    1.016789
    130          1           0       -6.932211   -2.760536    2.158970
    131          1           0       -6.228779   -1.209987    1.579395
    132          1           0       -9.285728   -5.225416    0.059448
    133          1           0       -7.646465   -4.907446   -0.544204
    134          1           0       -9.975888   -3.606157   -1.989213
    135          1           0       -9.918490   -5.311621   -2.073229
    136          1           0       -5.191510    2.683850   -2.007180
    137          1           0       -5.141863    1.824387   -0.375302
    138          1           0       -5.042338    3.460214   -0.464615
    139          1           0       -8.828275    6.595257   -0.484978
    140          1           0       -8.815155    6.451298   -2.283138
    141          1           0       -7.674679    7.481328   -1.643994
    142          1           0      -12.883025    5.224929   -1.644105
    143          1           0      -14.901443    3.791402    0.128619
    144          1           0      -13.855935    5.335567    1.150191
    145          1           0      -13.491780    6.709420    0.002767
    146          1           0      -12.242660    5.995603    0.856347
    147          1           0      -14.750348    2.495892   -2.545675
    148          1           0      -14.716152    4.286541   -2.625329
    149          1           0      -17.074700    3.058617   -2.907474
    150          1           0      -16.789911    4.569971   -1.974811
    151          1           0      -16.876160    2.946727   -1.116388
    152          1           0      -16.387144   -0.960827   -0.502262
    153          1           0      -16.390067   -1.563179    1.160910
    154          1           0      -16.289518   -2.777888   -0.126495
    155          1           0      -11.532056   -4.697413    0.165024
    156          1           0      -11.107313   -6.371520    4.323401
    157          1           0       -9.570611   -5.746297    3.736664
    158          1           0      -10.012059   -7.265549    3.171295
 ---------------------------------------------------------------------

 SCF Done:  E(RCAM-B3LYP) =  -4069.80112607     A.U. after   18 cycles

 Excitation energies and oscillator strengths:

 Excited State   1:      Singlet-A      1.6706 eV  742.15 nm  f=0.4358  <S**2>=0.000
     309 -> 316        0.16807
     311 -> 313        0.68420
     309 <- 316        0.10588
 This state for optimization and/or second-order correction.
 Total Energy, E(TD-HF/TD-DFT) =  -4069.73973257
 Copying the excited state density for this state as the 1-particle RhoCI density.

 Excited State   2:      Singlet-A      1.7192 eV  721.17 nm  f=0.3527  <S**2>=0.000
     310 -> 315        0.18042
     312 -> 314        0.68055
     310 <- 315        0.10720

 Excited State   3:      Singlet-A      2.2360 eV  554.48 nm  f=0.1277  <S**2>=0.000
     309 -> 313        0.64110
     311 -> 316       -0.28146

 Excited State   4:      Singlet-A      2.3109 eV  536.53 nm  f=0.0713  <S**2>=0.000
     310 -> 314        0.61616
     312 -> 315       -0.33602

 Excited State   5:      Singlet-A      2.7611 eV  449.04 nm  f=0.0000  <S**2>=0.000
     312 -> 313        0.70697

 The electronic state is 1-A.
 Alpha  occ. eigenvalues --  -46.89342 -46.88844 -19.25733 -19.25314 -19.20776
 Alpha  occ. eigenvalues --  -19.20171 -19.19748 -19.19508 -19.19119 -19.17999
 Alpha  occ. eigenvalues --  -14.42778 -14.42554 -14.42002 -14.41732 -14.39871
 Alpha  occ. eigenvalues --  -14.39355 -14.39234 -14.39174 -10.40266 -10.39959
 Alpha  occ. eigenvalues --  -10.36389 -10.35430 -10.35278 -10.34527 -10.32343
 Alpha  occ. eigenvalues --  -10.32064 -10.31805 -10.31401 -10.31316 -10.31268
 Alpha  occ. eigenvalues --  -10.30855 -10.30715 -10.30555 -10.30530 -10.30498
 Alpha  occ. eigenvalues --  -10.30297 -10.30250 -10.30001 -10.29754 -10.29506
 Alpha  occ. eigenvalues --  -10.29255 -10.29231 -10.29123 -10.28938 -10.28863
 Alpha  occ. eigenvalues --  -10.28683 -10.28655 -10.28572 -10.28376 -10.28274
 Alpha  occ. eigenvalues --  -10.28237 -10.28225 -10.28222 -10.28072 -10.28018
 Alpha  occ. eigenvalues --  -10.27947 -10.27817 -10.27689 -10.27661 -10.27613
 Alpha  occ. eigenvalues --  -10.27373 -10.27323 -10.27239 -10.27063 -10.27047
 Alpha  occ. eigenvalues --  -10.27028 -10.26942 -10.26693 -10.26650 -10.26578
 Alpha  occ. eigenvalues --  -10.26575 -10.26539 -10.26536 -10.26520 -10.26507
 Alpha  occ. eigenvalues --  -10.26499 -10.26329 -10.26078 -10.26000 -10.25906
 Alpha  occ. eigenvalues --  -10.25792 -10.25740 -10.25549 -10.25387 -10.25305
 Alpha  occ. eigenvalues --  -10.25092  -3.17912  -3.17470  -1.92760  -1.92372
 Alpha  occ. eigenvalues --   -1.92328  -1.92219  -1.91941  -1.91774  -1.15418
 Alpha  occ. eigenvalues --   -1.14911  -1.11749  -1.10307  -1.10229  -1.08985
 Alpha  occ. eigenvalues --   -1.07921  -1.06959  -1.04611  -1.04064  -1.03596
 Alpha  occ. eigenvalues --   -1.03462  -1.02795  -1.02533  -1.01797  -1.01528
 Alpha  occ. eigenvalues --   -0.93056  -0.92779  -0.89421  -0.89089  -0.88910
 Alpha  occ. eigenvalues --   -0.88767  -0.88474  -0.87972  -0.87635  -0.86726
 Alpha  occ. eigenvalues --   -0.86245  -0.85996  -0.85666  -0.85463  -0.84514
 Alpha  occ. eigenvalues --   -0.84447  -0.83976  -0.83845  -0.82727  -0.82518
 Alpha  occ. eigenvalues --   -0.81862  -0.81577  -0.80924  -0.80586  -0.80229
 Alpha  occ. eigenvalues --   -0.80002  -0.78187  -0.78100  -0.77512  -0.77130
 Alpha  occ. eigenvalues --   -0.76827  -0.76671  -0.76448  -0.76377  -0.75243
 Alpha  occ. eigenvalues --   -0.74812  -0.72664  -0.72250  -0.71801  -0.71668
 Alpha  occ. eigenvalues --   -0.69562  -0.69216  -0.68961  -0.68841  -0.68364
 Alpha  occ. eigenvalues --   -0.67947  -0.66734  -0.66722  -0.65960  -0.65709
 Alpha  occ. eigenvalues --   -0.65120  -0.65101  -0.64565  -0.64499  -0.64338
 Alpha  occ. eigenvalues --   -0.64120  -0.62370  -0.62364  -0.60148  -0.59816
 Alpha  occ. eigenvalues --   -0.59586  -0.59545  -0.59212  -0.59095  -0.58988
 Alpha  occ. eigenvalues --   -0.58571  -0.58347  -0.57665  -0.57660  -0.57095
 Alpha  occ. eigenvalues --   -0.56554  -0.56056  -0.55690  -0.55528  -0.55455
 Alpha  occ. eigenvalues --   -0.54867  -0.54361  -0.54361  -0.54114  -0.53905
 Alpha  occ. eigenvalues --   -0.53696  -0.53396  -0.53111  -0.53011  -0.52976
 Alpha  occ. eigenvalues --   -0.52549  -0.52268  -0.52257  -0.52045  -0.51861
 Alpha  occ. eigenvalues --   -0.51746  -0.51485  -0.51340  -0.51120  -0.51106
 Alpha  occ. eigenvalues --   -0.50951  -0.50865  -0.50622  -0.50454  -0.50220
 Alpha  occ. eigenvalues --   -0.49961  -0.49896  -0.49888  -0.49764  -0.49319
 Alpha  occ. eigenvalues --   -0.49282  -0.49273  -0.49166  -0.49128  -0.48877
 Alpha  occ. eigenvalues --   -0.48724  -0.48616  -0.48502  -0.48248  -0.48213
 Alpha  occ. eigenvalues --   -0.48055  -0.47707  -0.47290  -0.47102  -0.47094
 Alpha  occ. eigenvalues --   -0.46991  -0.46535  -0.46445  -0.46412  -0.46360
 Alpha  occ. eigenvalues --   -0.46202  -0.46160  -0.46072  -0.46070  -0.45996
 Alpha  occ. eigenvalues --   -0.45846  -0.45684  -0.45294  -0.45276  -0.44983
 Alpha  occ. eigenvalues --   -0.44877  -0.44709  -0.44684  -0.44534  -0.44481
 Alpha  occ. eigenvalues --   -0.44085  -0.43839  -0.43794  -0.43640  -0.43470
 Alpha  occ. eigenvalues --   -0.43325  -0.43149  -0.42959  -0.42918  -0.42835
 Alpha  occ. eigenvalues --   -0.42658  -0.42582  -0.42574  -0.42473  -0.42312
 Alpha  occ. eigenvalues --   -0.42178  -0.42011  -0.41936  -0.41568  -0.41482
 Alpha  occ. eigenvalues --   -0.41138  -0.40976  -0.40855  -0.40591  -0.40528
 Alpha  occ. eigenvalues --   -0.40282  -0.40195  -0.39789  -0.39616  -0.39304
 Alpha  occ. eigenvalues --   -0.38826  -0.38497  -0.37722  -0.37565  -0.37425
 Alpha  occ. eigenvalues --   -0.37361  -0.37206  -0.37001  -0.36930  -0.36556
 Alpha  occ. eigenvalues --   -0.36533  -0.35848  -0.35092  -0.34671  -0.34419
 Alpha  occ. eigenvalues --   -0.34340  -0.33202  -0.33109  -0.31626  -0.31310
 Alpha  occ. eigenvalues --   -0.31129  -0.31111  -0.30893  -0.30510  -0.30160
 Alpha  occ. eigenvalues --   -0.29692  -0.29518  -0.28758  -0.24327  -0.24054
 Alpha  occ. eigenvalues --   -0.21144  -0.20741
 Alpha virt. eigenvalues --   -0.09005  -0.08092  -0.01717  -0.01516   0.00367
 Alpha virt. eigenvalues --    0.00446   0.01222   0.01739   0.02149   0.02616
 Alpha virt. eigenvalues --    0.03511   0.04353   0.04370   0.05111   0.05301

 Mulliken charges:
               1
     1  Mg   0.850168
     2  C   -0.068775
     3  C   -0.046603
     4  C   -0.070104
     5  C   -0.117680
     6  N   -0.248513
     7  C   -0.056124
     8  C   -0.029281
     9  C   -0.067555
    10  C    0.027906
    11  C    0.088729
    12  C    0.079520
    13  C   -0.054243
    14  H    0.008667
    15  N   -0.346056
    16  C    0.095273
    17  C   -0.125943
    18  C   -0.029123
    19  C    0.139836
    20  C    0.130520
    21  C   -0.009054
    22  O   -0.204444
    23  C    0.048529
    24  N   -0.372409
    25  C    0.069181
    26  C   -0.081027
    27  C    0.022193
    28  C    0.057889
    29  C    0.063531
    30  C    0.049653
    31  C    0.008680
    32  N   -0.354590
    33  C    0.126931
    34  C   -0.180964
    35  C   -0.063947
    36  C    0.147797
    37  C    0.135465
    38  C    0.053032
    39  O   -0.136265
    40  C    0.059748
    41  C    0.212767
    42  O   -0.206878
    43  O   -0.375190
    44  C    0.175556
    45  H   -0.030928
    46  H   -0.056648
    47  H   -0.037219
    48  H    0.003751
    49  H    0.001876
    50  H    0.021972
    51  H    0.020358
    52  H    0.014186
    53  H    0.012617
    54  H    0.016861
    55  H    0.032773
    56  H    0.026922
    57  H    0.030793
    58  H    0.030848
    59  H    0.014440
    60  H    0.024115
    61  H    0.029749
    62  H    0.037112
    63  H    0.024882
    64  H    0.007118
    65  H    0.023761
    66  H    0.015828
    67  H    0.009121
    68  H    0.014526
    69  H   -0.000336
    70  H    0.015787
    71  H    0.013781
    72  H    0.015150
    73  H    0.047875
    74  H    0.030865
    75  H    0.013015
    76  H    0.042189
    77  H    0.044061
    78  H    0.034886
    79  H    0.047109
    80  Mg   0.851526
    81  C   -0.100106
    82  C   -0.078223
    83  C   -0.099297
    84  C   -0.089087
    85  N   -0.279395
    86  C   -0.081331
    87  C   -0.019182
    88  C   -0.002918
    89  C   -0.000086
    90  C    0.073884
    91  C    0.027105
    92  C   -0.064813
    93  H    0.020764
    94  N   -0.362194
    95  C    0.140189
    96  C   -0.140503
    97  C   -0.078438
    98  C    0.187370
    99  C    0.142334
   100  C    0.026600
   101  O   -0.196542
   102  C    0.035334
   103  N   -0.347410
   104  C    0.055925
   105  C   -0.054247
   106  C   -0.028338
   107  C    0.061037
   108  C    0.055252
   109  C    0.021473
   110  C    0.018565
   111  N   -0.317826
   112  C    0.107093
   113  C   -0.195459
   114  C   -0.057976
   115  C    0.233536
   116  C    0.136005
   117  C    0.071664
   118  O   -0.182412
   119  C    0.008149
   120  C    0.252113
   121  O   -0.249944
   122  O   -0.351404
   123  C    0.193092
   124  H   -0.032521
   125  H   -0.058040
   126  H   -0.041464
   127  H    0.023559
   128  H    0.018853
   129  H    0.021458
   130  H    0.018577
   131  H    0.026726
   132  H    0.015553
   133  H    0.022815
   134  H    0.041967
   135  H    0.032913
   136  H    0.040774
   137  H    0.002693
   138  H    0.021611
   139  H    0.054557
   140  H    0.038505
   141  H    0.026041
   142  H    0.018294
   143  H    0.011581
   144  H    0.016574
   145  H    0.015862
   146  H    0.011170
   147  H    0.024233
   148  H    0.000103
   149  H    0.028227
   150  H    0.019542
   151  H    0.018962
   152  H    0.013549
   153  H    0.031282
   154  H    0.042666
   155  H    0.030400
   156  H    0.050825
   157  H    0.016715
   158  H    0.033559
 Sum of Mulliken charges =  -0.00000

 Dipole moment (field-independent basis, Debye):
    X=              1.6530    Y=              3.8869    Z=              0.8239  Tot=              4.3034
 Quadrupole moment (field-independent basis, Debye-Ang):
   XX=           -545.0763   YY=           -472.0534   ZZ=           -516.4731
   XY=            -21.3470   XZ=             29.3067   YZ=              7.1035

 Normal termination of Gaussian 16 at Wed Sep  1 21:31:00 2021.
