 Gaussian 16, Revision A.03,
 Gaussian 16:  ES64L-G16RevA.03 25-Dec-2016

 -----------------------------------
 #p cam-b3lyp/Def2SVP td=(nstates=5)
 -----------------------------------

 --------------------------------
 TDDFT excited states in gaussian
 --------------------------------
 Symbolic Z-matrix:
 Charge =  0 Multiplicity = 1

                         Standard orientation:
 ---------------------------------------------------------------------
 Center     Atomic      Atomic             Coordinates (Angstroms)
 Number     Number       Type             X           Y           Z
 ---------------------------------------------------------------------
      1         12           0       17.051923   -0.466005    0.380642
      2          6           0       15.592045    2.010913   -1.467483
      3          6           0       18.389527    1.765580    2.462264
      4          6           0       18.540421   -2.952899    1.871370
      5          6           0       16.079253   -2.685440   -2.232895
      6          7           0       17.142857    1.702311    0.395069
      7          6           0       16.255577    2.460290   -0.296464
      8          6           0       16.102790    3.831729    0.302271
      9          6           0       17.240825    3.804648    1.399967
     10          6           0       17.695147    2.361220    1.383103
     11          6           0       18.368287    4.843238    1.187545
     12          6           0       14.576406    4.183036    0.816203
     13          6           0       13.964064    5.537139    0.426732
     14          1           0       14.959111    6.693454    0.095497
     15          7           0       18.103895   -0.592116    1.983324
     16          6           0       18.598021    0.411203    2.754615
     17          6           0       19.482523   -0.053502    3.795256
     18          6           0       19.372318   -1.410850    3.763522
     19          6           0       18.747820   -1.696537    2.434529
     20          6           0       20.258482    0.998270    4.566770
     21          6           0       19.961034   -2.451433    4.736774
     22          8           0       19.860609   -3.647534    4.591933
     23          6           0       20.716860   -1.850057    5.884664
     24          7           0       17.402061   -2.502624   -0.239885
     25          6           0       17.953120   -3.326189    0.669861
     26          6           0       17.906915   -4.780312    0.190132
     27          6           0       16.845314   -4.734614   -0.960818
     28          6           0       16.775260   -3.211720   -1.195632
     29          6           0       19.266984   -5.477036   -0.241743
     30          6           0       15.408939   -5.277657   -0.610022
     31          6           0       14.569336   -4.705567    0.501742
     32          7           0       15.972586   -0.467313   -1.454110
     33          6           0       15.722740   -1.401298   -2.464752
     34          6           0       14.967112   -0.807649   -3.575150
     35          6           0       14.882488    0.546656   -3.218871
     36          6           0       15.505546    0.659395   -1.936182
     37          6           0       14.370822   -1.497227   -4.775335
     38          6           0       14.432133    1.804696   -3.605845
     39          8           0       13.879082    2.220261   -4.612094
     40          6           0       14.653130    2.758776   -2.403576
     41          6           0       15.255736    3.948738   -3.046967
     42          8           0       16.437913    4.059943   -3.380606
     43          8           0       14.306958    4.885970   -3.337004
     44          6           0       14.640849    5.996308   -4.234654
     45          1           0       18.646381    2.501080    3.227751
     46          1           0       18.964203   -3.840804    2.343611
     47          1           0       15.812324   -3.481461   -2.932224
     48          1           0       16.419684    4.597469   -0.405852
     49          1           0       16.787001    3.952095    2.379728
     50          1           0       19.245700    4.333961    0.789132
     51          1           0       18.631516    5.269284    2.155698
     52          1           0       17.983478    5.576400    0.478573
     53          1           0       14.630282    4.114003    1.902748
     54          1           0       13.865827    3.455119    0.425925
     55          1           0       13.405860    5.952538    1.265329
     56          1           0       13.227490    5.394770   -0.363931
     57          1           0       20.936649    1.606313    3.967839
     58          1           0       21.028273    0.704642    5.280176
     59          1           0       19.445528    1.528335    5.063034
     60          1           0       20.087386   -1.152402    6.436554
     61          1           0       21.595897   -1.445845    5.383088
     62          1           0       21.046040   -2.499417    6.695095
     63          1           0       17.572432   -5.296121    1.090928
     64          1           0       17.281209   -5.181300   -1.854720
     65          1           0       20.090282   -4.774611   -0.114069
     66          1           0       19.276646   -5.673381   -1.313213
     67          1           0       19.505479   -6.423304    0.246235
     68          1           0       15.655039   -6.323440   -0.424204
     69          1           0       14.731226   -5.228546   -1.461714
     70          1           0       15.168513   -4.008383    1.088880
     71          1           0       14.250985   -5.493482    1.184173
     72          1           0       13.705994   -4.111626    0.202449
     73          1           0       14.913215   -1.276442   -5.693595
     74          1           0       13.325840   -1.206862   -4.885285
     75          1           0       14.543143   -2.552051   -4.559974
     76          1           0       13.728228    2.946835   -1.858024
     77          1           0       13.760793    6.397121   -4.738982
     78          1           0       15.485404    5.759496   -4.879954
     79          1           0       15.075717    6.844582   -3.706366
     80         12           0      -16.507174   -0.942212   -0.109778
     81          6           0      -18.650902    1.828089    0.970620
     82          6           0      -13.899404    1.395456   -0.213588
     83          6           0      -14.619915   -3.260581   -1.410163
     84          6           0      -19.161332   -3.085822    0.239948
     85          7           0      -16.347859    1.352260    0.121782
     86          6           0      -17.313687    2.282196    0.693883
     87          6           0      -16.785818    3.727113    0.823439
     88          6           0      -15.282284    3.513686    0.211610
     89          6           0      -15.124429    1.995798   -0.004403
     90          6           0      -15.011250    4.323275   -1.041553
     91          6           0      -16.898112    4.222740    2.296961
     92          6           0      -16.151974    5.485135    2.608609
     93          1           0      -16.811603    6.561171    3.442100
     94          7           0      -14.507523   -0.959580   -0.767334
     95          6           0      -13.584821    0.091798   -0.724787
     96          6           0      -12.289287   -0.370094   -1.219694
     97          6           0      -12.471117   -1.767710   -1.581002
     98          6           0      -13.911896   -2.090763   -1.266520
     99          6           0      -10.972393    0.489524   -1.237987
    100          6           0      -11.542165   -2.755227   -2.189974
    101          8           0      -11.814259   -3.926324   -2.418544
    102          6           0      -10.142301   -2.383817   -2.456065
    103          7           0      -16.798698   -2.859168   -0.431207
    104          6           0      -15.921398   -3.613956   -1.095239
    105          6           0      -16.414617   -5.065978   -1.296954
    106          6           0      -17.629256   -5.087280   -0.392389
    107          6           0      -17.949318   -3.552409   -0.215305
    108          6           0      -16.745166   -5.393494   -2.748505
    109          6           0      -17.642108   -5.781244    0.945024
    110          6           0      -16.674316   -5.203769    1.955681
    111          7           0      -18.518725   -0.713326    0.379123
    112          6           0      -19.463751   -1.736468    0.575491
    113          6           0      -20.711540   -1.144975    0.991443
    114          6           0      -20.352044    0.210196    1.207857
    115          6           0      -19.020526    0.441697    0.813255
    116          6           0      -22.004776   -1.826537    1.331384
    117          6           0      -20.932355    1.481717    1.740382
    118          8           0      -22.027847    1.711888    2.295774
    119          6           0      -19.845754    2.539131    1.558441
    120          6           0      -20.385927    3.708335    0.732313
    121          8           0      -20.784594    3.745644   -0.469166
    122          8           0      -20.235629    4.831125    1.491335
    123          6           0      -20.623759    6.103152    0.840829
    124          1           0      -13.056969    2.069459   -0.050715
    125          1           0      -14.026571   -4.033870   -1.902428
    126          1           0      -20.055319   -3.703583    0.348783
    127          1           0      -17.481726    4.334553    0.244869
    128          1           0      -14.552420    3.720920    0.994230
    129          1           0      -14.154504    4.971549   -0.855415
    130          1           0      -15.896438    4.936592   -1.206249
    131          1           0      -15.022656    3.795832   -1.995129
    132          1           0      -16.647202    3.358930    2.913549
    133          1           0      -17.949611    4.403019    2.520791
    134          1           0      -15.837279    6.095828    1.762683
    135          1           0      -15.283411    5.244204    3.220837
    136          1           0      -10.290305   -0.038497   -0.570988
    137          1           0      -11.110678    1.503941   -0.864215
    138          1           0      -10.626017    0.489236   -2.271566
    139          1           0      -10.025362   -1.397186   -2.904853
    140          1           0       -9.806699   -3.146588   -3.157789
    141          1           0       -9.709255   -2.282700   -1.461368
    142          1           0      -15.607604   -5.723120   -0.972727
    143          1           0      -18.483943   -5.571459   -0.865647
    144          1           0      -16.391049   -6.401056   -2.963423
    145          1           0      -16.253778   -4.701282   -3.431400
    146          1           0      -17.824809   -5.474167   -2.879881
    147          1           0      -17.501409   -6.848009    0.768754
    148          1           0      -18.589870   -5.620766    1.458659
    149          1           0      -16.107848   -5.980077    2.468724
    150          1           0      -17.176449   -4.668778    2.762061
    151          1           0      -15.928840   -4.531349    1.530974
    152          1           0      -22.339713   -1.503672    2.316816
    153          1           0      -22.075040   -2.914170    1.344008
    154          1           0      -22.736256   -1.499566    0.592084
    155          1           0      -19.618806    2.962240    2.537414
    156          1           0      -19.733225    6.621416    0.485833
    157          1           0      -21.164524    6.554702    1.672573
    158          1           0      -21.375334    5.961380    0.063151
 ---------------------------------------------------------------------

 SCF Done:  E(RCAM-B3LYP) =  -4069.81350704     A.U. after   19 cycles

 Excitation energies and oscillator strengths:

 Excited State   1:      Singlet-A      1.6631 eV  745.51 nm  f=0.4038  <S**2>=0.000
     309 -> 316       -0.16581
     311 -> 313        0.68881
     309 <- 316       -0.10533
 This state for optimization and/or second-order correction.
 Total Energy, E(TD-HF/TD-DFT) =  -4069.75239042
 Copying the excited state density for this state as the 1-particle RhoCI density.

 Excited State   2:      Singlet-A      1.7685 eV  701.08 nm  f=0.3734  <S**2>=0.000
     310 -> 315        0.19165
     312 -> 314        0.68178
     310 <- 315        0.10599

 Excited State   3:      Singlet-A      2.1714 eV  571.00 nm  f=0.1369  <S**2>=0.000
     309 -> 313        0.65260
     311 -> 316        0.25470

 Excited State   4:      Singlet-A      2.2758 eV  544.80 nm  f=0.0579  <S**2>=0.000
     310 -> 314        0.61593
     312 -> 315       -0.33786

 Excited State   5:      Singlet-A      2.8069 eV  441.71 nm  f=0.0000  <S**2>=0.000
     312 -> 313        0.70709

 The electronic state is 1-A.
 Alpha  occ. eigenvalues --  -46.88011 -46.87759 -19.25762 -19.23969 -19.19985
 Alpha  occ. eigenvalues --  -19.19636 -19.18766 -19.18471 -19.18395 -19.17706
 Alpha  occ. eigenvalues --  -14.42503 -14.42168 -14.41763 -14.41113 -14.40054
 Alpha  occ. eigenvalues --  -14.39961 -14.38865 -14.38804 -10.39957 -10.38311
 Alpha  occ. eigenvalues --  -10.36015 -10.34738 -10.34653 -10.33602 -10.31977
 Alpha  occ. eigenvalues --  -10.31913 -10.31504 -10.31375 -10.31098 -10.30882
 Alpha  occ. eigenvalues --  -10.30715 -10.30696 -10.30639 -10.30620 -10.30506
 Alpha  occ. eigenvalues --  -10.30472 -10.30296 -10.30189 -10.29267 -10.29095
 Alpha  occ. eigenvalues --  -10.29018 -10.28980 -10.28967 -10.28961 -10.28882
 Alpha  occ. eigenvalues --  -10.28823 -10.28770 -10.28657 -10.28603 -10.28590
 Alpha  occ. eigenvalues --  -10.28254 -10.28117 -10.27904 -10.27884 -10.27864
 Alpha  occ. eigenvalues --  -10.27824 -10.27797 -10.27643 -10.27610 -10.27545
 Alpha  occ. eigenvalues --  -10.27536 -10.27512 -10.27390 -10.27384 -10.27295
 Alpha  occ. eigenvalues --  -10.27011 -10.26973 -10.26844 -10.26570 -10.26548
 Alpha  occ. eigenvalues --  -10.26315 -10.26285 -10.26091 -10.26087 -10.25954
 Alpha  occ. eigenvalues --  -10.25903 -10.25825 -10.25737 -10.25724 -10.25631
 Alpha  occ. eigenvalues --  -10.25616 -10.25270 -10.25107 -10.24707 -10.24568
 Alpha  occ. eigenvalues --  -10.24114  -3.16866  -3.16500  -1.91731  -1.91405
 Alpha  occ. eigenvalues --   -1.91335  -1.91199  -1.90966  -1.90802  -1.16005
 Alpha  occ. eigenvalues --   -1.14900  -1.11578  -1.10386  -1.09058  -1.07807
 Alpha  occ. eigenvalues --   -1.05977  -1.05765  -1.05642  -1.05055  -1.04752
 Alpha  occ. eigenvalues --   -1.04165  -1.03049  -1.02828  -1.02274  -1.00611
 Alpha  occ. eigenvalues --   -0.92395  -0.92310  -0.89698  -0.89681  -0.88864
 Alpha  occ. eigenvalues --   -0.88702  -0.88473  -0.88081  -0.88011  -0.87520
 Alpha  occ. eigenvalues --   -0.87326  -0.87004  -0.86611  -0.85885  -0.84775
 Alpha  occ. eigenvalues --   -0.84429  -0.84058  -0.83637  -0.82946  -0.82761
 Alpha  occ. eigenvalues --   -0.82659  -0.82302  -0.81425  -0.81118  -0.80580
 Alpha  occ. eigenvalues --   -0.80081  -0.79076  -0.78524  -0.77517  -0.77278
 Alpha  occ. eigenvalues --   -0.77037  -0.76816  -0.75971  -0.75757  -0.75503
 Alpha  occ. eigenvalues --   -0.75261  -0.72767  -0.72694  -0.71957  -0.71739
 Alpha  occ. eigenvalues --   -0.70303  -0.69695  -0.69452  -0.69082  -0.68206
 Alpha  occ. eigenvalues --   -0.67640  -0.67371  -0.67147  -0.65472  -0.65068
 Alpha  occ. eigenvalues --   -0.65026  -0.64799  -0.64667  -0.64333  -0.63828
 Alpha  occ. eigenvalues --   -0.63815  -0.61946  -0.61769  -0.61169  -0.60233
 Alpha  occ. eigenvalues --   -0.59373  -0.59338  -0.59167  -0.59086  -0.58328
 Alpha  occ. eigenvalues --   -0.57984  -0.57856  -0.57724  -0.57602  -0.57405
 Alpha  occ. eigenvalues --   -0.56356  -0.56286  -0.55994  -0.55486  -0.55371
 Alpha  occ. eigenvalues --   -0.55306  -0.55171  -0.54810  -0.54722  -0.54469
 Alpha  occ. eigenvalues --   -0.54295  -0.53691  -0.53464  -0.53261  -0.53078
 Alpha  occ. eigenvalues --   -0.52733  -0.52678  -0.52674  -0.52504  -0.52495
 Alpha  occ. eigenvalues --   -0.52349  -0.52134  -0.51684  -0.51312  -0.51151
 Alpha  occ. eigenvalues --   -0.50837  -0.50735  -0.50666  -0.50515  -0.50391
 Alpha  occ. eigenvalues --   -0.50286  -0.50191  -0.49798  -0.49552  -0.49524
 Alpha  occ. eigenvalues --   -0.49388  -0.49147  -0.48847  -0.48830  -0.48817
 Alpha  occ. eigenvalues --   -0.48624  -0.48548  -0.48453  -0.48117  -0.48082
 Alpha  occ. eigenvalues --   -0.48064  -0.47839  -0.47722  -0.47570  -0.47223
 Alpha  occ. eigenvalues --   -0.47025  -0.46850  -0.46762  -0.46713  -0.46566
 Alpha  occ. eigenvalues --   -0.46526  -0.46159  -0.46005  -0.45761  -0.45707
 Alpha  occ. eigenvalues --   -0.45534  -0.45446  -0.45303  -0.44949  -0.44883
 Alpha  occ. eigenvalues --   -0.44565  -0.44538  -0.44359  -0.44187  -0.44171
 Alpha  occ. eigenvalues --   -0.43980  -0.43966  -0.43885  -0.43514  -0.43494
 Alpha  occ. eigenvalues --   -0.43226  -0.43186  -0.42962  -0.42902  -0.42639
 Alpha  occ. eigenvalues --   -0.42509  -0.42489  -0.42206  -0.42192  -0.41901
 Alpha  occ. eigenvalues --   -0.41856  -0.41759  -0.41629  -0.41306  -0.41209
 Alpha  occ. eigenvalues --   -0.41113  -0.40960  -0.40803  -0.40577  -0.40468
 Alpha  occ. eigenvalues --   -0.39959  -0.39644  -0.39259  -0.39234  -0.39110
 Alpha  occ. eigenvalues --   -0.38900  -0.38520  -0.38248  -0.37336  -0.37134
 Alpha  occ. eigenvalues --   -0.37062  -0.36772  -0.36527  -0.36502  -0.36328
 Alpha  occ. eigenvalues --   -0.36116  -0.35209  -0.34411  -0.34309  -0.34101
 Alpha  occ. eigenvalues --   -0.33333  -0.33074  -0.32994  -0.32546  -0.31518
 Alpha  occ. eigenvalues --   -0.31413  -0.31272  -0.30770  -0.30405  -0.30321
 Alpha  occ. eigenvalues --   -0.30146  -0.29765  -0.29178  -0.24255  -0.23866
 Alpha  occ. eigenvalues --   -0.21482  -0.20661
 Alpha virt. eigenvalues --   -0.09298  -0.07881  -0.01805  -0.01666   0.00170
 Alpha virt. eigenvalues --    0.00326   0.02185   0.02221   0.02969   0.03360
 Alpha virt. eigenvalues --    0.04504   0.04964   0.05155   0.05730   0.06056

 Mulliken charges:
               1
     1  Mg   0.850576
     2  C    0.012149
     3  C   -0.109463
     4  C   -0.070331
     5  C   -0.108760
     6  N   -0.257952
     7  C   -0.051828
     8  C   -0.000860
     9  C   -0.101401
    10  C    0.045309
    11  C    0.094738
    12  C    0.048947
    13  C   -0.072541
    14  H    0.013056
    15  N   -0.419493
    16  C    0.163747
    17  C   -0.108876
    18  C   -0.091232
    19  C    0.161860
    20  C    0.094034
    21  C    0.026227
    22  O   -0.168411
    23  C    0.036203
    24  N   -0.251383
    25  C    0.003055
    26  C   -0.036978
    27  C    0.001951
    28  C   -0.034609
    29  C    0.070300
    30  C    0.035386
    31  C    0.008543
    32  N   -0.312645
    33  C    0.155290
    34  C   -0.183104
    35  C    0.078786
    36  C    0.062731
    37  C    0.144280
    38  C   -0.022497
    39  O   -0.177613
    40  C    0.001657
    41  C    0.195352
    42  O   -0.239388
    43  O   -0.323747
    44  C    0.190500
    45  H   -0.033049
    46  H   -0.010505
    47  H   -0.035007
    48  H    0.022048
    49  H    0.005848
    50  H    0.023484
    51  H    0.016559
    52  H    0.024980
    53  H    0.008922
    54  H    0.018077
    55  H    0.025857
    56  H    0.039999
    57  H    0.037408
    58  H    0.007480
    59  H    0.045203
    60  H    0.040679
    61  H    0.049212
    62  H    0.021328
    63  H    0.008521
    64  H    0.002589
    65  H    0.016695
    66  H    0.005104
    67  H    0.028260
    68  H    0.006623
    69  H    0.007627
    70  H    0.009849
    71  H    0.017914
    72  H    0.021273
    73  H    0.036346
    74  H    0.041493
    75  H   -0.001536
    76  H    0.043953
    77  H    0.042825
    78  H    0.040341
    79  H    0.012034
    80  Mg   0.833734
    81  C   -0.021273
    82  C   -0.080165
    83  C   -0.082761
    84  C   -0.070313
    85  N   -0.301391
    86  C   -0.047381
    87  C   -0.021563
    88  C   -0.058505
    89  C    0.064052
    90  C    0.100716
    91  C    0.032544
    92  C   -0.071148
    93  H    0.011760
    94  N   -0.386366
    95  C    0.147011
    96  C   -0.156148
    97  C   -0.010718
    98  C    0.125041
    99  C    0.113798
   100  C   -0.027299
   101  O   -0.211678
   102  C    0.063942
   103  N   -0.345408
   104  C    0.087689
   105  C   -0.030118
   106  C   -0.026320
   107  C    0.096069
   108  C    0.087959
   109  C    0.059805
   110  C   -0.013200
   111  N   -0.360260
   112  C    0.064891
   113  C   -0.139149
   114  C   -0.053526
   115  C    0.135959
   116  C    0.107480
   117  C    0.083447
   118  O   -0.200427
   119  C    0.008587
   120  C    0.216124
   121  O   -0.257627
   122  O   -0.336376
   123  C    0.163765
   124  H   -0.033249
   125  H   -0.005295
   126  H   -0.025212
   127  H    0.025823
   128  H    0.008710
   129  H    0.023483
   130  H    0.000252
   131  H    0.025601
   132  H    0.009556
   133  H    0.036928
   134  H    0.030398
   135  H    0.032671
   136  H    0.039123
   137  H    0.020305
   138  H    0.045865
   139  H    0.005905
   140  H    0.040942
   141  H    0.037672
   142  H    0.013753
   143  H   -0.013274
   144  H    0.012827
   145  H    0.026567
   146  H    0.015543
   147  H    0.009174
   148  H    0.003990
   149  H    0.005156
   150  H    0.012469
   151  H    0.021974
   152  H    0.039082
   153  H    0.005096
   154  H    0.032614
   155  H    0.049766
   156  H    0.048537
   157  H    0.042649
   158  H    0.059347
 Sum of Mulliken charges =  -0.00000

 Dipole moment (field-independent basis, Debye):
    X=              5.8347    Y=              1.3395    Z=              5.8217  Tot=              8.3505
 Quadrupole moment (field-independent basis, Debye-Ang):
   XX=           -670.7874   YY=           -471.4191   ZZ=           -526.4467
   XY=             15.3796   XZ=             89.4206   YZ=             22.8025

 Normal termination of Gaussian 16 at Tue Aug 31 15:00:22 2021.
