 Gaussian 16, Revision A.03,
 Gaussian 16:  ES64L-G16RevA.03 25-Dec-2016

 -----------------------------------
 #p cam-b3lyp/Def2SVP td=(nstates=5)
 -----------------------------------

 --------------------------------
 TDDFT excited states in gaussian
 --------------------------------
 Symbolic Z-matrix:
 Charge =  0 Multiplicity = 1

                         Standard orientation:
 ---------------------------------------------------------------------
 Center     Atomic      Atomic             Coordinates (Angstroms)
 Number     Number       Type             X           Y           Z
 ---------------------------------------------------------------------
      1         12           0       24.255323   -0.722753    0.273824
      2          6           0       24.725564    2.403981   -1.168312
      3          6           0       25.135950    0.544609    3.268452
      4          6           0       24.555503   -3.866572    1.484372
      5          6           0       24.164043   -2.122272   -2.979907
      6          7           0       24.753285    1.255183    0.881451
      7          6           0       24.754205    2.461520    0.215662
      8          6           0       25.151411    3.614130    1.178579
      9          6           0       25.775587    2.816702    2.365039
     10          6           0       25.093562    1.463037    2.231692
     11          6           0       27.335354    2.656778    2.300638
     12          6           0       23.916734    4.513632    1.371104
     13          6           0       24.211614    5.965183    1.351078
     14          1           0       23.062381    6.824252    1.072908
     15          7           0       24.553427   -1.495315    2.161808
     16          6           0       24.842471   -0.781809    3.280671
     17          6           0       24.648956   -1.634165    4.426759
     18          6           0       24.470040   -2.959859    3.889489
     19          6           0       24.607631   -2.822723    2.436584
     20          6           0       24.774760   -1.167171    5.832642
     21          6           0       24.341269   -4.349251    4.594853
     22          8           0       24.182789   -5.402306    3.974011
     23          6           0       24.259743   -4.458883    6.091818
     24          7           0       24.689775   -2.697769   -0.687442
     25          6           0       24.625999   -3.880694    0.098440
     26          6           0       24.568888   -5.131605   -0.714432
     27          6           0       24.224213   -4.488894   -2.097205
     28          6           0       24.298776   -2.977115   -1.899982
     29          6           0       25.885587   -5.979307   -0.683605
     30          6           0       22.801456   -4.887848   -2.634924
     31          6           0       21.626349   -4.678100   -1.646236
     32          7           0       24.301087   -0.037440   -1.685650
     33          6           0       24.202981   -0.716454   -2.909999
     34          6           0       24.261596    0.269334   -3.923414
     35          6           0       24.435213    1.485402   -3.274360
     36          6           0       24.463240    1.237941   -1.941505
     37          6           0       24.105680    0.017500   -5.389335
     38          6           0       24.662314    2.835566   -3.499259
     39          8           0       24.752411    3.453921   -4.575533
     40          6           0       24.861824    3.583256   -2.146492
     41          6           0       23.703754    4.629373   -2.137705
     42          8           0       22.493149    4.365076   -2.028725
     43          8           0       24.265819    5.893710   -2.277413
     44          6           0       23.354781    7.050145   -2.551679
     45          1           0       25.526057    1.048351    4.155395
     46          1           0       24.495701   -4.936679    1.696922
     47          1           0       23.931245   -2.471003   -3.988252
     48          1           0       25.869879    4.277473    0.698217
     49          1           0       25.449357    3.262217    3.304355
     50          1           0       27.839052    3.178561    1.486422
     51          1           0       27.605358    1.620816    2.099768
     52          1           0       27.765696    3.066986    3.213993
     53          1           0       23.570281    4.318479    2.385023
     54          1           0       23.184757    4.236012    0.612177
     55          1           0       24.908717    6.110628    0.525691
     56          1           0       24.735096    6.223855    2.271279
     57          1           0       24.682084   -0.083550    5.902738
     58          1           0       25.650520   -1.645883    6.272087
     59          1           0       23.927738   -1.537928    6.409976
     60          1           0       24.615861   -5.466416    6.307864
     61          1           0       23.225662   -4.390033    6.430296
     62          1           0       24.916502   -3.746002    6.591351
     63          1           0       23.752731   -5.801028   -0.439063
     64          1           0       24.981645   -4.791512   -2.820987
     65          1           0       26.712138   -5.336482   -0.379601
     66          1           0       26.191263   -6.445717   -1.620288
     67          1           0       25.894775   -6.821741    0.008602
     68          1           0       22.896182   -5.915150   -2.987160
     69          1           0       22.700213   -4.289404   -3.540242
     70          1           0       20.869278   -3.995401   -2.032584
     71          1           0       22.061434   -4.297520   -0.721716
     72          1           0       21.104878   -5.605297   -1.410480
     73          1           0       25.003523    0.423904   -5.854882
     74          1           0       23.184367    0.502250   -5.712258
     75          1           0       24.083571   -1.031466   -5.685027
     76          1           0       25.814003    4.111453   -2.188406
     77          1           0       22.851471    6.820527   -3.490584
     78          1           0       23.804873    8.037823   -2.651243
     79          1           0       22.729905    6.935395   -1.665936
     80         12           0      -24.880033   -0.429084   -0.257912
     81          6           0      -22.933707    2.507618   -0.235828
     82          6           0      -27.034308    1.035874    1.920090
     83          6           0      -26.646618   -3.313192   -0.225567
     84          6           0      -22.395585   -1.984055   -2.120201
     85          7           0      -24.925739    1.473806    0.791490
     86          6           0      -24.089469    2.569493    0.560649
     87          6           0      -24.634883    3.770129    1.273789
     88          6           0      -25.609690    3.136924    2.294854
     89          6           0      -25.883702    1.769428    1.617462
     90          6           0      -25.084249    2.907007    3.747039
     91          6           0      -25.318138    4.859005    0.363586
     92          6           0      -24.888124    6.262765    0.648808
     93          1           0      -26.003541    7.322079    0.724203
     94          7           0      -26.614682   -0.981021    0.615651
     95          6           0      -27.442486   -0.194833    1.434305
     96          6           0      -28.599660   -0.916799    1.785969
     97          6           0      -28.531765   -2.245404    1.151521
     98          6           0      -27.265019   -2.221502    0.477481
     99          6           0      -29.649618   -0.470995    2.761250
    100          6           0      -29.485917   -3.516257    1.209973
    101          8           0      -29.231587   -4.512647    0.575763
    102          6           0      -30.796589   -3.477278    1.982752
    103          7           0      -24.504187   -2.407347   -0.972531
    104          6           0      -25.399084   -3.415088   -0.804850
    105          6           0      -24.829525   -4.771555   -1.441999
    106          6           0      -23.599116   -4.264250   -2.314265
    107          6           0      -23.469422   -2.776281   -1.775073
    108          6           0      -24.408680   -5.880508   -0.438391
    109          6           0      -23.837978   -4.326874   -3.864966
    110          6           0      -22.757339   -5.057076   -4.545198
    111          7           0      -23.019039    0.103482   -0.989800
    112          6           0      -22.163037   -0.606701   -1.830205
    113          6           0      -21.041021    0.215869   -2.192304
    114          6           0      -21.288721    1.422882   -1.570904
    115          6           0      -22.466233    1.338102   -0.897222
    116          6           0      -19.931238   -0.266868   -3.162305
    117          6           0      -20.765941    2.756099   -1.334775
    118          8           0      -19.683746    3.199562   -1.650162
    119          6           0      -21.834125    3.528286   -0.412187
    120          6           0      -21.175095    3.938239    0.841401
    121          8           0      -20.618227    3.146397    1.646374
    122          8           0      -21.244875    5.297058    0.939178
    123          6           0      -20.309911    5.888470    1.932704
    124          1           0      -27.657918    1.554862    2.650940
    125          1           0      -27.143783   -4.284852   -0.254271
    126          1           0      -21.593032   -2.506904   -2.643635
    127          1           0      -23.906278    4.280377    1.904938
    128          1           0      -26.528485    3.707598    2.431035
    129          1           0      -24.378554    3.665926    4.087403
    130          1           0      -24.632089    1.915056    3.765868
    131          1           0      -25.848851    2.797061    4.515639
    132          1           0      -26.388586    4.711909    0.505855
    133          1           0      -25.171220    4.645923   -0.695642
    134          1           0      -24.195591    6.438130   -0.174596
    135          1           0      -24.426547    6.309871    1.635042
    136          1           0      -30.603733   -0.173752    2.325480
    137          1           0      -29.314012    0.440753    3.253754
    138          1           0      -29.927246   -1.148162    3.568559
    139          1           0      -31.307517   -4.407624    1.737779
    140          1           0      -31.347685   -2.555548    1.793906
    141          1           0      -30.594636   -3.304031    3.040182
    142          1           0      -25.612593   -5.269368   -2.014146
    143          1           0      -22.719471   -4.845944   -2.034662
    144          1           0      -24.460461   -5.623228    0.620055
    145          1           0      -23.386495   -6.228452   -0.589376
    146          1           0      -25.070387   -6.728549   -0.616659
    147          1           0      -23.818590   -3.310243   -4.259395
    148          1           0      -24.759319   -4.826965   -4.162822
    149          1           0      -23.098908   -6.072926   -4.745631
    150          1           0      -21.765522   -5.078123   -4.094970
    151          1           0      -22.515020   -4.552357   -5.480485
    152          1           0      -20.294395   -1.137754   -3.708513
    153          1           0      -18.975620   -0.386547   -2.649792
    154          1           0      -19.848162    0.539538   -3.889988
    155          1           0      -22.244537    4.402497   -0.918213
    156          1           0      -20.321554    6.975972    1.861788
    157          1           0      -19.316609    5.601999    1.586496
    158          1           0      -20.574402    5.465590    2.902293
 ---------------------------------------------------------------------

 SCF Done:  E(RCAM-B3LYP) =  -4069.83760759     A.U. after   19 cycles

 Excitation energies and oscillator strengths:

 Excited State   1:      Singlet-A      1.6607 eV  746.56 nm  f=0.3770  <S**2>=0.000
     309 -> 315       -0.16223
     312 -> 314        0.68893
     309 <- 315       -0.10409
 This state for optimization and/or second-order correction.
 Total Energy, E(TD-HF/TD-DFT) =  -4069.77657631
 Copying the excited state density for this state as the 1-particle RhoCI density.

 Excited State   2:      Singlet-A      1.7437 eV  711.02 nm  f=0.3959  <S**2>=0.000
     310 -> 316        0.17838
     311 -> 313        0.68463
     310 <- 316        0.10695

 Excited State   3:      Singlet-A      2.2018 eV  563.10 nm  f=0.1577  <S**2>=0.000
     310 -> 313        0.65399
     311 -> 316       -0.24979

 Excited State   4:      Singlet-A      2.2190 eV  558.75 nm  f=0.1294  <S**2>=0.000
     309 -> 314        0.64340
     312 -> 315        0.27225

 Excited State   5:      Singlet-A      3.1224 eV  397.08 nm  f=0.0000  <S**2>=0.000
     312 -> 313        0.70710

 The electronic state is 1-A.
 Alpha  occ. eigenvalues --  -46.88307 -46.87181 -19.25662 -19.24728 -19.19995
 Alpha  occ. eigenvalues --  -19.19887 -19.19516 -19.19037 -19.18722 -19.17640
 Alpha  occ. eigenvalues --  -14.42062 -14.41928 -14.41502 -14.41468 -14.39333
 Alpha  occ. eigenvalues --  -14.39288 -14.38555 -14.38491 -10.40014 -10.39431
 Alpha  occ. eigenvalues --  -10.36342 -10.35272 -10.35039 -10.33622 -10.32181
 Alpha  occ. eigenvalues --  -10.31960 -10.31049 -10.30942 -10.30629 -10.30620
 Alpha  occ. eigenvalues --  -10.30619 -10.30542 -10.30437 -10.30308 -10.30226
 Alpha  occ. eigenvalues --  -10.30212 -10.29919 -10.29295 -10.29191 -10.29098
 Alpha  occ. eigenvalues --  -10.28940 -10.28669 -10.28310 -10.28293 -10.28232
 Alpha  occ. eigenvalues --  -10.28201 -10.28137 -10.28062 -10.27901 -10.27895
 Alpha  occ. eigenvalues --  -10.27867 -10.27864 -10.27767 -10.27758 -10.27658
 Alpha  occ. eigenvalues --  -10.27642 -10.27612 -10.27540 -10.27441 -10.27410
 Alpha  occ. eigenvalues --  -10.27219 -10.27159 -10.27000 -10.26999 -10.26950
 Alpha  occ. eigenvalues --  -10.26727 -10.26717 -10.26516 -10.26502 -10.26388
 Alpha  occ. eigenvalues --  -10.26362 -10.26352 -10.26121 -10.26087 -10.25931
 Alpha  occ. eigenvalues --  -10.25925 -10.25818 -10.25793 -10.25734 -10.25725
 Alpha  occ. eigenvalues --  -10.25711 -10.25554 -10.25336 -10.24654 -10.24355
 Alpha  occ. eigenvalues --  -10.23769  -3.16903  -3.15909  -1.91784  -1.91362
 Alpha  occ. eigenvalues --   -1.91205  -1.90814  -1.90353  -1.90234  -1.15760
 Alpha  occ. eigenvalues --   -1.14401  -1.11708  -1.10324  -1.09461  -1.07932
 Alpha  occ. eigenvalues --   -1.06633  -1.06336  -1.04943  -1.04796  -1.03888
 Alpha  occ. eigenvalues --   -1.03504  -1.03343  -1.02554  -1.02213  -1.01427
 Alpha  occ. eigenvalues --   -0.92581  -0.92519  -0.89209  -0.89079  -0.89038
 Alpha  occ. eigenvalues --   -0.88663  -0.88573  -0.88030  -0.87784  -0.87115
 Alpha  occ. eigenvalues --   -0.87029  -0.86522  -0.86416  -0.85827  -0.84586
 Alpha  occ. eigenvalues --   -0.84314  -0.83831  -0.83492  -0.82908  -0.82153
 Alpha  occ. eigenvalues --   -0.82111  -0.81612  -0.81194  -0.80975  -0.80665
 Alpha  occ. eigenvalues --   -0.80378  -0.78235  -0.78194  -0.77324  -0.77059
 Alpha  occ. eigenvalues --   -0.76920  -0.76777  -0.76020  -0.75735  -0.75456
 Alpha  occ. eigenvalues --   -0.74884  -0.73236  -0.72883  -0.72035  -0.70930
 Alpha  occ. eigenvalues --   -0.69778  -0.68753  -0.68610  -0.68117  -0.67592
 Alpha  occ. eigenvalues --   -0.67522  -0.66545  -0.66519  -0.65516  -0.65324
 Alpha  occ. eigenvalues --   -0.65180  -0.64647  -0.64572  -0.64440  -0.64053
 Alpha  occ. eigenvalues --   -0.64043  -0.61947  -0.61549  -0.60322  -0.60118
 Alpha  occ. eigenvalues --   -0.59873  -0.59770  -0.59250  -0.59126  -0.58422
 Alpha  occ. eigenvalues --   -0.58210  -0.57691  -0.57622  -0.57552  -0.56985
 Alpha  occ. eigenvalues --   -0.56161  -0.55968  -0.55683  -0.55604  -0.55508
 Alpha  occ. eigenvalues --   -0.55315  -0.55064  -0.54995  -0.54750  -0.53843
 Alpha  occ. eigenvalues --   -0.53558  -0.53533  -0.53436  -0.53033  -0.52919
 Alpha  occ. eigenvalues --   -0.52794  -0.52627  -0.52585  -0.52451  -0.51920
 Alpha  occ. eigenvalues --   -0.51887  -0.51824  -0.51656  -0.51557  -0.51444
 Alpha  occ. eigenvalues --   -0.51030  -0.50895  -0.50478  -0.50461  -0.50334
 Alpha  occ. eigenvalues --   -0.50110  -0.49804  -0.49618  -0.49454  -0.49411
 Alpha  occ. eigenvalues --   -0.49374  -0.49182  -0.49109  -0.48901  -0.48747
 Alpha  occ. eigenvalues --   -0.48718  -0.48505  -0.48071  -0.47962  -0.47951
 Alpha  occ. eigenvalues --   -0.47677  -0.47671  -0.47350  -0.47258  -0.47018
 Alpha  occ. eigenvalues --   -0.46788  -0.46647  -0.46599  -0.46459  -0.46283
 Alpha  occ. eigenvalues --   -0.46147  -0.45976  -0.45848  -0.45774  -0.45687
 Alpha  occ. eigenvalues --   -0.45455  -0.45407  -0.45084  -0.44746  -0.44676
 Alpha  occ. eigenvalues --   -0.44594  -0.44473  -0.44456  -0.44336  -0.44166
 Alpha  occ. eigenvalues --   -0.43738  -0.43452  -0.43429  -0.43400  -0.43355
 Alpha  occ. eigenvalues --   -0.43176  -0.43042  -0.42920  -0.42875  -0.42681
 Alpha  occ. eigenvalues --   -0.42614  -0.42352  -0.42280  -0.41949  -0.41941
 Alpha  occ. eigenvalues --   -0.41880  -0.41729  -0.41575  -0.41225  -0.41052
 Alpha  occ. eigenvalues --   -0.40949  -0.40831  -0.40634  -0.40482  -0.40282
 Alpha  occ. eigenvalues --   -0.40074  -0.39941  -0.39155  -0.39146  -0.38842
 Alpha  occ. eigenvalues --   -0.38355  -0.38190  -0.38020  -0.37848  -0.37830
 Alpha  occ. eigenvalues --   -0.37352  -0.36817  -0.36758  -0.36584  -0.36332
 Alpha  occ. eigenvalues --   -0.36061  -0.35990  -0.34246  -0.34170  -0.34142
 Alpha  occ. eigenvalues --   -0.34075  -0.33213  -0.33155  -0.31763  -0.31302
 Alpha  occ. eigenvalues --   -0.31272  -0.30858  -0.30811  -0.30041  -0.29985
 Alpha  occ. eigenvalues --   -0.29708  -0.29562  -0.29388  -0.24227  -0.23969
 Alpha  occ. eigenvalues --   -0.21528  -0.21178
 Alpha virt. eigenvalues --   -0.09012  -0.08990  -0.01499  -0.01269   0.00546
 Alpha virt. eigenvalues --    0.00738   0.02209   0.02438   0.02793   0.03448
 Alpha virt. eigenvalues --    0.04507   0.04974   0.05085   0.05405   0.06132

 Mulliken charges:
               1
     1  Mg   0.820671
     2  C   -0.060304
     3  C   -0.109644
     4  C   -0.010569
     5  C   -0.097850
     6  N   -0.340006
     7  C   -0.020859
     8  C   -0.061532
     9  C   -0.031285
    10  C    0.010379
    11  C    0.081270
    12  C    0.079408
    13  C   -0.068972
    14  H    0.035480
    15  N   -0.383342
    16  C    0.220953
    17  C   -0.158615
    18  C   -0.040028
    19  C    0.171610
    20  C    0.117502
    21  C    0.010832
    22  O   -0.218682
    23  C    0.055162
    24  N   -0.251738
    25  C   -0.074992
    26  C   -0.004099
    27  C   -0.051258
    28  C    0.088331
    29  C    0.063737
    30  C    0.024276
    31  C    0.002169
    32  N   -0.340240
    33  C    0.098595
    34  C   -0.182211
    35  C    0.104029
    36  C    0.159814
    37  C    0.133471
    38  C   -0.059262
    39  O   -0.207735
    40  C    0.035628
    41  C    0.229335
    42  O   -0.241910
    43  O   -0.360296
    44  C    0.180270
    45  H   -0.026184
    46  H   -0.008839
    47  H   -0.021083
    48  H   -0.002254
    49  H   -0.007345
    50  H    0.013747
    51  H    0.031699
    52  H    0.021202
    53  H   -0.004180
    54  H    0.042625
    55  H    0.020611
    56  H    0.016822
    57  H    0.018559
    58  H    0.045530
    59  H    0.019806
    60  H    0.029490
    61  H    0.051912
    62  H    0.006358
    63  H    0.019272
    64  H    0.003018
    65  H    0.017793
    66  H    0.011229
    67  H    0.020579
    68  H    0.005222
    69  H   -0.001519
    70  H    0.023107
    71  H    0.027948
    72  H    0.019155
    73  H    0.034963
    74  H    0.045157
    75  H   -0.002634
    76  H    0.036097
    77  H    0.050394
    78  H    0.051175
    79  H    0.043077
    80  Mg   0.836505
    81  C   -0.017270
    82  C   -0.093336
    83  C   -0.052660
    84  C   -0.080147
    85  N   -0.248969
    86  C   -0.021730
    87  C   -0.040982
    88  C   -0.078608
    89  C    0.007127
    90  C    0.066223
    91  C    0.084147
    92  C   -0.064161
    93  H    0.014343
    94  N   -0.438740
    95  C    0.227527
    96  C   -0.127637
    97  C   -0.044665
    98  C    0.133362
    99  C    0.086866
   100  C    0.029694
   101  O   -0.182044
   102  C    0.052836
   103  N   -0.286413
   104  C    0.051519
   105  C   -0.061420
   106  C   -0.034525
   107  C    0.042331
   108  C    0.054088
   109  C    0.073731
   110  C   -0.018456
   111  N   -0.355018
   112  C    0.116760
   113  C   -0.202364
   114  C    0.059006
   115  C    0.084177
   116  C    0.134356
   117  C    0.027033
   118  O   -0.153444
   119  C    0.027142
   120  C    0.210823
   121  O   -0.254025
   122  O   -0.341523
   123  C    0.182447
   124  H   -0.036350
   125  H   -0.006351
   126  H   -0.029030
   127  H    0.004858
   128  H   -0.000631
   129  H    0.022964
   130  H    0.021876
   131  H    0.010882
   132  H    0.006683
   133  H    0.004987
   134  H    0.043011
   135  H    0.032303
   136  H    0.027967
   137  H   -0.000584
   138  H    0.023525
   139  H    0.045122
   140  H    0.025194
   141  H    0.027624
   142  H    0.011525
   143  H    0.015262
   144  H    0.022275
   145  H    0.008766
   146  H    0.015449
   147  H    0.011056
   148  H    0.012776
   149  H    0.016479
   150  H    0.008628
   151  H    0.004080
   152  H    0.011021
   153  H    0.043405
   154  H    0.026502
   155  H    0.026268
   156  H    0.041811
   157  H    0.046549
   158  H    0.050192
 Sum of Mulliken charges =  -0.00000

 Dipole moment (field-independent basis, Debye):
    X=             -3.0547    Y=              0.7604    Z=              4.9645  Tot=              5.8784
 Quadrupole moment (field-independent basis, Debye-Ang):
   XX=           -285.8366   YY=           -488.8330   ZZ=           -491.2052
   XY=            -33.1838   XZ=             45.9349   YZ=             43.5728

 Normal termination of Gaussian 16 at Wed Sep 15 08:35:59 2021.
