 Gaussian 16, Revision A.03,
 Gaussian 16:  ES64L-G16RevA.03 25-Dec-2016

 ----------------------------------------------------------
 #p cam-b3lyp/Def2SVP td=(nstates=5) density=(transition=1)
 ----------------------------------------------------------

 --------------------------------
 TDDFT excited states in gaussian
 --------------------------------
 Symbolic Z-matrix:
 Charge =  0 Multiplicity = 1

                         Standard orientation:
 ---------------------------------------------------------------------
 Center     Atomic      Atomic             Coordinates (Angstroms)
 Number     Number       Type             X           Y           Z
 ---------------------------------------------------------------------
      1         12           0      -24.701722   -0.340449    0.747195
      2          6           0      -23.336111    1.829414   -1.755129
      3          6           0      -24.694911   -2.841380   -1.740549
      4          6           0      -26.581249   -2.231326    2.643541
      5          6           0      -24.939213    2.316148    2.856356
      6          7           0      -24.030756   -0.464656   -1.463642
      7          6           0      -23.426849    0.534007   -2.151586
      8          6           0      -22.934008   -0.019832   -3.478314
      9          6           0      -23.308716   -1.527531   -3.538307
     10          6           0      -24.020306   -1.649099   -2.177041
     11          6           0      -24.213513   -1.926598   -4.836047
     12          6           0      -21.366433    0.150894   -3.671670
     13          6           0      -20.900485    0.722086   -5.011289
     14          1           0      -21.690913    0.416998   -6.346575
     15          7           0      -25.576424   -2.269917    0.461230
     16          6           0      -25.425052   -3.081527   -0.563826
     17          6           0      -26.180085   -4.270349   -0.284404
     18          6           0      -26.650069   -4.241146    1.053087
     19          6           0      -26.315919   -2.890044    1.420509
     20          6           0      -26.161989   -5.493877   -1.199178
     21          6           0      -27.253435   -5.275045    1.990844
     22          8           0      -27.655558   -5.002526    3.107110
     23          6           0      -27.274545   -6.691963    1.487019
     24          7           0      -25.913241    0.128112    2.331353
     25          6           0      -26.450947   -0.915095    3.087454
     26          6           0      -26.845611   -0.483946    4.526153
     27          6           0      -26.141021    0.924318    4.567403
     28          6           0      -25.614721    1.155470    3.150963
     29          6           0      -28.371712   -0.477365    4.696245
     30          6           0      -24.883879    0.982716    5.558090
     31          6           0      -25.033103    1.705070    6.854987
     32          7           0      -24.152196    1.599663    0.661647
     33          6           0      -24.348223    2.582219    1.607954
     34          6           0      -23.956442    3.908216    1.137322
     35          6           0      -23.532344    3.665113   -0.217750
     36          6           0      -23.786970    2.299286   -0.485261
     37          6           0      -23.844292    5.105544    2.010115
     38          6           0      -22.907548    4.252422   -1.393010
     39          8           0      -22.517726    5.426523   -1.528481
     40          6           0      -22.772386    3.057398   -2.498021
     41          6           0      -23.582860    3.497573   -3.622532
     42          8           0      -24.756318    3.786026   -3.534564
     43          8           0      -22.872719    3.529876   -4.756386
     44          6           0      -23.455344    4.003757   -6.050889
     45          1           0      -24.649066   -3.672727   -2.446977
     46          1           0      -26.826028   -2.887045    3.482515
     47          1           0      -24.957805    3.118238    3.596775
     48          1           0      -23.480285    0.502394   -4.263799
     49          1           0      -22.431779   -2.160825   -3.673619
     50          1           0      -24.081064   -1.201620   -5.639202
     51          1           0      -25.237316   -1.953869   -4.462073
     52          1           0      -23.941385   -2.924330   -5.180010
     53          1           0      -20.776056   -0.742459   -3.472664
     54          1           0      -20.992478    0.866665   -2.939697
     55          1           0      -19.862500    0.461815   -5.219601
     56          1           0      -20.879461    1.794520   -4.817494
     57          1           0      -25.451947   -6.264921   -0.899665
     58          1           0      -26.063584   -5.210749   -2.247590
     59          1           0      -27.164637   -5.918145   -1.151395
     60          1           0      -26.376936   -7.009882    0.955762
     61          1           0      -28.101661   -6.927341    0.818718
     62          1           0      -27.209936   -7.368941    2.338897
     63          1           0      -26.405945   -1.207568    5.212026
     64          1           0      -26.882934    1.658780    4.881095
     65          1           0      -28.919963   -0.939289    3.875296
     66          1           0      -28.764831    0.536730    4.758983
     67          1           0      -28.630688   -0.988318    5.624163
     68          1           0      -23.988521    1.437972    5.134835
     69          1           0      -24.494822   -0.005751    5.799566
     70          1           0      -24.923447    1.010953    7.687241
     71          1           0      -26.047555    2.100157    6.798081
     72          1           0      -24.272462    2.479905    6.950203
     73          1           0      -23.019102    5.746241    1.701057
     74          1           0      -23.806209    4.733079    3.033629
     75          1           0      -24.773358    5.664574    1.890560
     76          1           0      -21.742957    2.928100   -2.829455
     77          1           0      -23.941872    4.967064   -5.896695
     78          1           0      -24.199504    3.315764   -6.452877
     79          1           0      -22.740777    4.019560   -6.873375
     80         12           0       25.085882    0.472952   -0.112971
     81          6           0       23.168416   -2.466732   -0.436494
     82          6           0       22.215638    2.191471   -0.343271
     83          6           0       26.893263    3.072038    0.698659
     84          6           0       27.800131   -1.665821    0.797508
     85          7           0       22.935740   -0.105372   -0.317137
     86          6           0       22.365806   -1.318374   -0.510896
     87          6           0       20.869380   -1.257871   -0.741209
     88          6           0       20.689270    0.296245   -0.971890
     89          6           0       22.008567    0.881802   -0.512753
     90          6           0       20.344577    0.714524   -2.460705
     91          6           0       19.832802   -1.821746    0.325768
     92          6           0       20.259913   -2.137562    1.783832
     93          1           0       19.201936   -1.911695    2.927701
     94          7           0       24.580931    2.421512    0.003523
     95          6           0       23.357829    2.934198   -0.010293
     96          6           0       23.440723    4.387584    0.299486
     97          6           0       24.896081    4.673033    0.446474
     98          6           0       25.513969    3.347598    0.397851
     99          6           0       22.270631    5.331706    0.233064
    100          6           0       25.504885    6.022203    0.726008
    101          8           0       24.767771    7.004179    0.767176
    102          6           0       27.022936    6.291294    1.039451
    103          7           0       27.111441    0.692109    0.778205
    104          6           0       27.565858    1.896908    0.811186
    105          6           0       29.110992    1.813063    1.191532
    106          6           0       29.261046    0.311598    1.445027
    107          6           0       27.947051   -0.294208    0.990776
    108          6           0       30.154634    2.382184    0.215990
    109          6           0       29.385923   -0.072341    3.009542
    110          6           0       30.736742   -0.651599    3.468237
    111          7           0       25.462517   -1.593426    0.207207
    112          6           0       26.603683   -2.313465    0.443449
    113          6           0       26.371563   -3.759777    0.193734
    114          6           0       24.974385   -3.902160   -0.039332
    115          6           0       24.524443   -2.513813   -0.122839
    116          6           0       27.381470   -4.913500    0.383809
    117          6           0       23.877103   -4.782015   -0.267480
    118          8           0       23.724937   -6.014019   -0.204782
    119          6           0       22.659091   -3.888446   -0.614188
    120          6           0       22.195109   -4.296801   -2.015360
    121          8           0       21.247869   -4.922793   -2.410957
    122          8           0       22.995384   -3.618606   -2.941173
    123          6           0       22.656637   -3.766568   -4.390727
    124          1           0       21.264983    2.724573   -0.413201
    125          1           0       27.464031    3.976142    0.924099
    126          1           0       28.698622   -2.285383    0.821779
    127          1           0       20.721008   -1.750903   -1.701771
    128          1           0       19.858225    0.654969   -0.364441
    129          1           0       20.340173   -0.154253   -3.118111
    130          1           0       21.238884    1.270633   -2.739736
    131          1           0       19.415413    1.284491   -2.475889
    132          1           0       19.399639   -2.723635   -0.106939
    133          1           0       18.988236   -1.134930    0.390906
    134          1           0       21.118859   -1.496288    1.981647
    135          1           0       20.444832   -3.195209    1.969149
    136          1           0       22.564227    6.381185    0.225459
    137          1           0       21.588810    5.028985    1.028668
    138          1           0       21.748890    5.028356   -0.675205
    139          1           0       27.808556    5.926055    0.376937
    140          1           0       27.264041    5.795282    1.979639
    141          1           0       27.241414    7.355568    1.122281
    142          1           0       29.332074    2.392635    2.087177
    143          1           0       30.100922   -0.217539    0.993432
    144          1           0       29.688408    2.825123   -0.664234
    145          1           0       30.895096    1.632490   -0.064901
    146          1           0       30.732171    3.208084    0.631262
    147          1           0       28.654768   -0.825742    3.299416
    148          1           0       29.166176    0.847691    3.551596
    149          1           0       30.684551   -1.384533    4.273719
    150          1           0       31.287825    0.198475    3.870363
    151          1           0       31.136662   -1.099964    2.558686
    152          1           0       28.285271   -4.650340    0.932372
    153          1           0       27.656180   -5.191254   -0.633484
    154          1           0       26.848158   -5.764079    0.807583
    155          1           0       21.860227   -4.074006    0.103024
    156          1           0       22.201123   -4.697625   -4.727269
    157          1           0       23.632048   -3.734177   -4.875773
    158          1           0       22.090676   -2.971506   -4.876609
 ---------------------------------------------------------------------

 SCF Done:  E(RCAM-B3LYP) =  -4069.78897532     A.U. after   18 cycles

 Excitation energies and oscillator strengths:

 Excited State   1:      Singlet-A      1.6834 eV  736.49 nm  f=0.4008  <S**2>=0.000
     310 -> 316        0.17293
     312 -> 314        0.68701
     310 <- 316        0.10715
 This state for optimization and/or second-order correction.
 Total Energy, E(TD-HF/TD-DFT) =  -4069.72710972
 Copying the excited state density for this state as the 1-particle RhoCI density.

 Excited State   2:      Singlet-A      1.7690 eV  700.88 nm  f=0.4120  <S**2>=0.000
     309 -> 315        0.18510
     311 -> 313        0.68379
     309 <- 315        0.10633

 Excited State   3:      Singlet-A      2.1993 eV  563.73 nm  f=0.1324  <S**2>=0.000
     310 -> 314        0.65029
     312 -> 316       -0.26295

 Excited State   4:      Singlet-A      2.2834 eV  542.99 nm  f=0.0990  <S**2>=0.000
     309 -> 313        0.63711
     311 -> 315       -0.29628

 Excited State   5:      Singlet-A      3.0828 eV  402.19 nm  f=0.0000  <S**2>=0.000
     312 -> 313        0.70711

 The electronic state is 1-A.
 Alpha  occ. eigenvalues --  -46.90093 -46.88614 -19.25257 -19.24624 -19.20441
 Alpha  occ. eigenvalues --  -19.19524 -19.19491 -19.19006 -19.18623 -19.18513
 Alpha  occ. eigenvalues --  -14.42340 -14.41873 -14.41865 -14.41707 -14.40461
 Alpha  occ. eigenvalues --  -14.40189 -14.39368 -14.39082 -10.39906 -10.38496
 Alpha  occ. eigenvalues --  -10.35781 -10.35715 -10.35629 -10.35454 -10.32535
 Alpha  occ. eigenvalues --  -10.31893 -10.31547 -10.31326 -10.31147 -10.31051
 Alpha  occ. eigenvalues --  -10.30795 -10.30754 -10.30738 -10.30513 -10.30263
 Alpha  occ. eigenvalues --  -10.30200 -10.30133 -10.30125 -10.29891 -10.29644
 Alpha  occ. eigenvalues --  -10.29578 -10.29431 -10.29173 -10.29020 -10.28995
 Alpha  occ. eigenvalues --  -10.28823 -10.28779 -10.28742 -10.28559 -10.28202
 Alpha  occ. eigenvalues --  -10.28175 -10.28045 -10.28013 -10.27933 -10.27929
 Alpha  occ. eigenvalues --  -10.27846 -10.27792 -10.27721 -10.27647 -10.27611
 Alpha  occ. eigenvalues --  -10.27590 -10.27398 -10.27270 -10.27208 -10.27114
 Alpha  occ. eigenvalues --  -10.27081 -10.27000 -10.26860 -10.26654 -10.26611
 Alpha  occ. eigenvalues --  -10.26591 -10.26566 -10.26421 -10.26402 -10.26369
 Alpha  occ. eigenvalues --  -10.26220 -10.26200 -10.26061 -10.26052 -10.25812
 Alpha  occ. eigenvalues --  -10.25801 -10.25572 -10.25563 -10.25458 -10.25403
 Alpha  occ. eigenvalues --  -10.25015  -3.18571  -3.17242  -1.93460  -1.93026
 Alpha  occ. eigenvalues --   -1.92874  -1.92108  -1.91703  -1.91553  -1.16555
 Alpha  occ. eigenvalues --   -1.16085  -1.10839  -1.09593  -1.09354  -1.08433
 Alpha  occ. eigenvalues --   -1.07364  -1.07305  -1.06770  -1.04850  -1.04644
 Alpha  occ. eigenvalues --   -1.04037  -1.03504  -1.03329  -1.03139  -1.01879
 Alpha  occ. eigenvalues --   -0.93610  -0.92158  -0.89832  -0.88849  -0.88642
 Alpha  occ. eigenvalues --   -0.88630  -0.88327  -0.88259  -0.88092  -0.87103
 Alpha  occ. eigenvalues --   -0.87016  -0.86929  -0.86401  -0.85436  -0.84918
 Alpha  occ. eigenvalues --   -0.84222  -0.84119  -0.83983  -0.82929  -0.82659
 Alpha  occ. eigenvalues --   -0.81828  -0.81820  -0.81281  -0.80836  -0.80692
 Alpha  occ. eigenvalues --   -0.80571  -0.78544  -0.78260  -0.77737  -0.77670
 Alpha  occ. eigenvalues --   -0.77056  -0.76861  -0.76717  -0.76273  -0.75397
 Alpha  occ. eigenvalues --   -0.74837  -0.73346  -0.72480  -0.72424  -0.71410
 Alpha  occ. eigenvalues --   -0.69593  -0.69296  -0.68746  -0.68717  -0.67795
 Alpha  occ. eigenvalues --   -0.67645  -0.67554  -0.66969  -0.66883  -0.65723
 Alpha  occ. eigenvalues --   -0.65552  -0.65540  -0.65157  -0.64902  -0.64619
 Alpha  occ. eigenvalues --   -0.64495  -0.63191  -0.62419  -0.60630  -0.60497
 Alpha  occ. eigenvalues --   -0.60227  -0.59492  -0.59225  -0.58812  -0.58580
 Alpha  occ. eigenvalues --   -0.58485  -0.58115  -0.58038  -0.57467  -0.57340
 Alpha  occ. eigenvalues --   -0.56398  -0.56078  -0.55903  -0.55753  -0.55723
 Alpha  occ. eigenvalues --   -0.55158  -0.55102  -0.54558  -0.54362  -0.53974
 Alpha  occ. eigenvalues --   -0.53639  -0.53497  -0.53312  -0.53036  -0.52986
 Alpha  occ. eigenvalues --   -0.52911  -0.52852  -0.52615  -0.52357  -0.52089
 Alpha  occ. eigenvalues --   -0.52046  -0.51795  -0.51563  -0.51281  -0.51274
 Alpha  occ. eigenvalues --   -0.51186  -0.51137  -0.50644  -0.50583  -0.50523
 Alpha  occ. eigenvalues --   -0.50067  -0.50044  -0.49968  -0.49826  -0.49515
 Alpha  occ. eigenvalues --   -0.49259  -0.49055  -0.49023  -0.48904  -0.48750
 Alpha  occ. eigenvalues --   -0.48581  -0.48563  -0.48541  -0.48393  -0.48320
 Alpha  occ. eigenvalues --   -0.48139  -0.47926  -0.47713  -0.47659  -0.47461
 Alpha  occ. eigenvalues --   -0.47425  -0.47263  -0.46961  -0.46739  -0.46673
 Alpha  occ. eigenvalues --   -0.46598  -0.46305  -0.46189  -0.46115  -0.46113
 Alpha  occ. eigenvalues --   -0.45931  -0.45885  -0.45556  -0.45386  -0.45301
 Alpha  occ. eigenvalues --   -0.45096  -0.44897  -0.44505  -0.44235  -0.44232
 Alpha  occ. eigenvalues --   -0.43945  -0.43818  -0.43607  -0.43588  -0.43321
 Alpha  occ. eigenvalues --   -0.43293  -0.43151  -0.43014  -0.42753  -0.42705
 Alpha  occ. eigenvalues --   -0.42605  -0.42468  -0.42282  -0.42098  -0.42038
 Alpha  occ. eigenvalues --   -0.41838  -0.41510  -0.41492  -0.41410  -0.41284
 Alpha  occ. eigenvalues --   -0.41273  -0.41005  -0.40949  -0.40710  -0.40545
 Alpha  occ. eigenvalues --   -0.40286  -0.39995  -0.39715  -0.39320  -0.39263
 Alpha  occ. eigenvalues --   -0.38880  -0.38388  -0.38234  -0.37916  -0.37685
 Alpha  occ. eigenvalues --   -0.36968  -0.36922  -0.36691  -0.36547  -0.36348
 Alpha  occ. eigenvalues --   -0.36217  -0.36144  -0.35041  -0.34449  -0.34290
 Alpha  occ. eigenvalues --   -0.33758  -0.33672  -0.33005  -0.31936  -0.31689
 Alpha  occ. eigenvalues --   -0.31440  -0.31233  -0.31073  -0.30989  -0.30735
 Alpha  occ. eigenvalues --   -0.30081  -0.29388  -0.29295  -0.24518  -0.23827
 Alpha  occ. eigenvalues --   -0.21558  -0.20956
 Alpha virt. eigenvalues --   -0.08938  -0.08713  -0.02057  -0.01112  -0.00644
 Alpha virt. eigenvalues --    0.00121   0.01162   0.01784   0.01844   0.02082
 Alpha virt. eigenvalues --    0.04278   0.04772   0.04941   0.05414   0.05527

 Mulliken charges:
               1
     1  Mg  12.002463
     2  C    5.975526
     3  C    6.015903
     4  C    6.031947
     5  C    5.988619
     6  N    6.991799
     7  C    6.027621
     8  C    5.989142
     9  C    6.015254
    10  C    5.965949
    11  C    6.000721
    12  C    5.998743
    13  C    5.999173
    14  H    1.007636
    15  N    7.008528
    16  C    5.958481
    17  C    5.974517
    18  C    5.987438
    19  C    5.959317
    20  C    6.004437
    21  C    5.985925
    22  O    7.972875
    23  C    6.008341
    24  N    7.009351
    25  C    5.952305
    26  C    6.011580
    27  C    5.990833
    28  C    6.028204
    29  C    6.003888
    30  C    5.991307
    31  C    5.999515
    32  N    6.999801
    33  C    6.035705
    34  C    6.038542
    35  C    6.000236
    36  C    6.037885
    37  C    5.995039
    38  C    6.014374
    39  O    8.028625
    40  C    6.007477
    41  C    6.005215
    42  O    8.002155
    43  O    8.002053
    44  C    5.997406
    45  H    0.989577
    46  H    0.994664
    47  H    1.012235
    48  H    1.000094
    49  H    0.993858
    50  H    0.986091
    51  H    1.001821
    52  H    0.999612
    53  H    1.009111
    54  H    0.991798
    55  H    1.002405
    56  H    0.993664
    57  H    0.977086
    58  H    0.981068
    59  H    0.981906
    60  H    0.995008
    61  H    0.990059
    62  H    0.984911
    63  H    0.999701
    64  H    1.003257
    65  H    1.004607
    66  H    0.987149
    67  H    0.996749
    68  H    0.994254
    69  H    1.014081
    70  H    1.007330
    71  H    1.002686
    72  H    0.997850
    73  H    1.019317
    74  H    1.019524
    75  H    1.024859
    76  H    1.009341
    77  H    1.000590
    78  H    1.006842
    79  H    1.005048
    80  Mg  11.999980
    81  C    5.999941
    82  C    5.999982
    83  C    6.000095
    84  C    6.000050
    85  N    6.999999
    86  C    6.000101
    87  C    5.999974
    88  C    6.000036
    89  C    5.999959
    90  C    6.000009
    91  C    6.000005
    92  C    5.999969
    93  H    1.000019
    94  N    7.000007
    95  C    5.999887
    96  C    5.999865
    97  C    5.999992
    98  C    5.999835
    99  C    6.000037
   100  C    5.999949
   101  O    7.999905
   102  C    6.000019
   103  N    6.999985
   104  C    5.999895
   105  C    6.000029
   106  C    5.999990
   107  C    6.000038
   108  C    6.000003
   109  C    5.999964
   110  C    5.999996
   111  N    7.000025
   112  C    6.000079
   113  C    6.000150
   114  C    6.000000
   115  C    6.000102
   116  C    5.999975
   117  C    6.000103
   118  O    8.000145
   119  C    5.999985
   120  C    6.000009
   121  O    8.000048
   122  O    7.999984
   123  C    5.999977
   124  H    0.999940
   125  H    0.999962
   126  H    1.000036
   127  H    1.000013
   128  H    0.999964
   129  H    0.999958
   130  H    1.000019
   131  H    0.999951
   132  H    1.000010
   133  H    1.000008
   134  H    1.000011
   135  H    1.000010
   136  H    0.999908
   137  H    0.999881
   138  H    0.999894
   139  H    0.999967
   140  H    0.999967
   141  H    0.999934
   142  H    1.000000
   143  H    1.000016
   144  H    1.000007
   145  H    0.999981
   146  H    0.999998
   147  H    0.999989
   148  H    1.000046
   149  H    1.000018
   150  H    1.000024
   151  H    1.000011
   152  H    1.000091
   153  H    1.000092
   154  H    1.000082
   155  H    1.000040
   156  H    1.000036
   157  H    1.000023
   158  H    1.000018
 Sum of Mulliken charges = 624.00000

 Dipole moment (field-independent basis, Debye):
    X=              3.3585    Y=             10.6767    Z=              0.5324  Tot=             11.2051
 Quadrupole moment (field-independent basis, Debye-Ang):
   XX=           -167.6736   YY=             -5.0873   ZZ=              3.2006
   XY=           -270.6351   XZ=            -11.2965   YZ=              3.9662

 Normal termination of Gaussian 16 at Wed Sep 22 09:01:17 2021.
