 Gaussian 16, Revision A.03,
 Gaussian 16:  ES64L-G16RevA.03 25-Dec-2016

 ----------------------------------------------------------
 #p cam-b3lyp/Def2SVP td=(nstates=5) density=(transition=1)
 ----------------------------------------------------------

 --------------------------------
 TDDFT excited states in gaussian
 --------------------------------
 Symbolic Z-matrix:
 Charge =  0 Multiplicity = 1

                         Standard orientation:
 ---------------------------------------------------------------------
 Center     Atomic      Atomic             Coordinates (Angstroms)
 Number     Number       Type             X           Y           Z
 ---------------------------------------------------------------------
      1         12           0        4.949706    0.609804   -0.029360
      2          6           0        2.613787   -1.995373    0.828153
      3          6           0        7.338271   -1.697548   -0.385280
      4          6           0        7.174130    3.114436    0.068142
      5          6           0        2.440133    2.897669    0.849263
      6          7           0        4.964580   -1.547478    0.249427
      7          6           0        3.886757   -2.435549    0.406008
      8          6           0        4.335430   -3.929252    0.177753
      9          6           0        5.854075   -3.778440   -0.139326
     10          6           0        6.068555   -2.241466   -0.149516
     11          6           0        6.825449   -4.477615    0.777509
     12          6           0        3.454649   -4.683033   -0.955945
     13          6           0        2.839500   -6.019938   -0.524173
     14          1           0        3.272324   -7.241276   -1.417680
     15          7           0        6.977635    0.703681   -0.283499
     16          6           0        7.806012   -0.337958   -0.409851
     17          6           0        9.199789    0.093336   -0.530143
     18          6           0        9.139037    1.510835   -0.297879
     19          6           0        7.720468    1.848652   -0.140950
     20          6           0       10.313931   -0.829679   -0.781061
     21          6           0       10.399156    2.419699   -0.146600
     22          8           0       10.311579    3.629017   -0.014605
     23          6           0       11.794061    1.881510   -0.177671
     24          7           0        4.807656    2.636085    0.383507
     25          6           0        5.883118    3.504615    0.231119
     26          6           0        5.437528    4.989899    0.434989
     27          6           0        3.869213    4.899192    0.332575
     28          6           0        3.670969    3.390233    0.474373
     29          6           0        6.024643    5.767057    1.657991
     30          6           0        3.287782    5.423544   -1.008942
     31          6           0        2.001679    6.210282   -0.982465
     32          7           0        2.951776    0.512925    0.741202
     33          6           0        2.080605    1.521702    1.040190
     34          6           0        0.719423    0.908528    1.365807
     35          6           0        0.873049   -0.451388    1.244334
     36          6           0        2.262014   -0.649118    0.932977
     37          6           0       -0.510797    1.745419    1.633422
     38          6           0        0.249830   -1.758479    1.352095
     39          8           0       -0.950703   -1.939120    1.644652
     40          6           0        1.428937   -2.888067    1.168616
     41          6           0        1.729911   -3.699317    2.411530
     42          8           0        2.008711   -3.137463    3.489233
     43          8           0        1.479561   -5.060832    2.235423
     44          6           0        1.356934   -5.769312    3.504114
     45          1           0        8.140405   -2.398754   -0.623876
     46          1           0        7.957701    3.873103    0.020937
     47          1           0        1.679937    3.669782    0.988302
     48          1           0        4.129700   -4.384752    1.146210
     49          1           0        5.997724   -4.343134   -1.061539
     50          1           0        6.339888   -4.986730    1.610164
     51          1           0        7.297669   -3.605939    1.229327
     52          1           0        7.447909   -5.213099    0.267002
     53          1           0        4.167620   -4.801416   -1.771410
     54          1           0        2.708296   -3.989620   -1.342635
     55          1           0        1.760675   -5.868176   -0.489492
     56          1           0        3.171108   -6.255373    0.487926
     57          1           0       11.162099   -0.862611   -0.097941
     58          1           0       10.830602   -0.399782   -1.638409
     59          1           0       10.032430   -1.816708   -1.148636
     60          1           0       11.898501    1.426969   -1.163585
     61          1           0       11.830163    1.072882    0.552878
     62          1           0       12.441166    2.730947    0.037380
     63          1           0        5.809496    5.492389   -0.457929
     64          1           0        3.361698    5.340254    1.190152
     65          1           0        6.773594    5.089741    2.067749
     66          1           0        5.278374    6.094543    2.381262
     67          1           0        6.645230    6.609350    1.349696
     68          1           0        3.151535    4.456698   -1.493066
     69          1           0        3.990077    5.987658   -1.623006
     70          1           0        2.152990    7.038961   -1.674298
     71          1           0        1.785531    6.645672   -0.006322
     72          1           0        1.256847    5.578166   -1.466578
     73          1           0       -0.204090    2.790102    1.585052
     74          1           0       -0.819780    1.571790    2.663948
     75          1           0       -1.305880    1.456705    0.946269
     76          1           0        1.168133   -3.518238    0.318336
     77          1           0        0.356274   -6.126367    3.743628
     78          1           0        1.715736   -5.206076    4.365700
     79          1           0        2.006126   -6.641030    3.426026
     80         12           0       -5.023771    0.631675   -0.402055
     81          6           0       -2.788794   -1.981340   -1.088929
     82          6           0       -7.442816   -1.736212    0.226868
     83          6           0       -7.116933    3.108923    0.209171
     84          6           0       -2.474196    2.900582   -1.235376
     85          7           0       -5.021095   -1.583238   -0.362246
     86          6           0       -4.012429   -2.487749   -0.694610
     87          6           0       -4.335341   -3.970827   -0.258870
     88          6           0       -5.824192   -3.820347   -0.013136
     89          6           0       -6.140002   -2.267826   -0.039365
     90          6           0       -6.662922   -4.487613   -1.197428
     91          6           0       -3.553753   -4.146926    1.118130
     92          6           0       -2.807096   -5.532622    1.355723
     93          1           0       -3.578768   -6.644876    0.692790
     94          7           0       -6.987071    0.666137   -0.014479
     95          6           0       -7.807625   -0.358691    0.198886
     96          6           0       -9.141342    0.060844    0.539277
     97          6           0       -9.049023    1.454757    0.722763
     98          6           0       -7.666637    1.825688    0.237203
     99          6           0      -10.314820   -0.826984    0.737810
    100          6           0      -10.023365    2.430528    1.349817
    101          8           0       -9.706784    3.580947    1.673412
    102          6           0      -11.496523    2.043583    1.506888
    103          7           0       -4.810478    2.737150   -0.555774
    104          6           0       -5.872207    3.511896   -0.152100
    105          6           0       -5.419372    4.969985   -0.116191
    106          6           0       -3.854363    4.913865   -0.472427
    107          6           0       -3.648041    3.442397   -0.718502
    108          6           0       -6.346965    5.838479   -1.037557
    109          6           0       -2.895845    5.524023    0.538196
    110          6           0       -1.906653    6.560959   -0.080217
    111          7           0       -3.052272    0.495081   -1.053520
    112          6           0       -2.119206    1.528684   -1.380151
    113          6           0       -0.892476    0.965883   -1.819322
    114          6           0       -1.129855   -0.414734   -1.710791
    115          6           0       -2.461129   -0.623248   -1.294528
    116          6           0        0.383473    1.617396   -2.245847
    117          6           0       -0.552210   -1.710652   -1.871687
    118          8           0        0.529226   -2.085338   -2.260080
    119          6           0       -1.585882   -2.755616   -1.364392
    120          6           0       -1.699920   -3.845948   -2.366953
    121          8           0       -2.215832   -3.790382   -3.479688
    122          8           0       -1.178046   -4.941628   -1.807018
    123          6           0       -1.252706   -6.168455   -2.572315
    124          1           0       -8.256665   -2.370640    0.583721
    125          1           0       -7.861587    3.882156    0.414174
    126          1           0       -1.635229    3.568006   -1.443378
    127          1           0       -3.897434   -4.592695   -1.039039
    128          1           0       -6.087651   -4.227190    0.962594
    129          1           0       -6.023910   -4.904139   -1.976312
    130          1           0       -7.303528   -3.722369   -1.635326
    131          1           0       -7.260223   -5.250896   -0.698577
    132          1           0       -4.194060   -4.041580    1.993421
    133          1           0       -2.848548   -3.317152    1.172412
    134          1           0       -2.878548   -5.831615    2.401541
    135          1           0       -1.730844   -5.437693    1.209298
    136          1           0      -10.559870   -0.782853    1.799865
    137          1           0      -10.076865   -1.861942    0.496147
    138          1           0      -11.186849   -0.528104    0.156902
    139          1           0      -11.932892    3.036241    1.615448
    140          1           0      -11.693627    1.382456    2.351611
    141          1           0      -12.002774    1.636745    0.631712
    142          1           0       -5.502732    5.466571    0.850490
    143          1           0       -3.702426    5.424253   -1.423578
    144          1           0       -6.590629    6.726393   -0.454065
    145          1           0       -7.234842    5.315010   -1.392318
    146          1           0       -5.776205    6.316728   -1.834428
    147          1           0       -2.309151    4.795091    1.096376
    148          1           0       -3.537220    6.148146    1.162062
    149          1           0       -2.155594    6.756724   -1.123323
    150          1           0       -0.902840    6.148855   -0.181311
    151          1           0       -1.922066    7.501304    0.471182
    152          1           0        0.782217    1.947804   -1.286316
    153          1           0        0.111974    2.388010   -2.966998
    154          1           0        1.097376    0.906417   -2.659339
    155          1           0       -1.084091   -3.199596   -0.503597
    156          1           0       -0.818393   -6.017359   -3.560963
    157          1           0       -2.250215   -6.545559   -2.800369
    158          1           0       -0.672307   -6.905627   -2.017212
 ---------------------------------------------------------------------

 SCF Done:  E(RCAM-B3LYP) =  -4069.83614348     A.U. after   19 cycles

 Excitation energies and oscillator strengths:

 Excited State   1:      Singlet-A      1.6333 eV  759.09 nm  f=0.9388  <S**2>=0.000
     309 -> 316        0.11619
     311 -> 313        0.35264
     311 -> 314        0.12872
     312 -> 313       -0.30979
     312 -> 314        0.49092
 This state for optimization and/or second-order correction.
 Total Energy, E(TD-HF/TD-DFT) =  -4069.77611947
 Copying the excited state density for this state as the 1-particle RhoCI density.

 Excited State   2:      Singlet-A      1.7367 eV  713.89 nm  f=0.0449  <S**2>=0.000
     311 -> 313        0.46037
     311 -> 314        0.33790
     312 -> 313        0.31123
     312 -> 314       -0.22056

 Excited State   3:      Singlet-A      2.2400 eV  553.50 nm  f=0.0098  <S**2>=0.000
     309 -> 314       -0.39956
     310 -> 313        0.50269
     311 -> 315        0.19565
     312 -> 316        0.17694

 Excited State   4:      Singlet-A      2.2483 eV  551.45 nm  f=0.0041  <S**2>=0.000
     311 -> 313       -0.36480
     311 -> 314        0.57691

 Excited State   5:      Singlet-A      2.2757 eV  544.82 nm  f=0.1694  <S**2>=0.000
     309 -> 313        0.42386
     309 -> 314       -0.18792
     310 -> 314       -0.40947
     311 -> 315       -0.15536
     312 -> 316        0.21785

 The electronic state is 1-A.
 Alpha  occ. eigenvalues --  -46.88085 -46.87457 -19.26816 -19.25285 -19.20854
 Alpha  occ. eigenvalues --  -19.20517 -19.19745 -19.18652 -19.18378 -19.17849
 Alpha  occ. eigenvalues --  -14.42225 -14.41877 -14.41422 -14.41351 -14.39970
 Alpha  occ. eigenvalues --  -14.39432 -14.39125 -14.38238 -10.40815 -10.38142
 Alpha  occ. eigenvalues --  -10.36831 -10.36063 -10.34757 -10.33302 -10.31844
 Alpha  occ. eigenvalues --  -10.31571 -10.31265 -10.31209 -10.30845 -10.30670
 Alpha  occ. eigenvalues --  -10.30510 -10.30420 -10.30416 -10.30144 -10.29944
 Alpha  occ. eigenvalues --  -10.29936 -10.29883 -10.29729 -10.29590 -10.29290
 Alpha  occ. eigenvalues --  -10.28909 -10.28858 -10.28672 -10.28624 -10.28359
 Alpha  occ. eigenvalues --  -10.28091 -10.28050 -10.27984 -10.27795 -10.27792
 Alpha  occ. eigenvalues --  -10.27711 -10.27660 -10.27647 -10.27403 -10.27342
 Alpha  occ. eigenvalues --  -10.27281 -10.27263 -10.27258 -10.27226 -10.27030
 Alpha  occ. eigenvalues --  -10.26934 -10.26884 -10.26879 -10.26670 -10.26474
 Alpha  occ. eigenvalues --  -10.26437 -10.26326 -10.26208 -10.26150 -10.26108
 Alpha  occ. eigenvalues --  -10.25988 -10.25873 -10.25731 -10.25639 -10.25621
 Alpha  occ. eigenvalues --  -10.25607 -10.25588 -10.25575 -10.25544 -10.25541
 Alpha  occ. eigenvalues --  -10.25538 -10.25430 -10.25367 -10.25159 -10.25007
 Alpha  occ. eigenvalues --  -10.23372  -3.16732  -3.16169  -1.91612  -1.91172
 Alpha  occ. eigenvalues --   -1.91077  -1.91062  -1.90603  -1.90502  -1.17037
 Alpha  occ. eigenvalues --   -1.16399  -1.10183  -1.09942  -1.09784  -1.09587
 Alpha  occ. eigenvalues --   -1.07999  -1.06970  -1.04757  -1.03677  -1.03643
 Alpha  occ. eigenvalues --   -1.03069  -1.02599  -1.02371  -1.02044  -1.01599
 Alpha  occ. eigenvalues --   -0.92393  -0.92313  -0.89447  -0.88987  -0.88321
 Alpha  occ. eigenvalues --   -0.88257  -0.87849  -0.87811  -0.87680  -0.87088
 Alpha  occ. eigenvalues --   -0.87029  -0.86759  -0.86392  -0.85813  -0.83900
 Alpha  occ. eigenvalues --   -0.83622  -0.83582  -0.83310  -0.82496  -0.82113
 Alpha  occ. eigenvalues --   -0.81732  -0.81570  -0.80957  -0.80874  -0.80042
 Alpha  occ. eigenvalues --   -0.79927  -0.78699  -0.78211  -0.77528  -0.77259
 Alpha  occ. eigenvalues --   -0.76623  -0.76368  -0.75984  -0.75269  -0.74674
 Alpha  occ. eigenvalues --   -0.74438  -0.72844  -0.72194  -0.71145  -0.70760
 Alpha  occ. eigenvalues --   -0.69033  -0.68884  -0.68630  -0.68268  -0.67374
 Alpha  occ. eigenvalues --   -0.67293  -0.66615  -0.66401  -0.65231  -0.65083
 Alpha  occ. eigenvalues --   -0.64900  -0.64733  -0.64715  -0.64612  -0.64172
 Alpha  occ. eigenvalues --   -0.64158  -0.62522  -0.62319  -0.60598  -0.60110
 Alpha  occ. eigenvalues --   -0.59592  -0.59347  -0.58943  -0.58793  -0.58291
 Alpha  occ. eigenvalues --   -0.58253  -0.58191  -0.57582  -0.57192  -0.56987
 Alpha  occ. eigenvalues --   -0.56446  -0.56034  -0.55525  -0.55343  -0.55098
 Alpha  occ. eigenvalues --   -0.55079  -0.54758  -0.54349  -0.53780  -0.53626
 Alpha  occ. eigenvalues --   -0.53329  -0.53262  -0.53090  -0.52941  -0.52449
 Alpha  occ. eigenvalues --   -0.52393  -0.52263  -0.52251  -0.52132  -0.51853
 Alpha  occ. eigenvalues --   -0.51634  -0.51407  -0.51315  -0.51191  -0.51068
 Alpha  occ. eigenvalues --   -0.50841  -0.50615  -0.50493  -0.50352  -0.50243
 Alpha  occ. eigenvalues --   -0.50143  -0.49975  -0.49872  -0.49623  -0.49436
 Alpha  occ. eigenvalues --   -0.48890  -0.48845  -0.48617  -0.48595  -0.48490
 Alpha  occ. eigenvalues --   -0.48424  -0.48225  -0.48215  -0.48084  -0.47971
 Alpha  occ. eigenvalues --   -0.47865  -0.47579  -0.47495  -0.47345  -0.47216
 Alpha  occ. eigenvalues --   -0.46909  -0.46846  -0.46650  -0.46463  -0.46343
 Alpha  occ. eigenvalues --   -0.46083  -0.45894  -0.45787  -0.45693  -0.45629
 Alpha  occ. eigenvalues --   -0.45393  -0.45134  -0.45026  -0.44886  -0.44564
 Alpha  occ. eigenvalues --   -0.44437  -0.44369  -0.44202  -0.44133  -0.44102
 Alpha  occ. eigenvalues --   -0.43837  -0.43726  -0.43581  -0.43539  -0.43456
 Alpha  occ. eigenvalues --   -0.43443  -0.43160  -0.42812  -0.42755  -0.42714
 Alpha  occ. eigenvalues --   -0.42646  -0.42257  -0.42196  -0.42120  -0.41702
 Alpha  occ. eigenvalues --   -0.41520  -0.41473  -0.41058  -0.41001  -0.40722
 Alpha  occ. eigenvalues --   -0.40630  -0.40536  -0.40463  -0.40205  -0.39824
 Alpha  occ. eigenvalues --   -0.39800  -0.39151  -0.39106  -0.38911  -0.38157
 Alpha  occ. eigenvalues --   -0.38013  -0.37904  -0.37612  -0.37402  -0.37167
 Alpha  occ. eigenvalues --   -0.37061  -0.36964  -0.36337  -0.36120  -0.36080
 Alpha  occ. eigenvalues --   -0.35979  -0.35726  -0.35098  -0.34178  -0.33955
 Alpha  occ. eigenvalues --   -0.33638  -0.32694  -0.32571  -0.32079  -0.31861
 Alpha  occ. eigenvalues --   -0.31206  -0.31161  -0.30596  -0.30526  -0.30231
 Alpha  occ. eigenvalues --   -0.29797  -0.29563  -0.29015  -0.23980  -0.23682
 Alpha  occ. eigenvalues --   -0.20836  -0.20514
 Alpha virt. eigenvalues --   -0.08475  -0.08172  -0.01482  -0.01015  -0.00451
 Alpha virt. eigenvalues --    0.00891   0.02157   0.02629   0.02749   0.03128
 Alpha virt. eigenvalues --    0.04075   0.04985   0.05804   0.05869   0.06328

 Mulliken charges:
               1
     1  Mg  11.997432
     2  C    5.980145
     3  C    6.015907
     4  C    6.015093
     5  C    5.983043
     6  N    6.994010
     7  C    6.032772
     8  C    5.990851
     9  C    6.011924
    10  C    5.971444
    11  C    6.001415
    12  C    5.995335
    13  C    5.998537
    14  H    1.005148
    15  N    7.006900
    16  C    5.962685
    17  C    5.978461
    18  C    5.989652
    19  C    5.962480
    20  C    6.007987
    21  C    5.988228
    22  O    7.978681
    23  C    6.002008
    24  N    6.999717
    25  C    5.972908
    26  C    6.007514
    27  C    5.991674
    28  C    6.026166
    29  C    5.998910
    30  C    5.998501
    31  C    5.997818
    32  N    6.998407
    33  C    6.039682
    34  C    6.034534
    35  C    6.006802
    36  C    6.030008
    37  C    5.997927
    38  C    6.019805
    39  O    8.022895
    40  C    6.003753
    41  C    6.003806
    42  O    8.001445
    43  O    8.002449
    44  C    5.998025
    45  H    0.990646
    46  H    0.991417
    47  H    1.006990
    48  H    0.999630
    49  H    0.993626
    50  H    0.987565
    51  H    1.005431
    52  H    0.996289
    53  H    1.008744
    54  H    0.999872
    55  H    0.996865
    56  H    1.000361
    57  H    0.977617
    58  H    0.981149
    59  H    0.982070
    60  H    0.994796
    61  H    0.995249
    62  H    0.985907
    63  H    0.998556
    64  H    0.997619
    65  H    1.004002
    66  H    0.988299
    67  H    0.996706
    68  H    1.002176
    69  H    1.008615
    70  H    1.001880
    71  H    0.999162
    72  H    0.999812
    73  H    1.013323
    74  H    1.011360
    75  H    1.022450
    76  H    1.008861
    77  H    1.000304
    78  H    1.001877
    79  H    1.004866
    80  Mg  11.998298
    81  C    6.008356
    82  C    6.000301
    83  C    5.984937
    84  C    5.997991
    85  N    7.007517
    86  C    5.984595
    87  C    6.002393
    88  C    5.997676
    89  C    6.011227
    90  C    5.997453
    91  C    6.001328
    92  C    6.000191
    93  H    1.002130
    94  N    6.993800
    95  C    6.018799
    96  C    6.014620
    97  C    6.005927
    98  C    6.025801
    99  C    5.996159
   100  C    6.007015
   101  O    8.016243
   102  C    5.995726
   103  N    6.994968
   104  C    6.020665
   105  C    5.992238
   106  C    6.007239
   107  C    5.986034
   108  C    5.996723
   109  C    6.003096
   110  C    6.000283
   111  N    7.001358
   112  C    5.977263
   113  C    5.975609
   114  C    5.991568
   115  C    5.985607
   116  C    5.999780
   117  C    5.984718
   118  O    7.985380
   119  C    5.997371
   120  C    6.000227
   121  O    8.000234
   122  O    7.998407
   123  C    5.999494
   124  H    1.009390
   125  H    1.003758
   126  H    0.994036
   127  H    1.004077
   128  H    1.003159
   129  H    1.009418
   130  H    0.998668
   131  H    1.004328
   132  H    0.995679
   133  H    0.997170
   134  H    1.000134
   135  H    1.001118
   136  H    1.011970
   137  H    1.010045
   138  H    1.012418
   139  H    1.009177
   140  H    1.005655
   141  H    1.005373
   142  H    1.003161
   143  H    1.001275
   144  H    1.004047
   145  H    0.998055
   146  H    1.007684
   147  H    0.994759
   148  H    0.996179
   149  H    1.001328
   150  H    1.000735
   151  H    1.000161
   152  H    0.980415
   153  H    1.000037
   154  H    0.999938
   155  H    0.992816
   156  H    1.002298
   157  H    0.997837
   158  H    0.999980
 Sum of Mulliken charges = 624.00000

 Dipole moment (field-independent basis, Debye):
    X=            -17.1431    Y=             -0.9616    Z=              2.8831  Tot=             17.4104
 Quadrupole moment (field-independent basis, Debye-Ang):
   XX=            -37.0264   YY=              1.8040   ZZ=              0.9901
   XY=            -13.3543   XZ=             -0.6804   YZ=             -0.1617

 Normal termination of Gaussian 16 at Wed Sep 22 16:55:29 2021.
