 Gaussian 16, Revision A.03,
 Gaussian 16:  ES64L-G16RevA.03 25-Dec-2016

 -----------------------------------
 #p cam-b3lyp/Def2SVP td=(nstates=5)
 -----------------------------------

 --------------------------------
 TDDFT excited states in gaussian
 --------------------------------
 Symbolic Z-matrix:
 Charge =  0 Multiplicity = 1

                         Standard orientation:
 ---------------------------------------------------------------------
 Center     Atomic      Atomic             Coordinates (Angstroms)
 Number     Number       Type             X           Y           Z
 ---------------------------------------------------------------------
      1         12           0       -5.060647   -0.266224    0.983522
      2          6           0       -4.571141    3.008051   -0.209157
      3          6           0       -2.492771    0.321336    3.253187
      4          6           0       -5.338769   -3.459782    1.850355
      5          6           0       -7.033078   -0.971918   -1.932297
      6          7           0       -3.692729    1.432726    1.443102
      7          6           0       -3.783522    2.716781    0.887734
      8          6           0       -3.073682    3.703021    1.796709
      9          6           0       -2.189219    2.826900    2.728828
     10          6           0       -2.834855    1.433274    2.464626
     11          6           0       -0.645902    2.927429    2.517156
     12          6           0       -4.022816    4.695156    2.554076
     13          6           0       -3.377612    6.121589    2.843427
     14          1           0       -1.925410    6.349436    2.415401
     15          7           0       -4.170202   -1.331461    2.401330
     16          6           0       -3.195964   -0.902457    3.286184
     17          6           0       -2.897308   -1.924238    4.247689
     18          6           0       -3.610264   -3.080399    3.795391
     19          6           0       -4.427882   -2.635377    2.681001
     20          6           0       -1.850870   -1.755957    5.391302
     21          6           0       -3.564336   -4.475535    4.327216
     22          8           0       -4.127098   -5.423715    3.729529
     23          6           0       -2.807138   -5.029137    5.570081
     24          7           0       -5.811805   -2.048659   -0.036625
     25          6           0       -5.897850   -3.232690    0.598634
     26          6           0       -6.864700   -4.182140   -0.152639
     27          6           0       -7.390197   -3.409634   -1.367897
     28          6           0       -6.720931   -1.997879   -1.061094
     29          6           0       -6.253595   -5.529754   -0.388112
     30          6           0       -8.921604   -3.341722   -1.550979
     31          6           0       -9.701099   -2.700584   -0.376454
     32          7           0       -5.666512    0.745296   -0.800095
     33          6           0       -6.559151    0.377305   -1.748547
     34          6           0       -6.872306    1.580242   -2.518337
     35          6           0       -6.155552    2.680671   -1.970370
     36          6           0       -5.377296    2.111273   -0.933301
     37          6           0       -7.909676    1.678610   -3.633723
     38          6           0       -5.895407    4.080959   -2.075034
     39          8           0       -6.377301    4.989837   -2.745918
     40          6           0       -4.740919    4.360459   -0.908644
     41          6           0       -3.540632    5.033817   -1.547033
     42          8           0       -2.684142    4.434395   -2.166974
     43          8           0       -3.510296    6.375167   -1.239904
     44          6           0       -2.681060    7.265444   -2.045712
     45          1           0       -1.769916    0.655772    3.999991
     46          1           0       -5.462243   -4.471717    2.241034
     47          1           0       -7.747314   -1.229442   -2.716777
     48          1           0       -2.421678    4.338914    1.198028
     49          1           0       -2.417804    3.123709    3.752020
     50          1           0       -0.368421    1.889173    2.338262
     51          1           0       -0.148712    3.218562    3.443219
     52          1           0       -0.249963    3.528385    1.698541
     53          1           0       -4.267389    4.329413    3.550849
     54          1           0       -4.954655    4.777275    1.996057
     55          1           0       -3.315090    6.234254    3.925896
     56          1           0       -4.025773    6.867446    2.383979
     57          1           0       -1.321692   -2.704220    5.493093
     58          1           0       -2.313579   -1.547215    6.355299
     59          1           0       -1.089290   -0.977232    5.353119
     60          1           0       -3.089791   -4.479693    6.468480
     61          1           0       -1.725953   -5.034546    5.432097
     62          1           0       -3.181039   -5.985513    5.933733
     63          1           0       -7.631346   -4.446847    0.574435
     64          1           0       -6.806584   -3.788129   -2.207828
     65          1           0       -6.615555   -6.286217    0.308449
     66          1           0       -5.166438   -5.454168   -0.360950
     67          1           0       -6.430138   -5.932335   -1.386161
     68          1           0       -9.208986   -4.391513   -1.613179
     69          1           0       -9.166414   -2.837044   -2.486046
     70          1           0      -10.215654   -1.843647   -0.810717
     71          1           0       -8.960383   -2.400628    0.364859
     72          1           0      -10.357619   -3.388723    0.156265
     73          1           0       -8.519670    2.578535   -3.560683
     74          1           0       -8.655115    0.887673   -3.556153
     75          1           0       -7.393833    1.554146   -4.586230
     76          1           0       -5.206552    5.088680   -0.244089
     77          1           0       -1.755599    6.725921   -2.248763
     78          1           0       -2.412775    8.204480   -1.561506
     79          1           0       -3.284521    7.511602   -2.919442
     80         12           0        4.261715   -0.682284   -1.117648
     81          6           0        7.168198    0.782381   -0.048686
     82          6           0        2.663195    2.243347   -0.826470
     83          6           0        1.434010   -2.319417   -1.946521
     84          6           0        5.923880   -3.909173   -0.908665
     85          7           0        4.834423    1.264469   -0.226558
     86          6           0        6.080424    1.677904    0.034429
     87          6           0        6.094924    3.251170    0.395424
     88          6           0        4.590878    3.609789    0.098405
     89          6           0        3.930576    2.279724   -0.317193
     90          6           0        3.896504    4.368303    1.246207
     91          6           0        7.110112    4.078391   -0.443272
     92          6           0        6.970762    5.635773   -0.450841
     93          1           0        7.983816    6.465584    0.425759
     94          7           0        2.287542   -0.115505   -1.308339
     95          6           0        1.843938    1.123117   -1.253545
     96          6           0        0.422204    1.121326   -1.563148
     97          6           0       -0.023335   -0.214794   -1.794558
     98          6           0        1.254867   -0.952895   -1.693712
     99          6           0       -0.500266    2.326290   -1.480931
    100          6           0       -1.423460   -0.770937   -2.032111
    101          8           0       -1.655223   -1.971356   -1.921162
    102          6           0       -2.515226    0.172199   -2.399093
    103          7           0        3.749148   -2.829521   -1.343471
    104          6           0        2.539217   -3.213791   -1.732342
    105          6           0        2.487428   -4.715066   -2.060967
    106          6           0        3.960152   -5.089902   -1.917131
    107          6           0        4.564397   -3.873152   -1.322033
    108          6           0        1.521938   -5.597060   -1.255378
    109          6           0        4.565233   -5.698443   -3.156851
    110          6           0        5.063145   -7.182291   -3.029153
    111          7           0        6.110719   -1.423375   -0.657741
    112          6           0        6.689321   -2.736463   -0.689463
    113          6           0        8.110204   -2.687892   -0.423402
    114          6           0        8.291034   -1.296274   -0.189524
    115          6           0        7.078554   -0.609733   -0.331408
    116          6           0        9.170910   -3.726609   -0.524764
    117          6           0        9.373323   -0.357200   -0.035547
    118          8           0       10.608335   -0.440414   -0.110871
    119          6           0        8.755260    0.999304    0.194134
    120          6           0        8.950774    1.378659    1.678637
    121          8           0        8.813301    0.647614    2.671462
    122          8           0        9.302897    2.694937    1.722994
    123          6           0        9.586336    3.295219    3.065108
    124          1           0        2.060123    3.151321   -0.892521
    125          1           0        0.545471   -2.950222   -2.017548
    126          1           0        6.386591   -4.893401   -1.000982
    127          1           0        6.305780    3.268132    1.464086
    128          1           0        4.574650    4.232807   -0.795819
    129          1           0        3.313096    5.166726    0.788962
    130          1           0        4.614585    4.848278    1.911191
    131          1           0        3.252989    3.701544    1.820289
    132          1           0        6.884415    3.832375   -1.480871
    133          1           0        8.127138    3.859875   -0.117879
    134          1           0        6.014239    5.867593    0.018714
    135          1           0        7.083354    5.990407   -1.474790
    136          1           0        0.044010    3.224717   -1.189997
    137          1           0       -1.279156    2.139971   -0.741928
    138          1           0       -0.997230    2.522609   -2.430129
    139          1           0       -2.108201    0.774839   -3.211523
    140          1           0       -2.950859    0.879936   -1.694458
    141          1           0       -3.413802   -0.336698   -2.746257
    142          1           0        2.190809   -4.812201   -3.104767
    143          1           0        4.019096   -5.874387   -1.162880
    144          1           0        1.121055   -6.289943   -1.994767
    145          1           0        0.780425   -4.985331   -0.741728
    146          1           0        1.979188   -6.106453   -0.407178
    147          1           0        5.470974   -5.113129   -3.312195
    148          1           0        3.903004   -5.678110   -4.021900
    149          1           0        4.906646   -7.541391   -2.011624
    150          1           0        6.135721   -7.179704   -3.225669
    151          1           0        4.661342   -7.876270   -3.767565
    152          1           0        8.771947   -4.625588   -0.993881
    153          1           0        9.381521   -4.018254    0.503515
    154          1           0        9.963270   -3.257432   -1.109767
    155          1           0        9.310294    1.660148   -0.471959
    156          1           0        8.853578    3.067063    3.839517
    157          1           0        9.750267    4.372221    3.050808
    158          1           0       10.500199    2.810920    3.408795
 ---------------------------------------------------------------------

 SCF Done:  E(RCAM-B3LYP) =  -4069.82619174     A.U. after   19 cycles

 Excitation energies and oscillator strengths:

 Excited State   1:      Singlet-A      1.6599 eV  746.92 nm  f=0.2765  <S**2>=0.000
     309 -> 315       -0.16048
     311 -> 313        0.67420
     312 -> 314        0.13005
     309 <- 315       -0.10180
 This state for optimization and/or second-order correction.
 Total Energy, E(TD-HF/TD-DFT) =  -4069.76518995
 Copying the excited state density for this state as the 1-particle RhoCI density.

 Excited State   2:      Singlet-A      1.7239 eV  719.23 nm  f=0.5277  <S**2>=0.000
     310 -> 316        0.17430
     311 -> 313       -0.13230
     312 -> 314        0.67073
     310 <- 316        0.10278

 Excited State   3:      Singlet-A      2.0157 eV  615.08 nm  f=0.0002  <S**2>=0.000
     312 -> 313        0.70427

 Excited State   4:      Singlet-A      2.1870 eV  566.92 nm  f=0.1173  <S**2>=0.000
     309 -> 313        0.65572
     311 -> 315        0.24167

 Excited State   5:      Singlet-A      2.2843 eV  542.76 nm  f=0.1087  <S**2>=0.000
     310 -> 314        0.63359
     312 -> 316       -0.29555

 The electronic state is 1-A.
 Alpha  occ. eigenvalues --  -46.89233 -46.88702 -19.25395 -19.25168 -19.20444
 Alpha  occ. eigenvalues --  -19.19836 -19.19186 -19.18591 -19.18543 -19.17204
 Alpha  occ. eigenvalues --  -14.42980 -14.41683 -14.41590 -14.41282 -14.40546
 Alpha  occ. eigenvalues --  -14.39816 -14.39537 -14.38790 -10.40151 -10.39280
 Alpha  occ. eigenvalues --  -10.36102 -10.35686 -10.34983 -10.32889 -10.32179
 Alpha  occ. eigenvalues --  -10.32027 -10.31885 -10.31398 -10.31220 -10.31201
 Alpha  occ. eigenvalues --  -10.31019 -10.30875 -10.30600 -10.30556 -10.30151
 Alpha  occ. eigenvalues --  -10.30073 -10.29866 -10.29856 -10.29799 -10.29702
 Alpha  occ. eigenvalues --  -10.29457 -10.29446 -10.29384 -10.29165 -10.28875
 Alpha  occ. eigenvalues --  -10.28704 -10.28554 -10.28309 -10.28263 -10.28242
 Alpha  occ. eigenvalues --  -10.28089 -10.28013 -10.27987 -10.27880 -10.27841
 Alpha  occ. eigenvalues --  -10.27755 -10.27715 -10.27607 -10.27561 -10.27519
 Alpha  occ. eigenvalues --  -10.27415 -10.27010 -10.26975 -10.26874 -10.26849
 Alpha  occ. eigenvalues --  -10.26733 -10.26616 -10.26578 -10.26496 -10.26458
 Alpha  occ. eigenvalues --  -10.26370 -10.26232 -10.26106 -10.25993 -10.25899
 Alpha  occ. eigenvalues --  -10.25872 -10.25825 -10.25800 -10.25755 -10.25703
 Alpha  occ. eigenvalues --  -10.25392 -10.25278 -10.25148 -10.24898 -10.24575
 Alpha  occ. eigenvalues --  -10.23848  -3.17803  -3.17229  -1.92672  -1.92258
 Alpha  occ. eigenvalues --   -1.92122  -1.92117  -1.91679  -1.91541  -1.16440
 Alpha  occ. eigenvalues --   -1.15318  -1.09940  -1.09360  -1.08625  -1.08522
 Alpha  occ. eigenvalues --   -1.07527  -1.06272  -1.05251  -1.04696  -1.03886
 Alpha  occ. eigenvalues --   -1.03819  -1.03515  -1.03361  -1.02490  -1.02473
 Alpha  occ. eigenvalues --   -0.92693  -0.90811  -0.89499  -0.89351  -0.88973
 Alpha  occ. eigenvalues --   -0.88467  -0.88444  -0.87704  -0.87654  -0.87082
 Alpha  occ. eigenvalues --   -0.86825  -0.86526  -0.86317  -0.85675  -0.84130
 Alpha  occ. eigenvalues --   -0.83762  -0.83702  -0.82935  -0.82625  -0.81885
 Alpha  occ. eigenvalues --   -0.81399  -0.81069  -0.80886  -0.80709  -0.80264
 Alpha  occ. eigenvalues --   -0.79483  -0.78952  -0.77850  -0.77271  -0.77179
 Alpha  occ. eigenvalues --   -0.76851  -0.76318  -0.76255  -0.75768  -0.75256
 Alpha  occ. eigenvalues --   -0.74791  -0.72891  -0.72074  -0.71383  -0.71256
 Alpha  occ. eigenvalues --   -0.70118  -0.69462  -0.69034  -0.68752  -0.68609
 Alpha  occ. eigenvalues --   -0.67872  -0.67271  -0.66810  -0.65649  -0.65404
 Alpha  occ. eigenvalues --   -0.65297  -0.64544  -0.64460  -0.64311  -0.64117
 Alpha  occ. eigenvalues --   -0.63517  -0.62317  -0.62266  -0.61160  -0.59943
 Alpha  occ. eigenvalues --   -0.59799  -0.59213  -0.59187  -0.58436  -0.58388
 Alpha  occ. eigenvalues --   -0.58137  -0.58020  -0.57523  -0.57378  -0.57053
 Alpha  occ. eigenvalues --   -0.56242  -0.56151  -0.55672  -0.55451  -0.55134
 Alpha  occ. eigenvalues --   -0.54869  -0.54797  -0.54631  -0.54167  -0.53936
 Alpha  occ. eigenvalues --   -0.53895  -0.53498  -0.53381  -0.53026  -0.52889
 Alpha  occ. eigenvalues --   -0.52723  -0.52607  -0.52320  -0.52072  -0.51840
 Alpha  occ. eigenvalues --   -0.51717  -0.51576  -0.51374  -0.51236  -0.51137
 Alpha  occ. eigenvalues --   -0.50771  -0.50643  -0.50262  -0.50245  -0.49967
 Alpha  occ. eigenvalues --   -0.49868  -0.49789  -0.49492  -0.49444  -0.49366
 Alpha  occ. eigenvalues --   -0.49219  -0.49121  -0.49024  -0.48958  -0.48684
 Alpha  occ. eigenvalues --   -0.48509  -0.48371  -0.48189  -0.48133  -0.48061
 Alpha  occ. eigenvalues --   -0.47900  -0.47673  -0.47439  -0.47348  -0.47076
 Alpha  occ. eigenvalues --   -0.46859  -0.46757  -0.46619  -0.46511  -0.46280
 Alpha  occ. eigenvalues --   -0.46186  -0.45858  -0.45823  -0.45646  -0.45631
 Alpha  occ. eigenvalues --   -0.45517  -0.45120  -0.44811  -0.44697  -0.44421
 Alpha  occ. eigenvalues --   -0.44365  -0.44228  -0.44210  -0.44076  -0.43922
 Alpha  occ. eigenvalues --   -0.43886  -0.43565  -0.43513  -0.43496  -0.43255
 Alpha  occ. eigenvalues --   -0.43247  -0.42878  -0.42745  -0.42716  -0.42448
 Alpha  occ. eigenvalues --   -0.42289  -0.42196  -0.42062  -0.41874  -0.41808
 Alpha  occ. eigenvalues --   -0.41744  -0.41554  -0.41412  -0.41261  -0.41121
 Alpha  occ. eigenvalues --   -0.40963  -0.40755  -0.40658  -0.40440  -0.40360
 Alpha  occ. eigenvalues --   -0.40056  -0.39796  -0.39623  -0.38861  -0.38847
 Alpha  occ. eigenvalues --   -0.38731  -0.38184  -0.37994  -0.37901  -0.37320
 Alpha  occ. eigenvalues --   -0.37192  -0.36912  -0.36690  -0.36639  -0.36395
 Alpha  occ. eigenvalues --   -0.35958  -0.35559  -0.34961  -0.34078  -0.33886
 Alpha  occ. eigenvalues --   -0.33653  -0.33473  -0.32857  -0.31816  -0.31297
 Alpha  occ. eigenvalues --   -0.31052  -0.30895  -0.30600  -0.30511  -0.29900
 Alpha  occ. eigenvalues --   -0.29798  -0.29524  -0.29175  -0.24461  -0.23455
 Alpha  occ. eigenvalues --   -0.21761  -0.20580
 Alpha virt. eigenvalues --   -0.09567  -0.07972  -0.01807  -0.01251  -0.00401
 Alpha virt. eigenvalues --    0.01066   0.01249   0.01816   0.02372   0.03147
 Alpha virt. eigenvalues --    0.04205   0.04963   0.05104   0.05598   0.05975

 Mulliken charges:
               1
     1  Mg   0.828772
     2  C    0.031973
     3  C   -0.050648
     4  C   -0.051101
     5  C   -0.058484
     6  N   -0.272943
     7  C   -0.060555
     8  C    0.007490
     9  C   -0.049354
    10  C   -0.015214
    11  C    0.071607
    12  C    0.034703
    13  C   -0.076295
    14  H    0.019317
    15  N   -0.407091
    16  C    0.181319
    17  C   -0.123436
    18  C    0.001152
    19  C    0.114733
    20  C    0.101169
    21  C   -0.003521
    22  O   -0.242075
    23  C    0.050646
    24  N   -0.268502
    25  C    0.062013
    26  C   -0.080095
    27  C    0.027273
    28  C   -0.004291
    29  C    0.067722
    30  C    0.030882
    31  C    0.009257
    32  N   -0.346004
    33  C    0.132692
    34  C   -0.192784
    35  C    0.049710
    36  C    0.068487
    37  C    0.114409
    38  C    0.043724
    39  O   -0.169356
    40  C   -0.074341
    41  C    0.216547
    42  O   -0.208891
    43  O   -0.344436
    44  C    0.170848
    45  H   -0.026337
    46  H   -0.002786
    47  H   -0.027682
    48  H    0.003041
    49  H    0.007959
    50  H    0.018330
    51  H    0.014067
    52  H    0.031004
    53  H    0.007141
    54  H    0.014879
    55  H    0.033898
    56  H    0.046757
    57  H    0.018473
    58  H    0.028582
    59  H    0.026035
    60  H    0.009787
    61  H    0.054228
    62  H    0.023713
    63  H    0.010319
    64  H    0.013555
    65  H    0.020416
    66  H    0.025817
    67  H    0.000514
    68  H    0.007919
    69  H    0.015241
    70  H    0.024183
    71  H    0.019756
    72  H    0.020223
    73  H    0.034893
    74  H   -0.001013
    75  H    0.034973
    76  H    0.038041
    77  H    0.041896
    78  H    0.038668
    79  H    0.048917
    80  Mg   0.828668
    81  C   -0.058902
    82  C   -0.072706
    83  C   -0.048509
    84  C   -0.065672
    85  N   -0.282575
    86  C   -0.072930
    87  C    0.037027
    88  C   -0.102371
    89  C    0.096469
    90  C    0.073077
    91  C    0.030815
    92  C   -0.078185
    93  H   -0.002326
    94  N   -0.352442
    95  C    0.094976
    96  C   -0.167781
    97  C   -0.020391
    98  C    0.113831
    99  C    0.118476
   100  C    0.039368
   101  O   -0.199901
   102  C    0.022514
   103  N   -0.202595
   104  C   -0.029580
   105  C   -0.063982
   106  C   -0.009422
   107  C   -0.016789
   108  C    0.084070
   109  C    0.049906
   110  C   -0.014373
   111  N   -0.363902
   112  C    0.116152
   113  C   -0.167117
   114  C   -0.034408
   115  C    0.165586
   116  C    0.154882
   117  C    0.030315
   118  O   -0.207020
   119  C    0.011631
   120  C    0.226830
   121  O   -0.238534
   122  O   -0.334510
   123  C    0.180114
   124  H   -0.045417
   125  H    0.006153
   126  H   -0.023557
   127  H    0.010676
   128  H    0.012489
   129  H    0.011579
   130  H    0.018973
   131  H    0.024346
   132  H    0.008409
   133  H    0.050949
   134  H    0.026616
   135  H    0.042436
   136  H   -0.002128
   137  H    0.027107
   138  H    0.042137
   139  H    0.025756
   140  H    0.070635
   141  H    0.032637
   142  H    0.012354
   143  H   -0.001943
   144  H    0.023530
   145  H    0.024269
   146  H    0.006727
   147  H    0.006198
   148  H    0.011444
   149  H    0.012578
   150  H    0.011695
   151  H    0.018559
   152  H   -0.003888
   153  H    0.039497
   154  H    0.057579
   155  H    0.039117
   156  H    0.039705
   157  H    0.044553
   158  H    0.038011
 Sum of Mulliken charges =  -0.00000

 Dipole moment (field-independent basis, Debye):
    X=             -5.6026    Y=              2.2493    Z=              2.9883  Tot=              6.7364
 Quadrupole moment (field-independent basis, Debye-Ang):
   XX=           -572.4389   YY=           -484.7427   ZZ=           -487.9993
   XY=             21.9298   XZ=            -19.5344   YZ=             29.5412

 Normal termination of Gaussian 16 at Wed Sep  1 09:44:35 2021.
