 Gaussian 16, Revision A.03,
 Gaussian 16:  ES64L-G16RevA.03 25-Dec-2016

 -----------------------------------
 #p cam-b3lyp/Def2SVP td=(nstates=5)
 -----------------------------------

 --------------------------------
 TDDFT excited states in gaussian
 --------------------------------
 Symbolic Z-matrix:
 Charge =  0 Multiplicity = 1

                         Standard orientation:
 ---------------------------------------------------------------------
 Center     Atomic      Atomic             Coordinates (Angstroms)
 Number     Number       Type             X           Y           Z
 ---------------------------------------------------------------------
      1         12           0       30.397429    0.381470   -0.601209
      2          6           0       27.593322   -1.806873   -0.760201
      3          6           0       28.325170    3.040326   -1.208648
      4          6           0       32.888103    2.531835    0.590230
      5          6           0       32.335059   -2.297381    0.589510
      6          7           0       28.068743    0.525586   -0.692482
      7          6           0       27.202115   -0.461718   -0.971646
      8          6           0       25.968714    0.124667   -1.633794
      9          6           0       26.157581    1.714918   -1.725256
     10          6           0       27.711479    1.723351   -1.296424
     11          6           0       25.910438    2.162376   -3.183501
     12          6           0       24.710658   -0.259037   -0.871460
     13          6           0       24.811986   -0.292066    0.672053
     14          1           0       24.108146    0.856313    1.445431
     15          7           0       30.626373    2.542147   -0.419793
     16          6           0       29.605184    3.415377   -0.725296
     17          6           0       30.178312    4.722709   -0.651930
     18          6           0       31.487450    4.658872   -0.038972
     19          6           0       31.770755    3.203417    0.039539
     20          6           0       29.382637    5.977331   -0.928573
     21          6           0       32.313681    5.811174    0.534560
     22          8           0       31.864047    6.940926    0.535124
     23          6           0       33.616997    5.641182    1.103642
     24          7           0       32.290690    0.169177    0.533452
     25          6           0       33.144031    1.161360    0.739811
     26          6           0       34.416846    0.724851    1.446864
     27          6           0       34.039768   -0.786573    1.761539
     28          6           0       32.868847   -1.031649    0.879738
     29          6           0       35.742127    0.874953    0.551674
     30          6           0       33.796089   -0.987717    3.327864
     31          6           0       34.750270   -1.807619    4.149335
     32          7           0       30.158079   -1.604380   -0.404934
     33          6           0       31.081916   -2.598972   -0.024403
     34          6           0       30.492672   -3.942190   -0.178010
     35          6           0       29.167229   -3.631049   -0.480910
     36          6           0       28.930498   -2.212080   -0.497472
     37          6           0       31.184900   -5.348270   -0.136518
     38          6           0       27.874440   -4.268317   -0.751028
     39          8           0       27.513196   -5.453665   -0.836812
     40          6           0       26.811178   -3.139920   -0.959358
     41          6           0       25.906516   -3.433411    0.187323
     42          8           0       26.235543   -3.454686    1.345633
     43          8           0       24.707583   -3.796512   -0.259259
     44          6           0       23.601114   -4.058711    0.726088
     45          1           0       27.753103    3.837946   -1.686871
     46          1           0       33.769543    3.076792    0.933969
     47          1           0       32.978623   -3.033056    1.077489
     48          1           0       26.029892   -0.412078   -2.580534
     49          1           0       25.517197    2.253386   -1.026134
     50          1           0       25.081964    2.870423   -3.184581
     51          1           0       25.619979    1.358769   -3.860713
     52          1           0       26.819697    2.676698   -3.493502
     53          1           0       24.381763   -1.249194   -1.187043
     54          1           0       23.912266    0.457672   -1.066006
     55          1           0       25.798193   -0.165487    1.118465
     56          1           0       24.384800   -1.255761    0.949610
     57          1           0       28.337346    5.755397   -1.145060
     58          1           0       29.905689    6.533102   -1.707555
     59          1           0       29.491294    6.625955   -0.060037
     60          1           0       33.657567    5.031964    2.006842
     61          1           0       34.025070    6.617294    1.365211
     62          1           0       34.159030    5.128023    0.308568
     63          1           0       34.565329    1.189356    2.421363
     64          1           0       34.991661   -1.282512    1.570834
     65          1           0       35.486175    1.338712   -0.401411
     66          1           0       36.103699   -0.132078    0.342826
     67          1           0       36.578664    1.397281    1.018429
     68          1           0       32.881219   -1.549793    3.515795
     69          1           0       33.715612   -0.028203    3.836860
     70          1           0       34.394259   -2.815027    4.365085
     71          1           0       34.762904   -1.207008    5.059441
     72          1           0       35.792671   -1.749564    3.835643
     73          1           0       31.389316   -5.584369    0.907429
     74          1           0       32.068596   -5.287734   -0.771960
     75          1           0       30.468600   -6.092929   -0.483173
     76          1           0       26.401453   -3.296102   -1.957949
     77          1           0       23.616696   -5.075712    1.118625
     78          1           0       22.622830   -3.893876    0.272717
     79          1           0       23.753892   -3.321464    1.514247
     80         12           0      -30.187890    0.296464    0.536688
     81          6           0      -28.121199   -1.671169   -1.669445
     82          6           0      -30.533287    2.569898   -2.110863
     83          6           0      -32.168588    2.042597    2.488033
     84          6           0      -29.461145   -1.931612    3.130651
     85          7           0      -29.349534    0.393818   -1.668891
     86          6           0      -28.737743   -0.589961   -2.379624
     87          6           0      -28.740065   -0.300024   -3.871729
     88          6           0      -29.216116    1.255327   -3.968615
     89          6           0      -29.706751    1.439849   -2.503499
     90          6           0      -28.130593    2.242288   -4.466353
     91          6           0      -29.654361   -1.283519   -4.677571
     92          6           0      -28.916219   -2.048007   -5.806898
     93          1           0      -29.459890   -1.690872   -7.308021
     94          7           0      -31.182830    2.005027    0.236432
     95          6           0      -31.219276    2.875399   -0.905181
     96          6           0      -32.092993    4.057597   -0.716646
     97          6           0      -32.592912    3.836439    0.608377
     98          6           0      -31.990598    2.607275    1.151294
     99          6           0      -32.302562    5.168348   -1.747804
    100          6           0      -33.481719    4.705507    1.413965
    101          8           0      -34.066755    4.374141    2.439483
    102          6           0      -33.819568    6.102970    0.858387
    103          7           0      -30.848048   -0.022482    2.434715
    104          6           0      -31.654671    0.867336    3.056901
    105          6           0      -31.778114    0.615257    4.533906
    106          6           0      -30.962211   -0.679224    4.771882
    107          6           0      -30.415298   -0.958916    3.353878
    108          6           0      -31.410566    1.793565    5.411193
    109          6           0      -31.940976   -1.895227    5.276285
    110          6           0      -31.497838   -2.629876    6.655484
    111          7           0      -28.819310   -1.308405    0.806060
    112          6           0      -28.720374   -2.162171    1.931022
    113          6           0      -27.808181   -3.256784    1.580496
    114          6           0      -27.691434   -3.146362    0.169872
    115          6           0      -28.207698   -1.909015   -0.217966
    116          6           0      -27.176368   -4.326924    2.465622
    117          6           0      -26.937359   -3.733631   -0.973481
    118          8           0      -26.130599   -4.693268   -1.120724
    119          6           0      -27.319062   -2.837257   -2.214331
    120          6           0      -26.053501   -2.395734   -2.888315
    121          8           0      -25.086059   -1.989180   -2.309385
    122          8           0      -26.140406   -2.642453   -4.230336
    123          6           0      -24.823653   -2.554715   -4.910790
    124          1           0      -30.498147    3.307002   -2.915528
    125          1           0      -32.814090    2.579124    3.186970
    126          1           0      -29.250168   -2.661448    3.914747
    127          1           0      -27.698168   -0.350620   -4.188049
    128          1           0      -30.102210    1.382773   -4.591043
    129          1           0      -27.854767    2.945279   -3.679787
    130          1           0      -28.483738    2.786588   -5.343178
    131          1           0      -27.218839    1.789772   -4.856341
    132          1           0      -30.484625   -0.762795   -5.155358
    133          1           0      -30.082664   -2.052486   -4.034098
    134          1           0      -29.122122   -3.118697   -5.804387
    135          1           0      -27.828613   -1.994137   -5.770494
    136          1           0      -32.027770    4.945998   -2.779380
    137          1           0      -31.855825    6.130729   -1.498304
    138          1           0      -33.378943    5.342994   -1.752197
    139          1           0      -32.913771    6.701097    0.759383
    140          1           0      -34.568894    6.618588    1.459961
    141          1           0      -34.256831    5.970111   -0.131170
    142          1           0      -32.836133    0.480759    4.762901
    143          1           0      -30.131206   -0.503346    5.454326
    144          1           0      -32.270547    2.268575    5.884111
    145          1           0      -30.950852    2.632941    4.889580
    146          1           0      -30.697919    1.443934    6.158468
    147          1           0      -32.062098   -2.696964    4.548559
    148          1           0      -32.960330   -1.559073    5.464228
    149          1           0      -30.847927   -1.918969    7.166088
    150          1           0      -30.982469   -3.572416    6.466252
    151          1           0      -32.341043   -2.736180    7.337485
    152          1           0      -27.022952   -5.264680    1.931958
    153          1           0      -27.912036   -4.593819    3.225238
    154          1           0      -26.329907   -3.810945    2.919028
    155          1           0      -27.808133   -3.508601   -2.919713
    156          1           0      -24.398643   -1.580644   -4.669370
    157          1           0      -25.088211   -2.526601   -5.967709
    158          1           0      -24.050744   -3.285206   -4.671998
 ---------------------------------------------------------------------

 SCF Done:  E(RCAM-B3LYP) =  -4069.76281641     A.U. after   18 cycles

 Excitation energies and oscillator strengths:

 Excited State   1:      Singlet-A      1.6722 eV  741.46 nm  f=0.3663  <S**2>=0.000
     310 -> 316       -0.18800
     312 -> 313        0.68424
     310 <- 316       -0.11182
 This state for optimization and/or second-order correction.
 Total Energy, E(TD-HF/TD-DFT) =  -4069.70136525
 Copying the excited state density for this state as the 1-particle RhoCI density.

 Excited State   2:      Singlet-A      1.6890 eV  734.08 nm  f=0.3582  <S**2>=0.000
     309 -> 315       -0.20075
     311 -> 314        0.68045
     309 <- 315       -0.11491

 Excited State   3:      Singlet-A      2.1741 eV  570.29 nm  f=0.1342  <S**2>=0.000
     310 -> 313        0.64728
     312 -> 316        0.27762

 Excited State   4:      Singlet-A      2.1999 eV  563.59 nm  f=0.0721  <S**2>=0.000
     309 -> 314        0.61855
     311 -> 315        0.32994

 Excited State   5:      Singlet-A      3.2022 eV  387.18 nm  f=0.0000  <S**2>=0.000
     311 -> 313        0.70711

 The electronic state is 1-A.
 Alpha  occ. eigenvalues --  -46.90216 -46.88531 -19.25647 -19.25080 -19.19745
 Alpha  occ. eigenvalues --  -19.18953 -19.18860 -19.18857 -19.18685 -19.18073
 Alpha  occ. eigenvalues --  -14.42607 -14.42435 -14.41978 -14.41935 -14.40716
 Alpha  occ. eigenvalues --  -14.40143 -14.39544 -14.39250 -10.38819 -10.38730
 Alpha  occ. eigenvalues --  -10.35142 -10.35123 -10.34973 -10.34326 -10.32461
 Alpha  occ. eigenvalues --  -10.32011 -10.31925 -10.31829 -10.31577 -10.31488
 Alpha  occ. eigenvalues --  -10.31394 -10.31289 -10.30984 -10.30932 -10.30867
 Alpha  occ. eigenvalues --  -10.30799 -10.30742 -10.30709 -10.30668 -10.29979
 Alpha  occ. eigenvalues --  -10.29959 -10.29853 -10.29099 -10.29040 -10.28994
 Alpha  occ. eigenvalues --  -10.28906 -10.28859 -10.28823 -10.28732 -10.28629
 Alpha  occ. eigenvalues --  -10.28531 -10.28451 -10.28406 -10.28387 -10.28239
 Alpha  occ. eigenvalues --  -10.28158 -10.28102 -10.28083 -10.28068 -10.27961
 Alpha  occ. eigenvalues --  -10.27854 -10.27830 -10.27674 -10.27444 -10.27328
 Alpha  occ. eigenvalues --  -10.27239 -10.27144 -10.27018 -10.26993 -10.26915
 Alpha  occ. eigenvalues --  -10.26801 -10.26757 -10.26597 -10.26595 -10.26418
 Alpha  occ. eigenvalues --  -10.26195 -10.26125 -10.26111 -10.26055 -10.25914
 Alpha  occ. eigenvalues --  -10.25790 -10.25641 -10.25522 -10.25491 -10.25188
 Alpha  occ. eigenvalues --  -10.25054  -3.18522  -3.17174  -1.93386  -1.93010
 Alpha  occ. eigenvalues --   -1.92800  -1.92071  -1.91629  -1.91495  -1.17066
 Alpha  occ. eigenvalues --   -1.16962  -1.10219  -1.09968  -1.08821  -1.08685
 Alpha  occ. eigenvalues --   -1.07707  -1.07065  -1.04605  -1.03999  -1.03681
 Alpha  occ. eigenvalues --   -1.03267  -1.02583  -1.02401  -1.02015  -1.01606
 Alpha  occ. eigenvalues --   -0.91949  -0.91576  -0.88955  -0.88822  -0.88641
 Alpha  occ. eigenvalues --   -0.88496  -0.88257  -0.88127  -0.87413  -0.87091
 Alpha  occ. eigenvalues --   -0.86995  -0.86123  -0.85636  -0.85361  -0.84690
 Alpha  occ. eigenvalues --   -0.84048  -0.84022  -0.83171  -0.82856  -0.82622
 Alpha  occ. eigenvalues --   -0.81816  -0.81393  -0.81097  -0.80675  -0.80257
 Alpha  occ. eigenvalues --   -0.79759  -0.79095  -0.77904  -0.77351  -0.77098
 Alpha  occ. eigenvalues --   -0.76785  -0.76392  -0.76303  -0.76035  -0.75227
 Alpha  occ. eigenvalues --   -0.74968  -0.72859  -0.72556  -0.71725  -0.71419
 Alpha  occ. eigenvalues --   -0.69175  -0.68903  -0.68747  -0.68530  -0.68123
 Alpha  occ. eigenvalues --   -0.67594  -0.67090  -0.66685  -0.65920  -0.65634
 Alpha  occ. eigenvalues --   -0.65586  -0.65197  -0.64758  -0.64386  -0.64033
 Alpha  occ. eigenvalues --   -0.63996  -0.62421  -0.62367  -0.60801  -0.60288
 Alpha  occ. eigenvalues --   -0.59275  -0.59262  -0.58982  -0.58737  -0.58694
 Alpha  occ. eigenvalues --   -0.58347  -0.57957  -0.57805  -0.57265  -0.57138
 Alpha  occ. eigenvalues --   -0.56319  -0.56138  -0.55844  -0.55276  -0.55063
 Alpha  occ. eigenvalues --   -0.55038  -0.54909  -0.54512  -0.54497  -0.53867
 Alpha  occ. eigenvalues --   -0.53778  -0.53535  -0.53394  -0.53060  -0.52667
 Alpha  occ. eigenvalues --   -0.52619  -0.52563  -0.52494  -0.52155  -0.52022
 Alpha  occ. eigenvalues --   -0.51753  -0.51654  -0.51529  -0.51450  -0.51376
 Alpha  occ. eigenvalues --   -0.50848  -0.50673  -0.50460  -0.50161  -0.50064
 Alpha  occ. eigenvalues --   -0.49968  -0.49805  -0.49802  -0.49691  -0.49485
 Alpha  occ. eigenvalues --   -0.49427  -0.49216  -0.49209  -0.48951  -0.48784
 Alpha  occ. eigenvalues --   -0.48510  -0.48260  -0.48245  -0.48114  -0.48006
 Alpha  occ. eigenvalues --   -0.47799  -0.47565  -0.47467  -0.47305  -0.47046
 Alpha  occ. eigenvalues --   -0.46952  -0.46902  -0.46841  -0.46597  -0.46567
 Alpha  occ. eigenvalues --   -0.46292  -0.46202  -0.45945  -0.45804  -0.45601
 Alpha  occ. eigenvalues --   -0.45573  -0.45308  -0.45182  -0.45097  -0.44987
 Alpha  occ. eigenvalues --   -0.44894  -0.44813  -0.44774  -0.44375  -0.44356
 Alpha  occ. eigenvalues --   -0.44098  -0.43949  -0.43882  -0.43786  -0.43676
 Alpha  occ. eigenvalues --   -0.43575  -0.43318  -0.43213  -0.42887  -0.42861
 Alpha  occ. eigenvalues --   -0.42608  -0.42389  -0.42217  -0.42035  -0.41996
 Alpha  occ. eigenvalues --   -0.41544  -0.41494  -0.41405  -0.41312  -0.41285
 Alpha  occ. eigenvalues --   -0.40859  -0.40793  -0.40694  -0.40434  -0.40178
 Alpha  occ. eigenvalues --   -0.40120  -0.40023  -0.39803  -0.39378  -0.38643
 Alpha  occ. eigenvalues --   -0.38599  -0.38232  -0.37990  -0.37489  -0.37419
 Alpha  occ. eigenvalues --   -0.37340  -0.37110  -0.36747  -0.36382  -0.36379
 Alpha  occ. eigenvalues --   -0.35709  -0.35502  -0.34639  -0.34421  -0.34250
 Alpha  occ. eigenvalues --   -0.34104  -0.33348  -0.33018  -0.31633  -0.31382
 Alpha  occ. eigenvalues --   -0.30992  -0.30744  -0.30678  -0.30596  -0.30275
 Alpha  occ. eigenvalues --   -0.30271  -0.29384  -0.28923  -0.24282  -0.23906
 Alpha  occ. eigenvalues --   -0.21317  -0.21305
 Alpha virt. eigenvalues --   -0.08980  -0.08767  -0.02556  -0.01834   0.00131
 Alpha virt. eigenvalues --    0.00265   0.01029   0.02056   0.02428   0.03556
 Alpha virt. eigenvalues --    0.04228   0.04785   0.05189   0.05215   0.05699

 Mulliken charges:
               1
     1  Mg   0.809008
     2  C   -0.024267
     3  C   -0.063364
     4  C   -0.069247
     5  C   -0.046411
     6  N   -0.259842
     7  C   -0.095476
     8  C    0.047085
     9  C   -0.094990
    10  C    0.038579
    11  C    0.067261
    12  C    0.028236
    13  C   -0.086694
    14  H   -0.003187
    15  N   -0.383424
    16  C    0.151018
    17  C   -0.160419
    18  C   -0.041649
    19  C    0.173078
    20  C    0.133630
    21  C   -0.012992
    22  O   -0.204469
    23  C    0.070710
    24  N   -0.255745
    25  C    0.022680
    26  C   -0.100944
    27  C   -0.016292
    28  C    0.028502
    29  C    0.062468
    30  C    0.013444
    31  C    0.006259
    32  N   -0.412697
    33  C    0.143982
    34  C   -0.181409
    35  C    0.017264
    36  C    0.150127
    37  C    0.132503
    38  C    0.023756
    39  O   -0.196820
    40  C    0.022543
    41  C    0.168906
    42  O   -0.207060
    43  O   -0.315696
    44  C    0.170848
    45  H   -0.008635
    46  H   -0.041489
    47  H   -0.025243
    48  H    0.008617
    49  H    0.035951
    50  H    0.010332
    51  H    0.022945
    52  H    0.020738
    53  H    0.017521
    54  H    0.016120
    55  H    0.065842
    56  H    0.027700
    57  H    0.007257
    58  H    0.023919
    59  H    0.038903
    60  H    0.044555
    61  H    0.029502
    62  H    0.034963
    63  H    0.015070
    64  H   -0.005470
    65  H    0.022369
    66  H    0.010545
    67  H    0.024188
    68  H    0.012534
    69  H    0.009690
    70  H    0.031457
    71  H    0.006065
    72  H    0.005304
    73  H    0.031938
    74  H    0.034993
    75  H    0.039156
    76  H    0.037223
    77  H    0.053543
    78  H    0.040961
    79  H    0.052145
    80  Mg   0.847853
    81  C   -0.001737
    82  C   -0.070329
    83  C   -0.074625
    84  C   -0.071499
    85  N   -0.234935
    86  C   -0.059635
    87  C   -0.007889
    88  C   -0.060912
    89  C   -0.011734
    90  C    0.063504
    91  C    0.083070
    92  C   -0.087384
    93  H   -0.024412
    94  N   -0.426844
    95  C    0.167394
    96  C   -0.118190
    97  C   -0.023628
    98  C    0.156008
    99  C    0.116653
   100  C   -0.017484
   101  O   -0.205542
   102  C    0.043891
   103  N   -0.341315
   104  C    0.066796
   105  C   -0.028589
   106  C   -0.019872
   107  C    0.079923
   108  C    0.060063
   109  C    0.009272
   110  C   -0.025251
   111  N   -0.337590
   112  C    0.099377
   113  C   -0.169949
   114  C   -0.076881
   115  C    0.107735
   116  C    0.138082
   117  C    0.126508
   118  O   -0.213865
   119  C   -0.017335
   120  C    0.167631
   121  O   -0.184919
   122  O   -0.341782
   123  C    0.175208
   124  H   -0.029242
   125  H   -0.005845
   126  H   -0.030417
   127  H    0.018807
   128  H    0.016868
   129  H    0.026965
   130  H    0.012702
   131  H    0.019570
   132  H    0.025447
   133  H    0.021778
   134  H    0.031691
   135  H    0.040532
   136  H    0.023778
   137  H    0.039973
   138  H    0.023460
   139  H    0.031144
   140  H    0.026925
   141  H    0.018577
   142  H    0.019947
   143  H    0.024847
   144  H    0.017943
   145  H    0.020720
   146  H    0.007142
   147  H    0.019123
   148  H    0.011316
   149  H    0.007541
   150  H    0.031107
   151  H    0.018745
   152  H    0.040481
   153  H    0.005573
   154  H    0.045668
   155  H    0.036808
   156  H    0.033038
   157  H    0.034362
   158  H    0.058083
 Sum of Mulliken charges =  -0.00000

 Dipole moment (field-independent basis, Debye):
    X=             -0.6156    Y=              3.5116    Z=             -2.9280  Tot=              4.6135
 Quadrupole moment (field-independent basis, Debye-Ang):
   XX=           -243.5974   YY=           -561.1102   ZZ=           -479.4063
   XY=           -105.8695   XZ=             23.5212   YZ=            -26.6051

 Normal termination of Gaussian 16 at Tue Sep 14 19:31:36 2021.
