 Gaussian 16, Revision A.03,
 Gaussian 16:  ES64L-G16RevA.03 25-Dec-2016

 ----------------------------------------------------------
 #p cam-b3lyp/Def2SVP td=(nstates=5) density=(transition=1)
 ----------------------------------------------------------

 --------------------------------
 TDDFT excited states in gaussian
 --------------------------------
 Symbolic Z-matrix:
 Charge =  0 Multiplicity = 1

                         Standard orientation:
 ---------------------------------------------------------------------
 Center     Atomic      Atomic             Coordinates (Angstroms)
 Number     Number       Type             X           Y           Z
 ---------------------------------------------------------------------
      1         12           0      -13.907787   -0.510662    0.279167
      2          6           0      -12.940276    2.888760   -0.870341
      3          6           0      -12.390937    0.391333    3.161785
      4          6           0      -14.526777   -3.522637    1.048896
      5          6           0      -14.605968   -1.206807   -3.141628
      6          7           0      -12.767407    1.394473    0.996440
      7          6           0      -12.681421    2.656319    0.432948
      8          6           0      -12.185262    3.749023    1.386807
      9          6           0      -11.593921    2.834699    2.503800
     10          6           0      -12.267129    1.433089    2.236800
     11          6           0      -10.101107    2.734254    2.521843
     12          6           0      -13.229514    4.815940    1.858118
     13          6           0      -12.738373    6.190531    2.167958
     14          1           0      -13.424470    6.878739    3.343736
     15          7           0      -13.553030   -1.472810    1.944131
     16          6           0      -12.952754   -0.924866    3.097060
     17          6           0      -13.073575   -1.890221    4.151269
     18          6           0      -13.848532   -2.972885    3.546334
     19          6           0      -13.990556   -2.662866    2.169546
     20          6           0      -12.621606   -1.664108    5.641384
     21          6           0      -14.368209   -4.174727    4.274228
     22          8           0      -14.974420   -5.101144    3.682902
     23          6           0      -14.257602   -4.345959    5.745296
     24          7           0      -14.327315   -2.195732   -0.849796
     25          6           0      -14.575164   -3.379923   -0.286580
     26          6           0      -15.000103   -4.488379   -1.302363
     27          6           0      -15.431062   -3.561165   -2.499239
     28          6           0      -14.706404   -2.225045   -2.179581
     29          6           0      -13.808115   -5.419700   -1.694292
     30          6           0      -16.999865   -3.330689   -2.548742
     31          6           0      -17.945260   -4.550265   -2.564719
     32          7           0      -13.849708    0.591892   -1.621207
     33          6           0      -14.231662    0.161740   -2.886834
     34          6           0      -14.023156    1.223597   -3.843234
     35          6           0      -13.558654    2.312318   -3.094283
     36          6           0      -13.380459    1.870519   -1.754493
     37          6           0      -14.383131    1.208467   -5.290826
     38          6           0      -13.152024    3.708300   -3.188025
     39          8           0      -13.127327    4.527017   -4.097446
     40          6           0      -12.825810    4.111786   -1.657606
     41          6           0      -11.511090    4.729255   -1.688516
     42          8           0      -10.442869    4.191651   -2.020428
     43          8           0      -11.689295    6.082586   -1.723924
     44          6           0      -10.549511    6.936669   -1.823418
     45          1           0      -12.019793    0.798249    4.104909
     46          1           0      -14.755839   -4.566846    1.270796
     47          1           0      -14.851727   -1.475878   -4.171398
     48          1           0      -11.367045    4.264709    0.883675
     49          1           0      -11.987475    3.119404    3.479138
     50          1           0       -9.845135    1.746494    2.138501
     51          1           0       -9.743268    2.771448    3.550659
     52          1           0       -9.543320    3.467431    1.939573
     53          1           0      -13.656111    4.446753    2.790322
     54          1           0      -14.031769    4.830175    1.120849
     55          1           0      -12.952512    6.747242    1.255864
     56          1           0      -11.650223    6.254846    2.177100
     57          1           0      -13.426698   -1.500113    6.357037
     58          1           0      -11.877629   -0.871344    5.714921
     59          1           0      -12.105052   -2.601995    5.849192
     60          1           0      -13.227862   -4.616086    5.980718
     61          1           0      -14.934709   -5.162842    5.996435
     62          1           0      -14.616250   -3.419021    6.191564
     63          1           0      -15.799930   -5.046426   -0.814411
     64          1           0      -15.104038   -3.882986   -3.487505
     65          1           0      -14.037470   -6.401967   -1.280444
     66          1           0      -12.817497   -5.075726   -1.398646
     67          1           0      -13.903923   -5.447088   -2.780656
     68          1           0      -17.241000   -2.807760   -3.473909
     69          1           0      -17.226038   -2.633155   -1.742468
     70          1           0      -18.574901   -4.420820   -1.684565
     71          1           0      -17.280486   -5.401864   -2.417147
     72          1           0      -18.563706   -4.590229   -3.461269
     73          1           0      -15.023104    0.332438   -5.398699
     74          1           0      -13.446183    1.074396   -5.831358
     75          1           0      -14.834393    2.134412   -5.647279
     76          1           0      -13.577236    4.814683   -1.298351
     77          1           0       -9.618191    6.369911   -1.827040
     78          1           0      -10.569223    7.539045   -0.915117
     79          1           0      -10.653364    7.640907   -2.647638
     80         12           0       13.137882   -0.824788   -0.448438
     81          6           0       15.424110    1.756279    0.140549
     82          6           0       10.665913    1.118617    0.490865
     83          6           0       11.082539   -3.574599   -0.314620
     84          6           0       15.834595   -3.045533   -0.959854
     85          7           0       13.096671    1.202998    0.124027
     86          6           0       14.103104    2.134759    0.253007
     87          6           0       13.550808    3.534919    0.486956
     88          6           0       12.053778    3.229471    0.813660
     89          6           0       11.898579    1.819317    0.361159
     90          6           0       11.513513    3.524103    2.196347
     91          6           0       13.805597    4.544924   -0.677181
     92          6           0       13.276996    5.963394   -0.437821
     93          1           0       14.276154    7.092105   -0.645643
     94          7           0       11.059402   -1.198263    0.110000
     95          6           0       10.178551   -0.200103    0.330222
     96          6           0        8.857113   -0.752320    0.443437
     97          6           0        8.981922   -2.146615    0.317398
     98          6           0       10.428835   -2.355219    0.038497
     99          6           0        7.618373    0.073264    0.720031
    100          6           0        7.929102   -3.206039    0.329707
    101          8           0        8.125005   -4.450587    0.353809
    102          6           0        6.456067   -2.821053    0.267036
    103          7           0       13.426833   -2.958543   -0.583162
    104          6           0       12.431580   -3.862260   -0.426918
    105          6           0       12.973667   -5.340547   -0.819517
    106          6           0       14.367364   -5.014669   -1.462477
    107          6           0       14.564788   -3.587706   -1.062515
    108          6           0       13.024436   -6.232579    0.482034
    109          6           0       14.278092   -5.038345   -3.032186
    110          6           0       13.197319   -4.226674   -3.729234
    111          7           0       15.277621   -0.703209   -0.484215
    112          6           0       16.184978   -1.701324   -0.711251
    113          6           0       17.447552   -1.126681   -0.640767
    114          6           0       17.284334    0.243237   -0.285522
    115          6           0       15.933458    0.455239   -0.199497
    116          6           0       18.780419   -1.775764   -0.769176
    117          6           0       17.933535    1.532937    0.041889
    118          8           0       19.101709    1.882547    0.166353
    119          6           0       16.719392    2.597656    0.233605
    120          6           0       16.936454    3.423078    1.451530
    121          8           0       17.457081    3.002649    2.527228
    122          8           0       16.647278    4.675566    1.125272
    123          6           0       17.226445    5.666482    2.012020
    124          1           0        9.793996    1.747459    0.683261
    125          1           0       10.436123   -4.455463   -0.311402
    126          1           0       16.633092   -3.730092   -1.250210
    127          1           0       14.154586    3.921597    1.308171
    128          1           0       11.359337    3.776148    0.174773
    129          1           0       12.079762    4.227815    2.806439
    130          1           0       11.385933    2.585260    2.735901
    131          1           0       10.458138    3.770039    2.077217
    132          1           0       13.395970    4.144784   -1.605004
    133          1           0       14.877711    4.611685   -0.859248
    134          1           0       13.174174    6.173824    0.626572
    135          1           0       12.343771    6.134717   -0.975139
    136          1           0        7.808652    1.120359    0.955291
    137          1           0        7.072550   -0.179868    1.628605
    138          1           0        6.896016    0.059255   -0.096703
    139          1           0        6.196743   -2.341741    1.210615
    140          1           0        5.803616   -3.690970    0.338721
    141          1           0        6.194506   -2.262983   -0.632716
    142          1           0       12.269630   -5.818150   -1.500951
    143          1           0       15.069583   -5.678014   -0.957580
    144          1           0       12.479014   -5.805583    1.323817
    145          1           0       14.030017   -6.404110    0.866415
    146          1           0       12.550108   -7.205555    0.362167
    147          1           0       14.128146   -6.108546   -3.174988
    148          1           0       15.201218   -4.769737   -3.544902
    149          1           0       12.465638   -3.873851   -3.002103
    150          1           0       12.719912   -4.692743   -4.590503
    151          1           0       13.772204   -3.421115   -4.186118
    152          1           0       18.915657   -2.346262   -1.688401
    153          1           0       18.826784   -2.485756    0.056068
    154          1           0       19.602652   -1.070433   -0.653031
    155          1           0       16.812021    3.249108   -0.634994
    156          1           0       17.637622    6.492679    1.430642
    157          1           0       18.053953    5.331093    2.636740
    158          1           0       16.402760    6.035344    2.624107
 ---------------------------------------------------------------------

 SCF Done:  E(RCAM-B3LYP) =  -4069.81706997     A.U. after   19 cycles

 Excitation energies and oscillator strengths:

 Excited State   1:      Singlet-A      1.6589 eV  747.38 nm  f=0.3870  <S**2>=0.000
     309 -> 316       -0.15617
     311 -> 313        0.69155
     309 <- 316       -0.10434
 This state for optimization and/or second-order correction.
 Total Energy, E(TD-HF/TD-DFT) =  -4069.75610580
 Copying the excited state density for this state as the 1-particle RhoCI density.

 Excited State   2:      Singlet-A      1.7146 eV  723.11 nm  f=0.3961  <S**2>=0.000
     310 -> 315       -0.16596
     312 -> 314        0.68894
     310 <- 315       -0.10310

 Excited State   3:      Singlet-A      2.1454 eV  577.90 nm  f=0.1612  <S**2>=0.000
     310 -> 314        0.66329
     312 -> 315        0.22675

 Excited State   4:      Singlet-A      2.1781 eV  569.23 nm  f=0.2214  <S**2>=0.000
     309 -> 313        0.66748
     311 -> 316        0.21692

 Excited State   5:      Singlet-A      2.9287 eV  423.35 nm  f=0.0000  <S**2>=0.000
     312 -> 313        0.70709

 The electronic state is 1-A.
 Alpha  occ. eigenvalues --  -46.89376 -46.88984 -19.26663 -19.24917 -19.19984
 Alpha  occ. eigenvalues --  -19.19524 -19.19100 -19.19051 -19.18451 -19.17512
 Alpha  occ. eigenvalues --  -14.42898 -14.42397 -14.41820 -14.41517 -14.39791
 Alpha  occ. eigenvalues --  -14.39757 -14.39658 -14.38020 -10.39248 -10.39240
 Alpha  occ. eigenvalues --  -10.36070 -10.35746 -10.34824 -10.34069 -10.32116
 Alpha  occ. eigenvalues --  -10.32023 -10.31491 -10.31236 -10.31086 -10.31011
 Alpha  occ. eigenvalues --  -10.30894 -10.30823 -10.30783 -10.30777 -10.30623
 Alpha  occ. eigenvalues --  -10.30539 -10.30450 -10.30091 -10.29935 -10.29758
 Alpha  occ. eigenvalues --  -10.29252 -10.29161 -10.29142 -10.29053 -10.28522
 Alpha  occ. eigenvalues --  -10.28407 -10.28308 -10.28303 -10.28246 -10.28213
 Alpha  occ. eigenvalues --  -10.28198 -10.28198 -10.28192 -10.28166 -10.28113
 Alpha  occ. eigenvalues --  -10.28096 -10.28013 -10.27878 -10.27863 -10.27850
 Alpha  occ. eigenvalues --  -10.27780 -10.27759 -10.27699 -10.27512 -10.27470
 Alpha  occ. eigenvalues --  -10.27144 -10.27068 -10.26799 -10.26503 -10.26479
 Alpha  occ. eigenvalues --  -10.26474 -10.26467 -10.26462 -10.26279 -10.26141
 Alpha  occ. eigenvalues --  -10.26109 -10.26019 -10.25843 -10.25687 -10.25682
 Alpha  occ. eigenvalues --  -10.25664 -10.25629 -10.25607 -10.25408 -10.24884
 Alpha  occ. eigenvalues --  -10.24269  -3.17764  -3.17645  -1.92673  -1.92514
 Alpha  occ. eigenvalues --   -1.92189  -1.92097  -1.92079  -1.91967  -1.18099
 Alpha  occ. eigenvalues --   -1.16644  -1.10318  -1.08794  -1.08361  -1.07544
 Alpha  occ. eigenvalues --   -1.07126  -1.05923  -1.05407  -1.05000  -1.04359
 Alpha  occ. eigenvalues --   -1.04124  -1.03746  -1.03333  -1.02622  -1.02455
 Alpha  occ. eigenvalues --   -0.93796  -0.91853  -0.89651  -0.89597  -0.89279
 Alpha  occ. eigenvalues --   -0.88879  -0.88399  -0.88132  -0.87982  -0.87549
 Alpha  occ. eigenvalues --   -0.87135  -0.86924  -0.86328  -0.85678  -0.84838
 Alpha  occ. eigenvalues --   -0.84801  -0.84134  -0.83761  -0.83228  -0.82905
 Alpha  occ. eigenvalues --   -0.82158  -0.81851  -0.81332  -0.81156  -0.80933
 Alpha  occ. eigenvalues --   -0.80663  -0.78874  -0.78651  -0.77583  -0.77582
 Alpha  occ. eigenvalues --   -0.77374  -0.77356  -0.76322  -0.76123  -0.75533
 Alpha  occ. eigenvalues --   -0.75232  -0.73447  -0.72746  -0.71746  -0.71033
 Alpha  occ. eigenvalues --   -0.69906  -0.69377  -0.69176  -0.68734  -0.68347
 Alpha  occ. eigenvalues --   -0.68266  -0.67681  -0.67029  -0.65796  -0.65530
 Alpha  occ. eigenvalues --   -0.65218  -0.65200  -0.64995  -0.64675  -0.64567
 Alpha  occ. eigenvalues --   -0.64558  -0.62739  -0.62157  -0.61011  -0.60835
 Alpha  occ. eigenvalues --   -0.59871  -0.59776  -0.59619  -0.59245  -0.58958
 Alpha  occ. eigenvalues --   -0.58530  -0.58487  -0.57769  -0.57611  -0.57224
 Alpha  occ. eigenvalues --   -0.56204  -0.56034  -0.56004  -0.55801  -0.55725
 Alpha  occ. eigenvalues --   -0.55459  -0.55317  -0.54984  -0.54714  -0.54395
 Alpha  occ. eigenvalues --   -0.54276  -0.53797  -0.53327  -0.53269  -0.53133
 Alpha  occ. eigenvalues --   -0.52961  -0.52922  -0.52652  -0.52531  -0.52510
 Alpha  occ. eigenvalues --   -0.51848  -0.51712  -0.51571  -0.51507  -0.51317
 Alpha  occ. eigenvalues --   -0.51107  -0.50976  -0.50562  -0.50443  -0.50384
 Alpha  occ. eigenvalues --   -0.50110  -0.50000  -0.49943  -0.49800  -0.49592
 Alpha  occ. eigenvalues --   -0.49520  -0.49295  -0.49104  -0.48851  -0.48822
 Alpha  occ. eigenvalues --   -0.48576  -0.48484  -0.48426  -0.48359  -0.48240
 Alpha  occ. eigenvalues --   -0.48099  -0.47946  -0.47654  -0.47344  -0.47235
 Alpha  occ. eigenvalues --   -0.47196  -0.46764  -0.46623  -0.46491  -0.46476
 Alpha  occ. eigenvalues --   -0.46381  -0.46286  -0.46043  -0.45959  -0.45852
 Alpha  occ. eigenvalues --   -0.45492  -0.45440  -0.45205  -0.45178  -0.45079
 Alpha  occ. eigenvalues --   -0.44937  -0.44729  -0.44450  -0.44442  -0.44282
 Alpha  occ. eigenvalues --   -0.44042  -0.43858  -0.43795  -0.43720  -0.43412
 Alpha  occ. eigenvalues --   -0.43361  -0.43205  -0.43178  -0.42930  -0.42872
 Alpha  occ. eigenvalues --   -0.42774  -0.42583  -0.42350  -0.42201  -0.42103
 Alpha  occ. eigenvalues --   -0.42072  -0.41760  -0.41738  -0.41434  -0.41432
 Alpha  occ. eigenvalues --   -0.41234  -0.40864  -0.40765  -0.40713  -0.40496
 Alpha  occ. eigenvalues --   -0.39896  -0.39609  -0.39578  -0.39364  -0.39247
 Alpha  occ. eigenvalues --   -0.38666  -0.38658  -0.38335  -0.37893  -0.37853
 Alpha  occ. eigenvalues --   -0.37306  -0.37274  -0.36916  -0.36576  -0.36493
 Alpha  occ. eigenvalues --   -0.36299  -0.35934  -0.34704  -0.34420  -0.34078
 Alpha  occ. eigenvalues --   -0.33949  -0.33225  -0.32903  -0.31945  -0.31656
 Alpha  occ. eigenvalues --   -0.31491  -0.31145  -0.30788  -0.30214  -0.30103
 Alpha  occ. eigenvalues --   -0.29979  -0.29889  -0.28506  -0.24358  -0.24065
 Alpha  occ. eigenvalues --   -0.21817  -0.21769
 Alpha virt. eigenvalues --   -0.09746  -0.09368  -0.01285  -0.00865  -0.00023
 Alpha virt. eigenvalues --    0.00203   0.01660   0.01801   0.02170   0.02505
 Alpha virt. eigenvalues --    0.03824   0.04441   0.04658   0.04879   0.05682

 Mulliken charges:
               1
     1  Mg  11.997436
     2  C    5.963282
     3  C    5.984407
     4  C    6.037385
     5  C    6.004532
     6  N    6.970843
     7  C    6.036196
     8  C    5.985437
     9  C    6.001058
    10  C    5.987818
    11  C    6.004187
    12  C    5.997914
    13  C    6.001102
    14  H    1.004526
    15  N    7.006152
    16  C    5.963825
    17  C    5.979105
    18  C    5.985934
    19  C    5.967007
    20  C    6.000821
    21  C    5.988211
    22  O    7.964164
    23  C    6.005405
    24  N    7.025746
    25  C    5.962092
    26  C    6.005160
    27  C    5.995400
    28  C    6.018594
    29  C    6.000332
    30  C    5.995077
    31  C    6.000407
    32  N    6.995827
    33  C    6.034185
    34  C    6.033327
    35  C    5.998267
    36  C    6.045614
    37  C    5.996137
    38  C    6.012746
    39  O    8.025997
    40  C    6.008275
    41  C    6.005930
    42  O    8.003185
    43  O    8.000371
    44  C    5.996582
    45  H    0.977123
    46  H    1.002648
    47  H    1.017725
    48  H    0.999644
    49  H    0.999792
    50  H    1.000328
    51  H    0.998551
    52  H    0.983461
    53  H    1.012014
    54  H    0.993410
    55  H    0.994558
    56  H    1.002139
    57  H    0.979533
    58  H    0.985394
    59  H    0.983391
    60  H    0.991392
    61  H    0.984441
    62  H    0.995238
    63  H    1.005775
    64  H    1.002113
    65  H    1.004713
    66  H    1.003163
    67  H    0.991809
    68  H    0.998125
    69  H    1.006986
    70  H    1.008047
    71  H    1.005975
    72  H    1.002461
    73  H    1.014741
    74  H    1.022708
    75  H    1.020607
    76  H    1.005149
    77  H    1.003696
    78  H    1.006116
    79  H    1.001043
    80  Mg  11.999802
    81  C    6.000571
    82  C    5.999842
    83  C    5.999492
    84  C    6.000134
    85  N    7.000314
    86  C    5.999241
    87  C    6.000197
    88  C    5.999863
    89  C    6.000519
    90  C    5.999929
    91  C    6.000050
    92  C    6.000002
    93  H    0.999927
    94  N    6.999817
    95  C    6.000675
    96  C    6.000248
    97  C    6.000425
    98  C    6.000605
    99  C    5.999817
   100  C    6.000189
   101  O    8.000642
   102  C    5.999786
   103  N    6.999902
   104  C    6.000559
   105  C    5.999884
   106  C    6.000250
   107  C    5.999478
   108  C    5.999924
   109  C    6.000184
   110  C    6.000081
   111  N    7.000093
   112  C    5.999431
   113  C    5.999436
   114  C    6.000013
   115  C    5.999288
   116  C    6.000081
   117  C    5.999734
   118  O    7.999519
   119  C    5.999876
   120  C    5.999922
   121  O    8.000025
   122  O    7.999929
   123  C    6.000047
   124  H    1.000177
   125  H    1.000119
   126  H    0.999704
   127  H    1.000069
   128  H    0.999930
   129  H    1.000274
   130  H    1.000147
   131  H    1.000031
   132  H    0.999785
   133  H    1.000096
   134  H    1.000034
   135  H    0.999803
   136  H    1.000318
   137  H    1.000667
   138  H    1.000197
   139  H    1.000457
   140  H    1.000491
   141  H    0.999892
   142  H    0.999931
   143  H    0.999970
   144  H    1.000041
   145  H    1.000200
   146  H    1.000060
   147  H    0.999792
   148  H    0.999965
   149  H    0.999772
   150  H    0.999777
   151  H    1.000002
   152  H    0.999560
   153  H    0.999679
   154  H    0.999692
   155  H    0.999822
   156  H    0.999865
   157  H    1.000005
   158  H    0.999934
 Sum of Mulliken charges = 624.00000

 Dipole moment (field-independent basis, Debye):
    X=             -1.7833    Y=              3.5791    Z=            -10.3461  Tot=             11.0920
 Quadrupole moment (field-independent basis, Debye-Ang):
   XX=             38.2444   YY=              0.4671   ZZ=             -4.8275
   XY=            -47.7667   XZ=            142.0942   YZ=              6.4929

 Normal termination of Gaussian 16 at Tue Sep 21 21:32:12 2021.
