 Gaussian 16, Revision A.03,
 Gaussian 16:  ES64L-G16RevA.03 25-Dec-2016

 ----------------------------------------------------------
 #p cam-b3lyp/Def2SVP td=(nstates=5) density=(transition=1)
 ----------------------------------------------------------

 --------------------------------
 TDDFT excited states in gaussian
 --------------------------------
 Symbolic Z-matrix:
 Charge =  0 Multiplicity = 1

                         Standard orientation:
 ---------------------------------------------------------------------
 Center     Atomic      Atomic             Coordinates (Angstroms)
 Number     Number       Type             X           Y           Z
 ---------------------------------------------------------------------
      1         12           0      -30.291163   -0.544884    0.598573
      2          6           0      -30.546356    2.388521   -1.473192
      3          6           0      -28.386092   -1.924287   -1.875653
      4          6           0      -30.313321   -3.376401    2.396763
      5          6           0      -32.588057    0.845941    2.682091
      6          7           0      -29.491165    0.231257   -1.502680
      7          6           0      -29.725303    1.464401   -2.038372
      8          6           0      -28.872599    1.586043   -3.243958
      9          6           0      -28.278042    0.168471   -3.470585
     10          6           0      -28.753996   -0.650150   -2.239406
     11          6           0      -28.795307   -0.474646   -4.796592
     12          6           0      -27.822627    2.667956   -3.201782
     13          6           0      -27.066925    3.018312   -4.473437
     14          1           0      -26.986805    4.443994   -4.826907
     15          7           0      -29.384034   -2.329479    0.356361
     16          6           0      -28.697048   -2.761382   -0.811670
     17          6           0      -28.141314   -4.092175   -0.502212
     18          6           0      -28.775045   -4.508073    0.665827
     19          6           0      -29.596801   -3.391897    1.167848
     20          6           0      -27.228888   -4.807771   -1.476325
     21          6           0      -28.639634   -5.836995    1.440136
     22          8           0      -29.413906   -6.199374    2.345623
     23          6           0      -27.497793   -6.699974    1.086850
     24          7           0      -31.360823   -1.235354    2.292206
     25          6           0      -31.225237   -2.403705    2.885233
     26          6           0      -32.149722   -2.580218    4.121048
     27          6           0      -32.649381   -1.145866    4.307267
     28          6           0      -32.141389   -0.462184    3.058569
     29          6           0      -33.306145   -3.596624    3.834736
     30          6           0      -32.219573   -0.430323    5.568078
     31          6           0      -33.295763    0.397216    6.293067
     32          7           0      -31.266842    1.266489    0.650031
     33          6           0      -32.178987    1.685137    1.593954
     34          6           0      -32.630189    3.084865    1.330442
     35          6           0      -31.993282    3.307376    0.126234
     36          6           0      -31.235961    2.202522   -0.281267
     37          6           0      -33.410305    3.997622    2.221112
     38          6           0      -31.833580    4.324472   -0.902592
     39          8           0      -32.297145    5.459261   -0.910676
     40          6           0      -30.883766    3.785638   -1.996832
     41          6           0      -31.550040    3.995703   -3.256784
     42          8           0      -32.499175    3.324860   -3.729261
     43          8           0      -30.896940    4.944825   -3.982796
     44          6           0      -31.238854    5.108756   -5.378834
     45          1           0      -27.705790   -2.347095   -2.617518
     46          1           0      -30.454556   -4.338998    2.892348
     47          1           0      -33.475272    1.097163    3.266736
     48          1           0      -29.596733    1.807346   -4.026927
     49          1           0      -27.189262    0.177809   -3.524188
     50          1           0      -28.138335   -0.906921   -5.551989
     51          1           0      -29.332126    0.335404   -5.290043
     52          1           0      -29.600801   -1.199398   -4.675199
     53          1           0      -27.004196    2.397257   -2.534490
     54          1           0      -28.158965    3.540517   -2.642455
     55          1           0      -27.520559    2.533298   -5.336476
     56          1           0      -26.019251    2.826745   -4.242983
     57          1           0      -27.486720   -5.852872   -1.646488
     58          1           0      -26.174951   -4.778246   -1.200577
     59          1           0      -27.253423   -4.422226   -2.495865
     60          1           0      -26.590281   -6.096542    1.111215
     61          1           0      -27.737708   -6.991589    0.064945
     62          1           0      -27.409223   -7.432913    1.887913
     63          1           0      -31.503314   -2.905995    4.936704
     64          1           0      -33.729405   -1.005969    4.271750
     65          1           0      -34.276745   -3.102331    3.805820
     66          1           0      -33.385790   -4.339480    4.628430
     67          1           0      -33.078649   -4.021548    2.856974
     68          1           0      -31.359632    0.215610    5.393836
     69          1           0      -31.697847   -1.198227    6.138320
     70          1           0      -33.019569    0.412927    7.346928
     71          1           0      -34.310975    0.065445    6.073237
     72          1           0      -33.172897    1.365697    5.808704
     73          1           0      -32.802868    4.724314    2.760915
     74          1           0      -34.042797    3.341195    2.818059
     75          1           0      -34.196116    4.479056    1.637704
     76          1           0      -30.061521    4.500925   -2.014116
     77          1           0      -31.932437    4.362852   -5.767910
     78          1           0      -30.338939    5.190117   -5.987838
     79          1           0      -31.729868    6.063375   -5.569604
     80         12           0       30.979050    0.639125   -0.178957
     81          6           0       28.412777   -1.786630   -0.792440
     82          6           0       28.599637    2.420925    1.740068
     83          6           0       33.490121    2.498640    1.044570
     84          6           0       33.265365   -1.574495   -1.515380
     85          7           0       28.735175    0.372273    0.415648
     86          6           0       27.997772   -0.715930    0.041175
     87          6           0       26.698930   -0.748064    0.831001
     88          6           0       26.717698    0.741011    1.376609
     89          6           0       28.089909    1.270045    1.200039
     90          6           0       25.687394    1.744497    0.757954
     91          6           0       26.714636   -1.938660    1.842620
     92          6           0       25.438163   -2.864607    1.991015
     93          1           0       24.704781   -2.941806    3.342148
     94          7           0       31.051360    2.290879    0.999520
     95          6           0       29.977694    2.903515    1.698016
     96          6           0       30.440192    4.081542    2.408298
     97          6           0       31.879338    4.084550    2.199947
     98          6           0       32.172086    2.926302    1.376603
     99          6           0       29.537423    4.885123    3.248198
    100          6           0       32.801317    5.176201    2.770567
    101          8           0       32.255245    6.029996    3.528661
    102          6           0       34.313834    5.307487    2.492453
    103          7           0       33.148077    0.399748    0.034034
    104          6           0       33.955820    1.372397    0.410640
    105          6           0       35.366894    0.908022    0.246133
    106          6           0       35.246523   -0.367693   -0.629758
    107          6           0       33.767141   -0.600915   -0.650203
    108          6           0       36.471118    1.905931   -0.308982
    109          6           0       36.067712   -1.651816   -0.095334
    110          6           0       37.230976   -2.196972   -0.959665
    111          7           0       30.892182   -1.152135   -1.149610
    112          6           0       31.876768   -1.928349   -1.633005
    113          6           0       31.365867   -3.112268   -2.220542
    114          6           0       29.996978   -3.064673   -1.946797
    115          6           0       29.745251   -1.859058   -1.244382
    116          6           0       32.040151   -4.195275   -2.962625
    117          6           0       28.810208   -3.845538   -2.113815
    118          8           0       28.696467   -4.949646   -2.597091
    119          6           0       27.659432   -3.001369   -1.271203
    120          6           0       26.558562   -2.628459   -2.167460
    121          8           0       26.684687   -2.183473   -3.315327
    122          8           0       25.390145   -2.843564   -1.468139
    123          6           0       24.145936   -2.540648   -2.173467
    124          1           0       27.912289    3.017338    2.341966
    125          1           0       34.347594    3.001681    1.495611
    126          1           0       33.908346   -2.192200   -2.146126
    127          1           0       25.895644   -0.779505    0.094452
    128          1           0       26.602965    0.510230    2.436353
    129          1           0       26.255026    2.584362    0.354751
    130          1           0       24.986081    2.165460    1.478067
    131          1           0       25.119054    1.370992   -0.094406
    132          1           0       26.875120   -1.381145    2.765132
    133          1           0       27.558669   -2.623064    1.760199
    134          1           0       25.781261   -3.854824    1.691819
    135          1           0       24.756584   -2.631755    1.173453
    136          1           0       29.050295    4.185877    3.928208
    137          1           0       28.740910    5.309509    2.637350
    138          1           0       29.949983    5.762430    3.747110
    139          1           0       34.823673    4.504834    3.025545
    140          1           0       34.516337    6.369191    2.629554
    141          1           0       34.374480    5.127116    1.418663
    142          1           0       35.730497    0.664270    1.243604
    143          1           0       35.483882    0.021584   -1.619902
    144          1           0       37.400519    1.553837    0.139318
    145          1           0       36.200944    2.919239   -0.012216
    146          1           0       36.496174    1.766747   -1.389909
    147          1           0       35.295167   -2.408238    0.041882
    148          1           0       36.383919   -1.433868    0.924687
    149          1           0       37.174501   -3.273868   -1.112729
    150          1           0       38.172897   -1.940819   -0.473895
    151          1           0       37.320197   -1.710513   -1.931183
    152          1           0       31.335306   -4.780290   -3.552581
    153          1           0       32.427739   -4.738783   -2.100760
    154          1           0       32.960750   -3.791057   -3.383393
    155          1           0       27.368685   -3.527494   -0.362645
    156          1           0       24.106610   -3.025396   -3.149219
    157          1           0       24.035011   -1.460312   -2.277588
    158          1           0       23.311443   -2.926492   -1.587887
 ---------------------------------------------------------------------

 SCF Done:  E(RCAM-B3LYP) =  -4069.80196192     A.U. after   17 cycles

 Excitation energies and oscillator strengths:

 Excited State   1:      Singlet-A      1.6989 eV  729.78 nm  f=0.3885  <S**2>=0.000
     309 -> 316       -0.18538
     311 -> 313        0.68536
     309 <- 316       -0.11151
 This state for optimization and/or second-order correction.
 Total Energy, E(TD-HF/TD-DFT) =  -4069.73952791
 Copying the excited state density for this state as the 1-particle RhoCI density.

 Excited State   2:      Singlet-A      1.7540 eV  706.87 nm  f=0.3802  <S**2>=0.000
     310 -> 315       -0.19893
     312 -> 314        0.68126
     310 <- 315       -0.11271

 Excited State   3:      Singlet-A      2.2522 eV  550.50 nm  f=0.1329  <S**2>=0.000
     309 -> 313        0.64091
     311 -> 316        0.28921

 Excited State   4:      Singlet-A      2.3187 eV  534.70 nm  f=0.0718  <S**2>=0.000
     310 -> 314        0.61706
     312 -> 315        0.33877

 Excited State   5:      Singlet-A      3.1065 eV  399.12 nm  f=0.0000  <S**2>=0.000
     312 -> 313        0.70711

 The electronic state is 1-A.
 Alpha  occ. eigenvalues --  -46.88928 -46.88515 -19.26300 -19.25177 -19.20583
 Alpha  occ. eigenvalues --  -19.19762 -19.19045 -19.18851 -19.18622 -19.18152
 Alpha  occ. eigenvalues --  -14.41955 -14.41921 -14.41421 -14.41117 -14.39954
 Alpha  occ. eigenvalues --  -14.39847 -14.39779 -14.39614 -10.40121 -10.39153
 Alpha  occ. eigenvalues --  -10.35470 -10.35265 -10.35263 -10.34465 -10.32478
 Alpha  occ. eigenvalues --  -10.31231 -10.31212 -10.30795 -10.30765 -10.30657
 Alpha  occ. eigenvalues --  -10.30621 -10.30574 -10.30490 -10.30420 -10.30420
 Alpha  occ. eigenvalues --  -10.30408 -10.30349 -10.30331 -10.30096 -10.29777
 Alpha  occ. eigenvalues --  -10.29103 -10.29049 -10.28972 -10.28754 -10.28615
 Alpha  occ. eigenvalues --  -10.28583 -10.28416 -10.28134 -10.28122 -10.28026
 Alpha  occ. eigenvalues --  -10.28006 -10.27966 -10.27801 -10.27648 -10.27618
 Alpha  occ. eigenvalues --  -10.27611 -10.27552 -10.27540 -10.27507 -10.27492
 Alpha  occ. eigenvalues --  -10.27477 -10.27341 -10.27251 -10.27237 -10.27219
 Alpha  occ. eigenvalues --  -10.27093 -10.27017 -10.26980 -10.26932 -10.26805
 Alpha  occ. eigenvalues --  -10.26696 -10.26456 -10.26428 -10.26299 -10.26256
 Alpha  occ. eigenvalues --  -10.26230 -10.26109 -10.26093 -10.25999 -10.25949
 Alpha  occ. eigenvalues --  -10.25935 -10.25779 -10.25709 -10.25069 -10.24619
 Alpha  occ. eigenvalues --  -10.24583  -3.17482  -3.17121  -1.92372  -1.92029
 Alpha  occ. eigenvalues --   -1.91926  -1.91799  -1.91568  -1.91433  -1.16569
 Alpha  occ. eigenvalues --   -1.16124  -1.10843  -1.09488  -1.09077  -1.08194
 Alpha  occ. eigenvalues --   -1.07262  -1.05971  -1.05781  -1.05473  -1.04747
 Alpha  occ. eigenvalues --   -1.04593  -1.03764  -1.03090  -1.02361  -1.02196
 Alpha  occ. eigenvalues --   -0.93203  -0.93177  -0.90106  -0.89347  -0.89330
 Alpha  occ. eigenvalues --   -0.88491  -0.88306  -0.88154  -0.87993  -0.87603
 Alpha  occ. eigenvalues --   -0.87496  -0.87095  -0.86638  -0.86028  -0.84687
 Alpha  occ. eigenvalues --   -0.84658  -0.84080  -0.83880  -0.82947  -0.82749
 Alpha  occ. eigenvalues --   -0.82620  -0.82039  -0.81388  -0.81256  -0.80892
 Alpha  occ. eigenvalues --   -0.80507  -0.78682  -0.78244  -0.77733  -0.77669
 Alpha  occ. eigenvalues --   -0.77456  -0.76901  -0.76588  -0.76322  -0.75367
 Alpha  occ. eigenvalues --   -0.75260  -0.73218  -0.73004  -0.72236  -0.71968
 Alpha  occ. eigenvalues --   -0.69833  -0.69558  -0.69409  -0.69276  -0.68506
 Alpha  occ. eigenvalues --   -0.68099  -0.66772  -0.66545  -0.66435  -0.66176
 Alpha  occ. eigenvalues --   -0.65658  -0.65424  -0.65140  -0.65122  -0.64787
 Alpha  occ. eigenvalues --   -0.64572  -0.62983  -0.62555  -0.60423  -0.60166
 Alpha  occ. eigenvalues --   -0.59925  -0.59918  -0.59569  -0.59503  -0.58940
 Alpha  occ. eigenvalues --   -0.58790  -0.58454  -0.58408  -0.57625  -0.57615
 Alpha  occ. eigenvalues --   -0.56480  -0.56262  -0.56007  -0.55763  -0.55672
 Alpha  occ. eigenvalues --   -0.55531  -0.54882  -0.54526  -0.54451  -0.54043
 Alpha  occ. eigenvalues --   -0.53905  -0.53717  -0.53501  -0.53315  -0.53181
 Alpha  occ. eigenvalues --   -0.52981  -0.52959  -0.52655  -0.52119  -0.51985
 Alpha  occ. eigenvalues --   -0.51893  -0.51785  -0.51701  -0.51437  -0.51250
 Alpha  occ. eigenvalues --   -0.51223  -0.50802  -0.50603  -0.50499  -0.50358
 Alpha  occ. eigenvalues --   -0.50306  -0.50052  -0.49994  -0.49944  -0.49665
 Alpha  occ. eigenvalues --   -0.49589  -0.49431  -0.49091  -0.48807  -0.48654
 Alpha  occ. eigenvalues --   -0.48485  -0.48394  -0.48355  -0.47971  -0.47960
 Alpha  occ. eigenvalues --   -0.47814  -0.47763  -0.47675  -0.47613  -0.47471
 Alpha  occ. eigenvalues --   -0.47376  -0.47246  -0.47052  -0.47018  -0.46667
 Alpha  occ. eigenvalues --   -0.46553  -0.46476  -0.46243  -0.46148  -0.46055
 Alpha  occ. eigenvalues --   -0.45955  -0.45643  -0.45585  -0.45397  -0.45153
 Alpha  occ. eigenvalues --   -0.45066  -0.45002  -0.44562  -0.44540  -0.43974
 Alpha  occ. eigenvalues --   -0.43873  -0.43798  -0.43720  -0.43678  -0.43579
 Alpha  occ. eigenvalues --   -0.43431  -0.43296  -0.43163  -0.43106  -0.42969
 Alpha  occ. eigenvalues --   -0.42828  -0.42511  -0.42446  -0.42343  -0.42055
 Alpha  occ. eigenvalues --   -0.41765  -0.41694  -0.41576  -0.41545  -0.41249
 Alpha  occ. eigenvalues --   -0.41248  -0.41126  -0.41081  -0.40881  -0.40875
 Alpha  occ. eigenvalues --   -0.40356  -0.40248  -0.40134  -0.39947  -0.38947
 Alpha  occ. eigenvalues --   -0.38827  -0.38765  -0.38269  -0.37924  -0.37746
 Alpha  occ. eigenvalues --   -0.37660  -0.37054  -0.36468  -0.36079  -0.36015
 Alpha  occ. eigenvalues --   -0.35872  -0.35655  -0.35212  -0.34133  -0.33826
 Alpha  occ. eigenvalues --   -0.33546  -0.33038  -0.33021  -0.31578  -0.31351
 Alpha  occ. eigenvalues --   -0.31147  -0.31059  -0.30602  -0.30553  -0.30352
 Alpha  occ. eigenvalues --   -0.30274  -0.30130  -0.29390  -0.24190  -0.24086
 Alpha  occ. eigenvalues --   -0.21332  -0.20925
 Alpha virt. eigenvalues --   -0.08948  -0.08162  -0.01805  -0.01752   0.00262
 Alpha virt. eigenvalues --    0.00736   0.02280   0.02405   0.02507   0.03007
 Alpha virt. eigenvalues --    0.04226   0.04545   0.04987   0.05509   0.05809

 Mulliken charges:
               1
     1  Mg  11.999998
     2  C    6.000031
     3  C    6.000015
     4  C    5.999953
     5  C    5.999974
     6  N    7.000037
     7  C    5.999937
     8  C    6.000025
     9  C    5.999976
    10  C    6.000040
    11  C    5.999976
    12  C    6.000011
    13  C    5.999995
    14  H    0.999994
    15  N    6.999988
    16  C    6.000104
    17  C    6.000059
    18  C    6.000026
    19  C    6.000098
    20  C    5.999963
    21  C    6.000043
    22  O    8.000085
    23  C    5.999992
    24  N    6.999977
    25  C    6.000078
    26  C    5.999982
    27  C    6.000011
    28  C    5.999942
    29  C    5.999997
    30  C    6.000031
    31  C    5.999998
    32  N    6.999999
    33  C    5.999923
    34  C    5.999892
    35  C    6.000039
    36  C    5.999889
    37  C    6.000031
    38  C    5.999945
    39  O    7.999900
    40  C    6.000000
    41  C    5.999986
    42  O    7.999990
    43  O    7.999998
    44  C    6.000010
    45  H    1.000040
    46  H    1.000010
    47  H    0.999966
    48  H    1.000012
    49  H    1.000015
    50  H    1.000023
    51  H    1.000035
    52  H    1.000007
    53  H    0.999979
    54  H    1.000010
    55  H    1.000001
    56  H    0.999993
    57  H    1.000063
    58  H    1.000066
    59  H    1.000055
    60  H    1.000021
    61  H    1.000023
    62  H    1.000052
    63  H    0.999991
    64  H    0.999996
    65  H    1.000027
    66  H    1.000005
    67  H    0.999989
    68  H    0.999986
    69  H    0.999961
    70  H    0.999971
    71  H    0.999991
    72  H    1.000013
    73  H    0.999924
    74  H    0.999954
    75  H    0.999943
    76  H    0.999974
    77  H    0.999994
    78  H    0.999986
    79  H    0.999984
    80  Mg  11.999940
    81  C    6.021221
    82  C    5.974547
    83  C    5.977031
    84  C    6.026704
    85  N    6.995496
    86  C    5.969757
    87  C    6.007935
    88  C    5.990607
    89  C    6.032911
    90  C    5.997280
    91  C    6.008434
    92  C    6.000397
    93  H    0.989675
    94  N    6.992876
    95  C    6.055545
    96  C    6.019201
    97  C    6.013853
    98  C    6.039188
    99  C    5.993928
   100  C    6.012238
   101  O    8.022604
   102  C    6.001432
   103  N    7.000017
   104  C    6.034905
   105  C    5.988034
   106  C    6.012542
   107  C    5.961917
   108  C    5.998331
   109  C    6.001744
   110  C    6.001371
   111  N    7.004671
   112  C    5.956459
   113  C    5.972694
   114  C    5.993389
   115  C    5.965265
   116  C    6.000554
   117  C    5.985209
   118  O    7.971993
   119  C    5.994782
   120  C    5.995179
   121  O    7.995850
   122  O    7.997456
   123  C    6.002929
   124  H    1.008804
   125  H    1.007145
   126  H    0.993502
   127  H    0.999830
   128  H    1.002550
   129  H    0.994653
   130  H    1.001841
   131  H    1.013645
   132  H    0.986666
   133  H    1.005472
   134  H    1.003713
   135  H    1.000002
   136  H    1.020921
   137  H    1.021543
   138  H    1.015320
   139  H    1.011209
   140  H    1.012357
   141  H    1.007947
   142  H    1.001562
   143  H    0.996904
   144  H    1.005828
   145  H    0.992127
   146  H    1.007629
   147  H    1.006194
   148  H    0.989646
   149  H    1.002177
   150  H    0.993692
   151  H    0.998539
   152  H    0.985604
   153  H    0.979825
   154  H    0.979481
   155  H    0.989839
   156  H    0.998114
   157  H    0.993156
   158  H    0.994476
 Sum of Mulliken charges = 624.00000

 Dipole moment (field-independent basis, Debye):
    X=              1.0194    Y=              9.4704    Z=              5.4661  Tot=             10.9821
 Quadrupole moment (field-independent basis, Debye-Ang):
   XX=             58.1436   YY=              9.6741   ZZ=              1.1038
   XY=            293.8521   XZ=            169.2105   YZ=              4.7286

 Normal termination of Gaussian 16 at Thu Sep 23 00:31:45 2021.
