 Gaussian 16, Revision A.03,
 Gaussian 16:  ES64L-G16RevA.03 25-Dec-2016

 -----------------------------------
 #p cam-b3lyp/Def2SVP td=(nstates=5)
 -----------------------------------

 --------------------------------
 TDDFT excited states in gaussian
 --------------------------------
 Symbolic Z-matrix:
 Charge =  0 Multiplicity = 1

                         Standard orientation:
 ---------------------------------------------------------------------
 Center     Atomic      Atomic             Coordinates (Angstroms)
 Number     Number       Type             X           Y           Z
 ---------------------------------------------------------------------
      1         12           0       19.492900    0.248253    0.496817
      2          6           0       17.493224   -1.346894   -2.065443
      3          6           0       20.576450    2.184328   -1.851568
      4          6           0       21.431444    1.378314    2.910850
      5          6           0       18.777372   -2.504103    2.760046
      6          7           0       18.954289    0.454396   -1.726961
      7          6           0       18.148094   -0.265760   -2.583860
      8          6           0       18.249112    0.274597   -3.964687
      9          6           0       19.585087    1.061082   -3.949291
     10          6           0       19.764335    1.223093   -2.421345
     11          6           0       20.779829    0.300735   -4.565536
     12          6           0       17.074570    1.265484   -4.228360
     13          6           0       16.347858    1.138410   -5.623117
     14          1           0       14.896495    1.733809   -5.815662
     15          7           0       20.848453    1.708550    0.495976
     16          6           0       21.099029    2.486134   -0.523467
     17          6           0       22.017588    3.521160   -0.087978
     18          6           0       22.132805    3.322052    1.308005
     19          6           0       21.472963    2.080372    1.608159
     20          6           0       22.485201    4.622976   -1.056144
     21          6           0       22.867638    4.206004    2.276847
     22          8           0       22.921107    3.915009    3.434356
     23          6           0       23.439713    5.499052    1.794519
     24          7           0       20.230911   -0.683759    2.502164
     25          6           0       20.902004    0.153543    3.290321
     26          6           0       20.942584   -0.315206    4.696282
     27          6           0       20.228749   -1.697426    4.560958
     28          6           0       19.680379   -1.679557    3.158570
     29          6           0       22.332958   -0.328908    5.427663
     30          6           0       19.136884   -1.887003    5.685142
     31          6           0       19.412089   -2.852749    6.871327
     32          7           0       18.439716   -1.494242    0.455471
     33          6           0       18.149022   -2.481634    1.423253
     34          6           0       17.217844   -3.473921    0.847639
     35          6           0       16.956069   -3.044231   -0.446453
     36          6           0       17.712760   -1.908480   -0.680091
     37          6           0       16.785279   -4.793398    1.531709
     38          6           0       16.165585   -3.410321   -1.665503
     39          8           0       15.370961   -4.285178   -1.917221
     40          6           0       16.620489   -2.405946   -2.838973
     41          6           0       15.512159   -1.924299   -3.578587
     42          8           0       14.937494   -0.865832   -3.287983
     43          8           0       15.065776   -2.719926   -4.629168
     44          6           0       14.035178   -2.173076   -5.564201
     45          1           0       20.988125    2.929600   -2.534431
     46          1           0       22.023726    1.788472    3.731358
     47          1           0       18.545022   -3.332667    3.430830
     48          1           0       18.376057   -0.542987   -4.674776
     49          1           0       19.588117    2.024698   -4.458365
     50          1           0       21.184805    0.850461   -5.415701
     51          1           0       20.403315   -0.668351   -4.891645
     52          1           0       21.590908    0.086390   -3.869045
     53          1           0       17.529688    2.254219   -4.167485
     54          1           0       16.391484    1.144744   -3.387821
     55          1           0       16.348050    0.084039   -5.898195
     56          1           0       17.031701    1.671345   -6.284824
     57          1           0       22.086045    5.576961   -0.709198
     58          1           0       22.250530    4.465335   -2.108286
     59          1           0       23.557907    4.783002   -0.951386
     60          1           0       22.674484    6.182171    1.426842
     61          1           0       24.088950    5.453459    0.920225
     62          1           0       23.904248    6.011151    2.637542
     63          1           0       20.296306    0.341069    5.279160
     64          1           0       20.978057   -2.489274    4.551814
     65          1           0       23.038843    0.145280    4.746566
     66          1           0       22.685264   -1.285005    5.816386
     67          1           0       22.246919    0.266977    6.336456
     68          1           0       18.224785   -2.272259    5.228528
     69          1           0       18.812151   -0.874222    5.923699
     70          1           0       19.134646   -2.373786    7.810185
     71          1           0       20.464612   -3.136629    6.871558
     72          1           0       18.801714   -3.752397    6.784058
     73          1           0       16.751041   -4.612893    2.605747
     74          1           0       17.567375   -5.539968    1.391707
     75          1           0       15.819432   -5.146143    1.169287
     76          1           0       17.285123   -2.953425   -3.506630
     77          1           0       14.414133   -1.301322   -6.099491
     78          1           0       13.058395   -2.103857   -5.086954
     79          1           0       13.980177   -2.868773   -6.401411
     80         12           0      -19.474415   -0.384541   -0.171340
     81          6           0      -18.134734    2.812771    0.104091
     82          6           0      -16.339753   -1.494068   -1.154461
     83          6           0      -20.458483   -3.531998    0.053010
     84          6           0      -22.401210    0.744378    1.290831
     85          7           0      -17.443540    0.504175   -0.332684
     86          6           0      -17.165081    1.855367   -0.307502
     87          6           0      -15.766925    2.170200   -0.750611
     88          6           0      -15.358735    0.826126   -1.500372
     89          6           0      -16.398860   -0.141989   -0.952514
     90          6           0      -15.074731    0.784158   -3.076657
     91          6           0      -14.775517    2.658077    0.404853
     92          6           0      -14.991135    2.081707    1.835848
     93          1           0      -13.715359    1.725261    2.560378
     94          7           0      -18.502724   -2.276529   -0.389791
     95          6           0      -17.191739   -2.514383   -0.821024
     96          6           0      -16.884555   -3.918397   -0.825747
     97          6           0      -18.088160   -4.559416   -0.446917
     98          6           0      -19.092777   -3.480497   -0.208935
     99          6           0      -15.579094   -4.419947   -1.445146
    100          6           0      -18.202316   -6.099159   -0.374192
    101          8           0      -17.227624   -6.837737   -0.548097
    102          6           0      -19.552392   -6.634174   -0.141412
    103          7           0      -21.157350   -1.217513    0.693135
    104          6           0      -21.437058   -2.540021    0.392776
    105          6           0      -22.874574   -2.954195    0.777114
    106          6           0      -23.354041   -1.573475    1.386954
    107          6           0      -22.248547   -0.639353    1.167155
    108          6           0      -23.795440   -3.480209   -0.278232
    109          6           0      -23.671205   -1.660270    2.965024
    110          6           0      -24.979063   -0.988525    3.293272
    111          7           0      -20.267553    1.456596    0.397353
    112          6           0      -21.483490    1.758643    0.981959
    113          6           0      -21.564326    3.211861    1.254791
    114          6           0      -20.245762    3.674876    0.914488
    115          6           0      -19.534883    2.575670    0.418810
    116          6           0      -22.579188    3.993697    1.985296
    117          6           0      -19.291874    4.804415    0.911874
    118          8           0      -19.432582    5.927301    1.338155
    119          6           0      -17.920005    4.303935    0.355702
    120          6           0      -17.513629    5.110887   -0.795471
    121          8           0      -16.527446    5.832009   -0.948574
    122          8           0      -18.629854    5.166972   -1.670749
    123          6           0      -18.406760    5.896172   -2.937558
    124          1           0      -15.426941   -1.753310   -1.695803
    125          1           0      -20.954707   -4.501893   -0.019669
    126          1           0      -23.387751    1.008504    1.675850
    127          1           0      -15.771986    3.007915   -1.447881
    128          1           0      -14.414669    0.605150   -1.001729
    129          1           0      -15.085733    1.747259   -3.586659
    130          1           0      -15.813005    0.214662   -3.641066
    131          1           0      -14.041589    0.479596   -3.246113
    132          1           0      -14.734797    3.746250    0.440113
    133          1           0      -13.772671    2.392474    0.070490
    134          1           0      -15.650822    1.213970    1.806207
    135          1           0      -15.487677    2.823562    2.460698
    136          1           0      -15.197187   -5.333262   -0.987870
    137          1           0      -14.790523   -3.692987   -1.252530
    138          1           0      -15.804965   -4.610516   -2.494586
    139          1           0      -20.151087   -6.462124   -1.035379
    140          1           0      -19.983960   -6.170916    0.746410
    141          1           0      -19.407807   -7.704087    0.008257
    142          1           0      -22.802162   -3.606802    1.647463
    143          1           0      -24.131579   -1.268234    0.686723
    144          1           0      -24.786109   -3.498499    0.176314
    145          1           0      -23.534154   -4.526731   -0.435266
    146          1           0      -23.718518   -2.880855   -1.186178
    147          1           0      -22.818270   -1.210978    3.473523
    148          1           0      -23.654634   -2.650900    3.421182
    149          1           0      -24.756037   -0.084976    3.860177
    150          1           0      -25.548294   -1.533798    4.046836
    151          1           0      -25.465434   -0.659020    2.375364
    152          1           0      -23.438533    3.431289    2.353450
    153          1           0      -22.977520    4.708347    1.265921
    154          1           0      -22.009454    4.268663    2.872705
    155          1           0      -17.228959    4.424625    1.189634
    156          1           0      -18.853962    5.219712   -3.666822
    157          1           0      -17.400082    6.142095   -3.275644
    158          1           0      -19.119379    6.720401   -2.901987
 ---------------------------------------------------------------------

 SCF Done:  E(RCAM-B3LYP) =  -4069.78131816     A.U. after   19 cycles

 Excitation energies and oscillator strengths:

 Excited State   1:      Singlet-A      1.7179 eV  721.72 nm  f=0.3598  <S**2>=0.000
     309 -> 315        0.18162
     312 -> 314        0.68315
     309 <- 315        0.10492
 This state for optimization and/or second-order correction.
 Total Energy, E(TD-HF/TD-DFT) =  -4069.71818678
 Copying the excited state density for this state as the 1-particle RhoCI density.

 Excited State   2:      Singlet-A      1.7382 eV  713.31 nm  f=0.3918  <S**2>=0.000
     310 -> 316        0.16377
     311 -> 313        0.68848
     310 <- 316        0.10272

 Excited State   3:      Singlet-A      2.1720 eV  570.83 nm  f=0.2261  <S**2>=0.000
     310 -> 313        0.67444
     311 -> 316       -0.20200

 Excited State   4:      Singlet-A      2.2043 eV  562.47 nm  f=0.0884  <S**2>=0.000
     309 -> 314        0.62965
     312 -> 315       -0.30515

 Excited State   5:      Singlet-A      3.0636 eV  404.69 nm  f=0.0000  <S**2>=0.000
     312 -> 313        0.70710

 The electronic state is 1-A.
 Alpha  occ. eigenvalues --  -46.89430 -46.89081 -19.24320 -19.23961 -19.20515
 Alpha  occ. eigenvalues --  -19.19631 -19.19248 -19.18997 -19.18797 -19.18519
 Alpha  occ. eigenvalues --  -14.42210 -14.42181 -14.41750 -14.40161 -14.39812
 Alpha  occ. eigenvalues --  -14.39762 -14.39619 -14.39160 -10.39709 -10.38507
 Alpha  occ. eigenvalues --  -10.35946 -10.35121 -10.35094 -10.35079 -10.31609
 Alpha  occ. eigenvalues --  -10.31599 -10.31277 -10.31157 -10.31128 -10.31012
 Alpha  occ. eigenvalues --  -10.30655 -10.30608 -10.30586 -10.30168 -10.30054
 Alpha  occ. eigenvalues --  -10.30028 -10.30013 -10.29828 -10.29362 -10.29328
 Alpha  occ. eigenvalues --  -10.29305 -10.28935 -10.28934 -10.28701 -10.28653
 Alpha  occ. eigenvalues --  -10.28514 -10.28399 -10.28388 -10.28317 -10.28235
 Alpha  occ. eigenvalues --  -10.28180 -10.28178 -10.28135 -10.28097 -10.28052
 Alpha  occ. eigenvalues --  -10.27992 -10.27898 -10.27650 -10.27274 -10.27253
 Alpha  occ. eigenvalues --  -10.27152 -10.27141 -10.27130 -10.27113 -10.27099
 Alpha  occ. eigenvalues --  -10.26946 -10.26877 -10.26793 -10.26704 -10.26512
 Alpha  occ. eigenvalues --  -10.26345 -10.26283 -10.26271 -10.26195 -10.26038
 Alpha  occ. eigenvalues --  -10.26030 -10.25996 -10.25932 -10.25909 -10.25733
 Alpha  occ. eigenvalues --  -10.25717 -10.25698 -10.25520 -10.25431 -10.25362
 Alpha  occ. eigenvalues --  -10.25091  -3.17953  -3.17606  -1.92840  -1.92490
 Alpha  occ. eigenvalues --   -1.92416  -1.92253  -1.92077  -1.91899  -1.14795
 Alpha  occ. eigenvalues --   -1.14174  -1.12157  -1.10839  -1.10338  -1.09345
 Alpha  occ. eigenvalues --   -1.06877  -1.06399  -1.05645  -1.05048  -1.04945
 Alpha  occ. eigenvalues --   -1.04872  -1.03692  -1.03159  -1.02318  -1.00975
 Alpha  occ. eigenvalues --   -0.92440  -0.91246  -0.89633  -0.89248  -0.89197
 Alpha  occ. eigenvalues --   -0.88859  -0.87980  -0.87960  -0.87787  -0.87642
 Alpha  occ. eigenvalues --   -0.87627  -0.86855  -0.86159  -0.85183  -0.84808
 Alpha  occ. eigenvalues --   -0.84432  -0.84333  -0.83045  -0.82696  -0.82359
 Alpha  occ. eigenvalues --   -0.82130  -0.82005  -0.80944  -0.80819  -0.80393
 Alpha  occ. eigenvalues --   -0.80127  -0.78758  -0.78298  -0.77477  -0.77113
 Alpha  occ. eigenvalues --   -0.76820  -0.76688  -0.76211  -0.76193  -0.75723
 Alpha  occ. eigenvalues --   -0.75395  -0.72764  -0.72619  -0.72115  -0.71090
 Alpha  occ. eigenvalues --   -0.69399  -0.69341  -0.69205  -0.68771  -0.68064
 Alpha  occ. eigenvalues --   -0.67925  -0.67328  -0.66802  -0.66390  -0.66100
 Alpha  occ. eigenvalues --   -0.65611  -0.64963  -0.64876  -0.64483  -0.64212
 Alpha  occ. eigenvalues --   -0.63975  -0.62520  -0.61427  -0.61032  -0.60253
 Alpha  occ. eigenvalues --   -0.60094  -0.59353  -0.59051  -0.58918  -0.58261
 Alpha  occ. eigenvalues --   -0.58041  -0.57558  -0.57502  -0.57227  -0.57169
 Alpha  occ. eigenvalues --   -0.56539  -0.56300  -0.55801  -0.55733  -0.55496
 Alpha  occ. eigenvalues --   -0.55324  -0.55075  -0.54583  -0.53997  -0.53867
 Alpha  occ. eigenvalues --   -0.53862  -0.53380  -0.53023  -0.52883  -0.52689
 Alpha  occ. eigenvalues --   -0.52627  -0.52602  -0.52419  -0.52152  -0.51971
 Alpha  occ. eigenvalues --   -0.51958  -0.51840  -0.51592  -0.51302  -0.51087
 Alpha  occ. eigenvalues --   -0.50826  -0.50537  -0.50446  -0.50251  -0.50227
 Alpha  occ. eigenvalues --   -0.50075  -0.49844  -0.49692  -0.49609  -0.49547
 Alpha  occ. eigenvalues --   -0.49528  -0.49262  -0.49246  -0.48824  -0.48796
 Alpha  occ. eigenvalues --   -0.48728  -0.48540  -0.48297  -0.48276  -0.48147
 Alpha  occ. eigenvalues --   -0.47929  -0.47765  -0.47714  -0.47543  -0.47428
 Alpha  occ. eigenvalues --   -0.47227  -0.46893  -0.46477  -0.46419  -0.46246
 Alpha  occ. eigenvalues --   -0.46221  -0.46183  -0.45773  -0.45705  -0.45518
 Alpha  occ. eigenvalues --   -0.45391  -0.45361  -0.45096  -0.44969  -0.44951
 Alpha  occ. eigenvalues --   -0.44908  -0.44767  -0.44667  -0.44622  -0.44539
 Alpha  occ. eigenvalues --   -0.44453  -0.44006  -0.43904  -0.43427  -0.43397
 Alpha  occ. eigenvalues --   -0.43322  -0.43196  -0.43085  -0.42980  -0.42736
 Alpha  occ. eigenvalues --   -0.42724  -0.42653  -0.42455  -0.42204  -0.42107
 Alpha  occ. eigenvalues --   -0.41937  -0.41864  -0.41685  -0.41660  -0.41288
 Alpha  occ. eigenvalues --   -0.41197  -0.41030  -0.40621  -0.40432  -0.40354
 Alpha  occ. eigenvalues --   -0.40183  -0.39970  -0.39882  -0.39841  -0.39078
 Alpha  occ. eigenvalues --   -0.38485  -0.38313  -0.37951  -0.37650  -0.37409
 Alpha  occ. eigenvalues --   -0.37026  -0.36872  -0.36532  -0.36509  -0.36048
 Alpha  occ. eigenvalues --   -0.35717  -0.35633  -0.35130  -0.34775  -0.33582
 Alpha  occ. eigenvalues --   -0.33296  -0.33042  -0.32595  -0.31833  -0.31515
 Alpha  occ. eigenvalues --   -0.31248  -0.31179  -0.31086  -0.30789  -0.30730
 Alpha  occ. eigenvalues --   -0.29933  -0.29667  -0.29632  -0.24072  -0.23522
 Alpha  occ. eigenvalues --   -0.21610  -0.21191
 Alpha virt. eigenvalues --   -0.09058  -0.08641  -0.02223  -0.00340   0.00657
 Alpha virt. eigenvalues --    0.00950   0.01735   0.02331   0.02552   0.02673
 Alpha virt. eigenvalues --    0.04108   0.04545   0.04975   0.05167   0.05980

 Mulliken charges:
               1
     1  Mg   0.836501
     2  C   -0.017199
     3  C   -0.043227
     4  C   -0.045025
     5  C   -0.101669
     6  N   -0.239108
     7  C   -0.040168
     8  C   -0.024283
     9  C   -0.084505
    10  C    0.050322
    11  C    0.081900
    12  C    0.071421
    13  C   -0.043359
    14  H    0.034261
    15  N   -0.366952
    16  C    0.065584
    17  C   -0.128894
    18  C   -0.029960
    19  C    0.104902
    20  C    0.110690
    21  C    0.002110
    22  O   -0.168068
    23  C    0.040327
    24  N   -0.199786
    25  C   -0.011555
    26  C   -0.045222
    27  C    0.011784
    28  C    0.027131
    29  C    0.070636
    30  C    0.014206
    31  C    0.026935
    32  N   -0.397675
    33  C    0.109380
    34  C   -0.209663
    35  C   -0.008120
    36  C    0.122790
    37  C    0.119305
    38  C    0.086585
    39  O   -0.138057
    40  C   -0.010469
    41  C    0.199204
    42  O   -0.246409
    43  O   -0.357447
    44  C    0.195821
    45  H   -0.050869
    46  H   -0.004297
    47  H   -0.024470
    48  H   -0.003126
    49  H    0.009575
    50  H    0.019428
    51  H    0.006393
    52  H    0.023212
    53  H    0.001096
    54  H    0.050135
    55  H    0.026198
    56  H    0.014056
    57  H    0.026315
    58  H    0.029668
    59  H    0.019804
    60  H    0.028406
    61  H    0.022296
    62  H    0.029393
    63  H    0.020298
    64  H    0.004780
    65  H    0.028982
    66  H    0.015499
    67  H    0.009562
    68  H   -0.002203
    69  H   -0.009375
    70  H    0.017919
    71  H    0.014449
    72  H    0.016696
    73  H    0.008511
    74  H    0.029943
    75  H    0.038377
    76  H    0.050201
    77  H    0.028677
    78  H    0.055479
    79  H    0.024022
    80  Mg   0.819779
    81  C   -0.024988
    82  C   -0.097579
    83  C   -0.086985
    84  C   -0.094213
    85  N   -0.283878
    86  C   -0.030003
    87  C   -0.040860
    88  C    0.001960
    89  C    0.000892
    90  C    0.064162
    91  C    0.029205
    92  C   -0.076394
    93  H    0.023295
    94  N   -0.359615
    95  C    0.167019
    96  C   -0.136559
    97  C   -0.064269
    98  C    0.184933
    99  C    0.126728
   100  C    0.000357
   101  O   -0.204467
   102  C    0.054781
   103  N   -0.295321
   104  C   -0.001587
   105  C   -0.033992
   106  C   -0.063451
   107  C    0.012416
   108  C    0.107190
   109  C    0.036510
   110  C    0.030432
   111  N   -0.342691
   112  C    0.151476
   113  C   -0.189634
   114  C   -0.004854
   115  C    0.088714
   116  C    0.130654
   117  C    0.030265
   118  O   -0.149225
   119  C    0.028508
   120  C    0.222580
   121  O   -0.208319
   122  O   -0.379726
   123  C    0.180171
   124  H   -0.029579
   125  H   -0.042323
   126  H   -0.044013
   127  H    0.010498
   128  H    0.006408
   129  H    0.011218
   130  H    0.026777
   131  H    0.022220
   132  H    0.028644
   133  H    0.010512
   134  H    0.047588
   135  H    0.030582
   136  H    0.035892
   137  H    0.016290
   138  H    0.041147
   139  H    0.048713
   140  H    0.044977
   141  H    0.024335
   142  H    0.004673
   143  H    0.008042
   144  H    0.019765
   145  H    0.014486
   146  H    0.025102
   147  H    0.015660
   148  H    0.007054
   149  H    0.005811
   150  H    0.014889
   151  H    0.023357
   152  H   -0.003608
   153  H    0.043677
   154  H    0.053177
   155  H    0.038617
   156  H    0.018944
   157  H    0.058646
   158  H    0.038404
 Sum of Mulliken charges =  -0.00000

 Dipole moment (field-independent basis, Debye):
    X=             -0.5041    Y=              0.1759    Z=             -4.0445  Tot=              4.0796
 Quadrupole moment (field-independent basis, Debye-Ang):
   XX=           -207.7191   YY=           -565.9925   ZZ=           -472.5456
   XY=            124.6070   XZ=             -8.4649   YZ=            -34.8129

 Normal termination of Gaussian 16 at Wed Sep 15 14:26:50 2021.
