 Gaussian 16, Revision A.03,
 Gaussian 16:  ES64L-G16RevA.03 25-Dec-2016

 -----------------------------------
 #p cam-b3lyp/Def2SVP td=(nstates=5)
 -----------------------------------

 --------------------------------
 TDDFT excited states in gaussian
 --------------------------------
 Symbolic Z-matrix:
 Charge =  0 Multiplicity = 1

                         Standard orientation:
 ---------------------------------------------------------------------
 Center     Atomic      Atomic             Coordinates (Angstroms)
 Number     Number       Type             X           Y           Z
 ---------------------------------------------------------------------
      1         12           0      -21.824975   -0.673899   -0.142375
      2          6           0      -23.652396    2.136451    0.774042
      3          6           0      -20.181626    1.164024   -2.438231
      4          6           0      -20.644794   -3.520937   -1.535458
      5          6           0      -24.133445   -2.666066    1.662060
      6          7           0      -21.912363    1.397773   -0.621907
      7          6           0      -22.593413    2.455739   -0.060298
      8          6           0      -22.232509    3.781519   -0.785245
      9          6           0      -21.577364    3.242811   -2.094348
     10          6           0      -21.088964    1.867873   -1.662658
     11          6           0      -22.554430    3.122072   -3.316380
     12          6           0      -21.450109    4.662445    0.205925
     13          6           0      -21.836311    6.092411    0.185956
     14          1           0      -21.469161    6.847223    1.382440
     15          7           0      -20.425533   -1.065551   -1.604693
     16          6           0      -19.818885   -0.144567   -2.397318
     17          6           0      -18.691294   -0.770199   -3.041212
     18          6           0      -18.828632   -2.178519   -2.765699
     19          6           0      -20.068270   -2.314633   -1.995347
     20          6           0      -17.728163   -0.041895   -3.908604
     21          6           0      -18.014773   -3.412619   -3.274776
     22          8           0      -18.265926   -4.568544   -2.928011
     23          6           0      -16.778318   -3.239434   -4.111887
     24          7           0      -22.581484   -2.780697   -0.193004
     25          6           0      -21.771270   -3.794907   -0.772589
     26          6           0      -22.208335   -5.178213   -0.420109
     27          6           0      -23.166667   -4.819830    0.761881
     28          6           0      -23.256789   -3.296474    0.796493
     29          6           0      -22.872463   -5.963483   -1.601434
     30          6           0      -22.670771   -5.357299    2.153916
     31          6           0      -21.210060   -5.000794    2.530219
     32          7           0      -23.477842   -0.370734    1.077218
     33          6           0      -24.287670   -1.271905    1.785585
     34          6           0      -25.246973   -0.494394    2.476555
     35          6           0      -25.004410    0.827326    2.123775
     36          6           0      -23.944885    0.837583    1.277710
     37          6           0      -26.267195   -1.023829    3.433373
     38          6           0      -25.496528    2.116911    2.264806
     39          8           0      -26.475755    2.522889    2.916835
     40          6           0      -24.656785    3.112934    1.409476
     41          6           0      -24.084167    4.105357    2.469085
     42          8           0      -23.228412    3.829023    3.328512
     43          8           0      -24.701770    5.337225    2.281867
     44          6           0      -24.515487    6.392013    3.328420
     45          1           0      -19.790377    1.838382   -3.202936
     46          1           0      -20.300917   -4.532808   -1.762938
     47          1           0      -24.735793   -3.206385    2.395409
     48          1           0      -23.132726    4.363933   -0.978564
     49          1           0      -20.702177    3.847705   -2.329667
     50          1           0      -23.566978    3.495703   -3.161250
     51          1           0      -22.739246    2.075703   -3.556013
     52          1           0      -22.154612    3.710880   -4.141687
     53          1           0      -20.419748    4.652055   -0.146769
     54          1           0      -21.563182    4.223629    1.197636
     55          1           0      -22.925511    6.100578    0.141783
     56          1           0      -21.467747    6.536683   -0.738434
     57          1           0      -17.759799    1.032001   -3.725619
     58          1           0      -17.852978   -0.401375   -4.930577
     59          1           0      -16.712455   -0.322790   -3.629932
     60          1           0      -16.692663   -4.176324   -4.662813
     61          1           0      -15.893985   -3.139893   -3.482064
     62          1           0      -16.880088   -2.424865   -4.829650
     63          1           0      -21.408518   -5.808421   -0.028704
     64          1           0      -24.153875   -5.230307    0.547242
     65          1           0      -23.221307   -5.249406   -2.347913
     66          1           0      -23.730344   -6.589024   -1.354273
     67          1           0      -22.224834   -6.658988   -2.136019
     68          1           0      -22.868785   -6.429255    2.144240
     69          1           0      -23.397219   -4.944444    2.853781
     70          1           0      -21.142664   -4.427382    3.454965
     71          1           0      -20.800474   -4.438804    1.690408
     72          1           0      -20.586340   -5.882343    2.675301
     73          1           0      -27.230924   -0.685215    3.053129
     74          1           0      -26.024234   -0.637785    4.423331
     75          1           0      -26.347077   -2.109972    3.479916
     76          1           0      -25.337782    3.652943    0.752188
     77          1           0      -24.914788    5.973343    4.251925
     78          1           0      -24.997142    7.356482    3.167756
     79          1           0      -23.426947    6.427637    3.283802
     80         12           0       21.862175   -0.547897    0.543236
     81          6           0       21.301334    2.380482   -1.446654
     82          6           0       22.466178    1.383182    3.129294
     83          6           0       23.110295   -3.273284    1.957058
     84          6           0       21.509588   -2.436041   -2.593535
     85          7           0       21.831441    1.635399    0.805078
     86          6           0       21.613403    2.668736   -0.127777
     87          6           0       21.726497    4.114834    0.487158
     88          6           0       22.052636    3.678272    2.044295
     89          6           0       22.114929    2.154097    2.040649
     90          6           0       23.419529    4.294695    2.569732
     91          6           0       20.478160    5.042759    0.285738
     92          6           0       20.401341    6.258186    1.201974
     93          1           0       20.540352    7.613557    0.484879
     94          7           0       22.587356   -0.908734    2.346938
     95          6           0       22.771435   -0.007618    3.369200
     96          6           0       23.275203   -0.634084    4.573193
     97          6           0       23.444256   -2.024863    4.195334
     98          6           0       22.959717   -2.118738    2.772165
     99          6           0       23.480263    0.000140    5.867831
    100          6           0       23.934691   -3.206284    5.014234
    101          8           0       23.922115   -4.342018    4.629960
    102          6           0       24.536542   -2.842640    6.345582
    103          7           0       22.316110   -2.563681   -0.231803
    104          6           0       22.805115   -3.507271    0.611769
    105          6           0       22.911666   -4.884286   -0.096460
    106          6           0       22.264931   -4.592708   -1.495120
    107          6           0       21.956042   -3.109039   -1.437664
    108          6           0       24.326483   -5.546237   -0.217757
    109          6           0       20.970808   -5.409813   -1.842691
    110          6           0       21.262499   -6.864765   -2.271917
    111          7           0       21.515485   -0.193350   -1.567422
    112          6           0       21.327375   -1.018620   -2.652110
    113          6           0       20.948594   -0.237583   -3.761744
    114          6           0       20.970455    1.057625   -3.401882
    115          6           0       21.349279    1.084953   -2.025457
    116          6           0       20.533159   -0.884009   -5.076841
    117          6           0       20.835749    2.466331   -3.786175
    118          8           0       20.573661    2.966121   -4.849722
    119          6           0       21.079474    3.376937   -2.489910
    120          6           0       22.364955    4.111562   -2.700220
    121          8           0       23.514305    3.807797   -2.472720
    122          8           0       21.986415    5.338686   -3.207664
    123          6           0       23.068130    6.308689   -3.501320
    124          1           0       22.735345    1.941019    4.028508
    125          1           0       23.665366   -4.088308    2.427728
    126          1           0       21.334511   -3.148420   -3.403073
    127          1           0       22.641193    4.566189    0.102472
    128          1           0       21.262243    4.083037    2.676822
    129          1           0       23.275888    4.683588    3.577696
    130          1           0       23.923719    5.052818    1.971041
    131          1           0       24.151546    3.504061    2.731616
    132          1           0       19.681124    4.309699    0.416711
    133          1           0       20.265490    5.416408   -0.716130
    134          1           0       21.193919    6.191977    1.946788
    135          1           0       19.394253    6.319720    1.613462
    136          1           0       22.727295   -0.535173    6.446217
    137          1           0       23.332797    1.078434    5.805613
    138          1           0       24.438589   -0.148785    6.364946
    139          1           0       23.769597   -2.908317    7.117205
    140          1           0       25.255402   -2.024522    6.292052
    141          1           0       25.342152   -3.568602    6.451791
    142          1           0       22.142502   -5.499789    0.371015
    143          1           0       23.036782   -4.659684   -2.262162
    144          1           0       24.676090   -5.757753   -1.228685
    145          1           0       24.209149   -6.544857    0.202476
    146          1           0       25.139468   -5.003547    0.264562
    147          1           0       20.456936   -4.931825   -2.675943
    148          1           0       20.345312   -5.333508   -0.952202
    149          1           0       22.291009   -6.959736   -2.620667
    150          1           0       20.522589   -7.102069   -3.036234
    151          1           0       21.192555   -7.591989   -1.462443
    152          1           0       19.851637   -0.241217   -5.634128
    153          1           0       20.089609   -1.856714   -4.863972
    154          1           0       21.412748   -1.140905   -5.667535
    155          1           0       20.242619    4.051504   -2.307431
    156          1           0       22.779588    6.791208   -4.435056
    157          1           0       24.055881    5.860864   -3.609391
    158          1           0       22.963097    6.955264   -2.629556
 ---------------------------------------------------------------------

 SCF Done:  E(RCAM-B3LYP) =  -4069.82388765     A.U. after   19 cycles

 Excitation energies and oscillator strengths:

 Excited State   1:      Singlet-A      1.6607 eV  746.56 nm  f=0.3742  <S**2>=0.000
     309 -> 315        0.16222
     311 -> 313        0.68888
     309 <- 315        0.10408
 This state for optimization and/or second-order correction.
 Total Energy, E(TD-HF/TD-DFT) =  -4069.76285698
 Copying the excited state density for this state as the 1-particle RhoCI density.

 Excited State   2:      Singlet-A      1.6973 eV  730.49 nm  f=0.4011  <S**2>=0.000
     310 -> 316        0.17773
     312 -> 314        0.68632
     310 <- 316        0.10765

 Excited State   3:      Singlet-A      2.2114 eV  560.66 nm  f=0.1348  <S**2>=0.000
     310 -> 314        0.65070
     312 -> 316       -0.26504

 Excited State   4:      Singlet-A      2.2190 eV  558.74 nm  f=0.1317  <S**2>=0.000
     309 -> 313        0.64335
     311 -> 315       -0.27223

 Excited State   5:      Singlet-A      3.0447 eV  407.21 nm  f=0.0000  <S**2>=0.000
     312 -> 313        0.70710

 The electronic state is 1-A.
 Alpha  occ. eigenvalues --  -46.88583 -46.88329 -19.24751 -19.23855 -19.20018
 Alpha  occ. eigenvalues --  -19.19935 -19.19123 -19.18960 -19.18743 -19.17662
 Alpha  occ. eigenvalues --  -14.42202 -14.41950 -14.41490 -14.41333 -14.39639
 Alpha  occ. eigenvalues --  -14.39354 -14.38861 -14.38512 -10.40036 -10.38988
 Alpha  occ. eigenvalues --  -10.35293 -10.35281 -10.34781 -10.33644 -10.31984
 Alpha  occ. eigenvalues --  -10.31217 -10.30964 -10.30924 -10.30878 -10.30564
 Alpha  occ. eigenvalues --  -10.30380 -10.30330 -10.30248 -10.30233 -10.30201
 Alpha  occ. eigenvalues --  -10.30118 -10.30116 -10.29394 -10.29317 -10.29213
 Alpha  occ. eigenvalues --  -10.29101 -10.28920 -10.28871 -10.28775 -10.28500
 Alpha  occ. eigenvalues --  -10.28332 -10.28314 -10.28253 -10.28223 -10.27917
 Alpha  occ. eigenvalues --  -10.27889 -10.27762 -10.27679 -10.27679 -10.27561
 Alpha  occ. eigenvalues --  -10.27462 -10.27197 -10.27181 -10.27022 -10.27020
 Alpha  occ. eigenvalues --  -10.27007 -10.26955 -10.26834 -10.26792 -10.26780
 Alpha  occ. eigenvalues --  -10.26764 -10.26752 -10.26739 -10.26717 -10.26537
 Alpha  occ. eigenvalues --  -10.26407 -10.26385 -10.26166 -10.25951 -10.25946
 Alpha  occ. eigenvalues --  -10.25893 -10.25838 -10.25756 -10.25748 -10.25722
 Alpha  occ. eigenvalues --  -10.25612 -10.25578 -10.25576 -10.25561 -10.24719
 Alpha  occ. eigenvalues --  -10.23790  -3.17126  -3.16925  -1.92022  -1.91805
 Alpha  occ. eigenvalues --   -1.91562  -1.91450  -1.91384  -1.91227  -1.15718
 Alpha  occ. eigenvalues --   -1.14424  -1.11378  -1.10804  -1.09482  -1.07954
 Alpha  occ. eigenvalues --   -1.07479  -1.06656  -1.04817  -1.03910  -1.03820
 Alpha  occ. eigenvalues --   -1.03526  -1.03309  -1.02516  -1.02235  -1.01605
 Alpha  occ. eigenvalues --   -0.93028  -0.92540  -0.89100  -0.89059  -0.88943
 Alpha  occ. eigenvalues --   -0.88595  -0.88261  -0.88135  -0.87806  -0.87160
 Alpha  occ. eigenvalues --   -0.87136  -0.86858  -0.86543  -0.86034  -0.84607
 Alpha  occ. eigenvalues --   -0.83907  -0.83514  -0.83204  -0.82189  -0.82175
 Alpha  occ. eigenvalues --   -0.82062  -0.81633  -0.80997  -0.80722  -0.80400
 Alpha  occ. eigenvalues --   -0.80089  -0.78215  -0.78126  -0.77081  -0.76987
 Alpha  occ. eigenvalues --   -0.76942  -0.76655  -0.76041  -0.75556  -0.75477
 Alpha  occ. eigenvalues --   -0.74831  -0.73258  -0.72783  -0.72057  -0.71335
 Alpha  occ. eigenvalues --   -0.69800  -0.69656  -0.68775  -0.68762  -0.67734
 Alpha  occ. eigenvalues --   -0.67543  -0.66969  -0.66540  -0.65345  -0.65057
 Alpha  occ. eigenvalues --   -0.64668  -0.64621  -0.64462  -0.64427  -0.64075
 Alpha  occ. eigenvalues --   -0.63902  -0.61571  -0.61473  -0.60093  -0.59894
 Alpha  occ. eigenvalues --   -0.59792  -0.59486  -0.59148  -0.58833  -0.58443
 Alpha  occ. eigenvalues --   -0.58345  -0.57855  -0.57574  -0.57008  -0.56886
 Alpha  occ. eigenvalues --   -0.56142  -0.55989  -0.55782  -0.55626  -0.55337
 Alpha  occ. eigenvalues --   -0.55087  -0.55013  -0.54772  -0.54477  -0.54293
 Alpha  occ. eigenvalues --   -0.54142  -0.53672  -0.53555  -0.53054  -0.52941
 Alpha  occ. eigenvalues --   -0.52816  -0.52671  -0.52472  -0.52391  -0.51961
 Alpha  occ. eigenvalues --   -0.51941  -0.51678  -0.51634  -0.51467  -0.51350
 Alpha  occ. eigenvalues --   -0.51009  -0.50555  -0.50499  -0.50356  -0.50202
 Alpha  occ. eigenvalues --   -0.49813  -0.49687  -0.49641  -0.49496  -0.49395
 Alpha  occ. eigenvalues --   -0.49204  -0.49167  -0.48921  -0.48841  -0.48769
 Alpha  occ. eigenvalues --   -0.48527  -0.48419  -0.48092  -0.47983  -0.47981
 Alpha  occ. eigenvalues --   -0.47824  -0.47761  -0.47693  -0.47372  -0.47065
 Alpha  occ. eigenvalues --   -0.47040  -0.46767  -0.46621  -0.46351  -0.46305
 Alpha  occ. eigenvalues --   -0.45998  -0.45905  -0.45757  -0.45709  -0.45476
 Alpha  occ. eigenvalues --   -0.45459  -0.45313  -0.45188  -0.45053  -0.44857
 Alpha  occ. eigenvalues --   -0.44730  -0.44616  -0.44496  -0.44189  -0.43993
 Alpha  occ. eigenvalues --   -0.43825  -0.43759  -0.43488  -0.43473  -0.43450
 Alpha  occ. eigenvalues --   -0.43197  -0.43197  -0.43063  -0.42771  -0.42703
 Alpha  occ. eigenvalues --   -0.42562  -0.42374  -0.42084  -0.41971  -0.41828
 Alpha  occ. eigenvalues --   -0.41750  -0.41631  -0.41597  -0.41129  -0.41073
 Alpha  occ. eigenvalues --   -0.40960  -0.40853  -0.40789  -0.40656  -0.40486
 Alpha  occ. eigenvalues --   -0.40304  -0.39963  -0.39352  -0.39168  -0.38801
 Alpha  occ. eigenvalues --   -0.38212  -0.38114  -0.38042  -0.37766  -0.37374
 Alpha  occ. eigenvalues --   -0.37022  -0.36838  -0.36606  -0.36556  -0.36355
 Alpha  occ. eigenvalues --   -0.36084  -0.35747  -0.34651  -0.34193  -0.34097
 Alpha  occ. eigenvalues --   -0.33950  -0.33234  -0.32604  -0.31325  -0.31324
 Alpha  occ. eigenvalues --   -0.30843  -0.30832  -0.30582  -0.30122  -0.30063
 Alpha  occ. eigenvalues --   -0.29753  -0.29730  -0.29409  -0.24249  -0.23601
 Alpha  occ. eigenvalues --   -0.21200  -0.20973
 Alpha virt. eigenvalues --   -0.09012  -0.08546  -0.01520  -0.01142   0.00525
 Alpha virt. eigenvalues --    0.00868   0.02186   0.02416   0.02453   0.02663
 Alpha virt. eigenvalues --    0.04932   0.04952   0.05063   0.05839   0.06326

 Mulliken charges:
               1
     1  Mg   0.820638
     2  C   -0.060278
     3  C   -0.109646
     4  C   -0.010558
     5  C   -0.097837
     6  N   -0.339996
     7  C   -0.020889
     8  C   -0.061531
     9  C   -0.031279
    10  C    0.010377
    11  C    0.081254
    12  C    0.079407
    13  C   -0.068968
    14  H    0.035446
    15  N   -0.383338
    16  C    0.220956
    17  C   -0.158632
    18  C   -0.040013
    19  C    0.171621
    20  C    0.117514
    21  C    0.010821
    22  O   -0.218681
    23  C    0.055159
    24  N   -0.251748
    25  C   -0.074998
    26  C   -0.004112
    27  C   -0.051238
    28  C    0.088314
    29  C    0.063733
    30  C    0.024268
    31  C    0.002172
    32  N   -0.340233
    33  C    0.098570
    34  C   -0.182210
    35  C    0.104016
    36  C    0.159808
    37  C    0.133472
    38  C   -0.059267
    39  O   -0.207740
    40  C    0.035632
    41  C    0.229332
    42  O   -0.241939
    43  O   -0.360285
    44  C    0.180278
    45  H   -0.026158
    46  H   -0.008836
    47  H   -0.021094
    48  H   -0.002238
    49  H   -0.007341
    50  H    0.013761
    51  H    0.031711
    52  H    0.021229
    53  H   -0.004190
    54  H    0.042600
    55  H    0.020625
    56  H    0.016844
    57  H    0.018559
    58  H    0.045565
    59  H    0.019798
    60  H    0.029514
    61  H    0.051892
    62  H    0.006383
    63  H    0.019259
    64  H    0.003033
    65  H    0.017814
    66  H    0.011240
    67  H    0.020591
    68  H    0.005226
    69  H   -0.001529
    70  H    0.023073
    71  H    0.027958
    72  H    0.019137
    73  H    0.034977
    74  H    0.045126
    75  H   -0.002637
    76  H    0.036115
    77  H    0.050376
    78  H    0.051187
    79  H    0.043060
    80  Mg   0.840149
    81  C   -0.023618
    82  C   -0.059931
    83  C   -0.059493
    84  C   -0.088249
    85  N   -0.312909
    86  C   -0.052855
    87  C    0.013287
    88  C   -0.070177
    89  C    0.084878
    90  C    0.032872
    91  C    0.022269
    92  C   -0.067089
    93  H    0.013105
    94  N   -0.403474
    95  C    0.093547
    96  C   -0.114434
    97  C   -0.089664
    98  C    0.139392
    99  C    0.129794
   100  C   -0.007901
   101  O   -0.175132
   102  C    0.037062
   103  N   -0.268507
   104  C    0.008200
   105  C    0.022459
   106  C   -0.064368
   107  C   -0.003241
   108  C    0.067813
   109  C    0.012968
   110  C    0.024891
   111  N   -0.316150
   112  C    0.150949
   113  C   -0.226521
   114  C    0.063319
   115  C    0.099534
   116  C    0.138227
   117  C    0.034435
   118  O   -0.135707
   119  C   -0.039664
   120  C    0.217465
   121  O   -0.203410
   122  O   -0.356831
   123  C    0.167138
   124  H   -0.052222
   125  H   -0.001813
   126  H   -0.022101
   127  H    0.024662
   128  H    0.022126
   129  H    0.009520
   130  H    0.028694
   131  H    0.021747
   132  H    0.009431
   133  H    0.037176
   134  H    0.040140
   135  H    0.040324
   136  H    0.035124
   137  H    0.015718
   138  H    0.025423
   139  H    0.055356
   140  H    0.027330
   141  H    0.014960
   142  H    0.011971
   143  H    0.007784
   144  H    0.012412
   145  H    0.017608
   146  H    0.029886
   147  H    0.004760
   148  H    0.008077
   149  H    0.011351
   150  H    0.020278
   151  H    0.015892
   152  H    0.034499
   153  H    0.007366
   154  H    0.021770
   155  H    0.051787
   156  H    0.045603
   157  H    0.055986
   158  H    0.036948
 Sum of Mulliken charges =  -0.00000

 Dipole moment (field-independent basis, Debye):
    X=              1.8257    Y=              1.1189    Z=              0.7313  Tot=              2.2627
 Quadrupole moment (field-independent basis, Debye-Ang):
   XX=           -635.6686   YY=           -477.1921   ZZ=           -509.7300
   XY=             21.2341   XZ=            137.5914   YZ=              9.7484

 Normal termination of Gaussian 16 at Wed Sep 15 09:26:33 2021.
