 Gaussian 16, Revision A.03,
 Gaussian 16:  ES64L-G16RevA.03 25-Dec-2016

 -----------------------------------
 #p cam-b3lyp/Def2SVP td=(nstates=5)
 -----------------------------------

 --------------------------------
 TDDFT excited states in gaussian
 --------------------------------
 Symbolic Z-matrix:
 Charge =  0 Multiplicity = 1

                         Standard orientation:
 ---------------------------------------------------------------------
 Center     Atomic      Atomic             Coordinates (Angstroms)
 Number     Number       Type             X           Y           Z
 ---------------------------------------------------------------------
      1         12           0       16.862688   -0.394475    0.467987
      2          6           0       15.662597    2.085777   -1.567620
      3          6           0       18.005576    1.902228    2.617016
      4          6           0       18.197656   -2.935331    2.235772
      5          6           0       16.064795   -2.793060   -2.145332
      6          7           0       17.057066    1.810282    0.353345
      7          6           0       16.405321    2.617991   -0.491873
      8          6           0       16.592070    4.162701   -0.062118
      9          6           0       17.352422    3.972587    1.303423
     10          6           0       17.542437    2.449753    1.453977
     11          6           0       18.634873    4.818946    1.421515
     12          6           0       15.253676    4.942887    0.073252
     13          6           0       15.268257    6.316333    0.820478
     14          1           0       15.211288    7.626033   -0.054011
     15          7           0       18.004888   -0.495446    2.182672
     16          6           0       18.282829    0.521657    2.971482
     17          6           0       18.995867    0.023422    4.137896
     18          6           0       19.181023   -1.387616    4.028520
     19          6           0       18.441840   -1.666430    2.777668
     20          6           0       19.613797    0.883197    5.228125
     21          6           0       19.959219   -2.361294    4.907406
     22          8           0       20.251635   -3.483341    4.504253
     23          6           0       20.366475   -1.925429    6.271333
     24          7           0       17.134173   -2.559735    0.065133
     25          6           0       17.665175   -3.370109    0.972960
     26          6           0       17.524001   -4.849971    0.579793
     27          6           0       16.670877   -4.730565   -0.680377
     28          6           0       16.657305   -3.271291   -0.945085
     29          6           0       18.807231   -5.676084    0.406824
     30          6           0       15.372156   -5.494140   -0.620155
     31          6           0       15.205734   -6.662588   -1.656042
     32          7           0       16.012606   -0.404396   -1.391263
     33          6           0       15.665704   -1.443954   -2.318065
     34          6           0       14.918563   -0.916849   -3.438778
     35          6           0       14.908436    0.470650   -3.124543
     36          6           0       15.575748    0.708541   -1.916370
     37          6           0       14.186841   -1.592432   -4.544434
     38          6           0       14.261130    1.676839   -3.575119
     39          8           0       13.388747    1.926690   -4.420327
     40          6           0       14.779956    2.805616   -2.719817
     41          6           0       15.740414    3.662262   -3.573962
     42          8           0       16.606578    3.264663   -4.368130
     43          8           0       15.478608    4.971346   -3.297736
     44          6           0       16.264163    6.009747   -4.037041
     45          1           0       18.314564    2.536690    3.450359
     46          1           0       18.763910   -3.781196    2.631159
     47          1           0       15.734355   -3.585160   -2.819658
     48          1           0       17.248821    4.566443   -0.831829
     49          1           0       16.666915    4.258974    2.100990
     50          1           0       18.643941    5.239053    2.426675
     51          1           0       18.632073    5.662388    0.730995
     52          1           0       19.521549    4.208068    1.251566
     53          1           0       14.640595    4.336383    0.739854
     54          1           0       14.831369    5.131552   -0.913680
     55          1           0       16.243043    6.401426    1.301840
     56          1           0       14.412859    6.355306    1.494043
     57          1           0       19.427822    1.942713    5.052369
     58          1           0       20.691138    0.721398    5.253939
     59          1           0       19.226272    0.629242    6.213935
     60          1           0       19.461922   -1.512909    6.719102
     61          1           0       21.148745   -1.188521    6.450768
     62          1           0       20.727653   -2.748318    6.887242
     63          1           0       16.946471   -5.343123    1.360944
     64          1           0       17.231056   -5.194679   -1.491910
     65          1           0       18.553770   -6.646334    0.833277
     66          1           0       19.654525   -5.171523    0.870935
     67          1           0       19.160283   -5.748889   -0.621795
     68          1           0       14.627651   -4.754405   -0.912721
     69          1           0       15.165336   -5.928768    0.357390
     70          1           0       16.085702   -6.719989   -2.297270
     71          1           0       14.346777   -6.417917   -2.281642
     72          1           0       14.953663   -7.633793   -1.229984
     73          1           0       14.143378   -2.666251   -4.364356
     74          1           0       14.827944   -1.481599   -5.418205
     75          1           0       13.202357   -1.122429   -4.553092
     76          1           0       13.883635    3.357831   -2.436750
     77          1           0       17.339239    5.833849   -4.081427
     78          1           0       16.094646    7.030240   -3.695180
     79          1           0       15.936347    5.933414   -5.073631
     80         12           0      -16.418070   -0.874088    0.142445
     81          6           0      -18.180102    2.022174    1.148360
     82          6           0      -13.961053    1.167444   -1.092177
     83          6           0      -15.107315   -3.518833   -1.359243
     84          6           0      -19.228261   -2.768276    1.017851
     85          7           0      -16.189409    1.356645   -0.101880
     86          6           0      -17.003558    2.320036    0.499603
     87          6           0      -16.295581    3.697171    0.477048
     88          6           0      -14.944973    3.395568   -0.269499
     89          6           0      -14.968381    1.858120   -0.493536
     90          6           0      -14.586695    4.290730   -1.442883
     91          6           0      -16.089955    4.385239    1.835550
     92          6           0      -16.669987    5.824519    1.907126
     93          1           0      -15.685987    6.903417    2.301709
     94          7           0      -14.699987   -1.125166   -0.993058
     95          6           0      -13.820079   -0.182885   -1.438357
     96          6           0      -12.711836   -0.873869   -2.053270
     97          6           0      -13.109043   -2.261862   -2.273149
     98          6           0      -14.364366   -2.307482   -1.539175
     99          6           0      -11.429236   -0.096035   -2.653638
    100          6           0      -12.621420   -3.283252   -3.208141
    101          8           0      -13.005140   -4.412693   -3.319385
    102          6           0      -11.506913   -2.843510   -4.152875
    103          7           0      -17.205192   -2.837222   -0.302618
    104          6           0      -16.419728   -3.761936   -0.888407
    105          6           0      -17.036846   -5.156516   -0.759441
    106          6           0      -18.137501   -4.944929    0.292470
    107          6           0      -18.194989   -3.437047    0.394230
    108          6           0      -17.622286   -5.666840   -2.155314
    109          6           0      -17.638960   -5.580160    1.688704
    110          6           0      -16.520641   -4.793758    2.425697
    111          7           0      -18.310203   -0.560386    1.037686
    112          6           0      -19.304507   -1.414794    1.328460
    113          6           0      -20.374575   -0.668506    1.933883
    114          6           0      -19.958242    0.649539    1.926540
    115          6           0      -18.706058    0.705577    1.308409
    116          6           0      -21.709893   -1.162411    2.457108
    117          6           0      -20.441719    1.986270    2.282487
    118          8           0      -21.447196    2.499726    2.685407
    119          6           0      -19.279721    2.926816    1.867122
    120          6           0      -19.869680    3.883850    0.898410
    121          8           0      -20.452577    3.503537   -0.085737
    122          8           0      -19.755977    5.208031    1.290254
    123          6           0      -20.580367    6.202497    0.525294
    124          1           0      -13.098835    1.807897   -1.289908
    125          1           0      -14.663702   -4.444554   -1.732715
    126          1           0      -20.048340   -3.294473    1.510904
    127          1           0      -16.849215    4.362075   -0.186220
    128          1           0      -14.127133    3.640064    0.408617
    129          1           0      -15.454744    4.847233   -1.793181
    130          1           0      -14.134842    3.758038   -2.280024
    131          1           0      -13.904707    5.041533   -1.044570
    132          1           0      -15.067938    4.541991    2.180569
    133          1           0      -16.541761    3.800037    2.636172
    134          1           0      -17.583513    5.857979    2.500712
    135          1           0      -16.972892    6.104639    0.899028
    136          1           0      -10.534479   -0.602620   -2.292034
    137          1           0      -11.304420    0.940387   -2.342310
    138          1           0      -11.351528    0.030560   -3.733444
    139          1           0      -10.690926   -2.591000   -3.475340
    140          1           0      -11.908422   -1.970066   -4.665699
    141          1           0      -11.138261   -3.624805   -4.818259
    142          1           0      -16.353583   -5.899158   -0.346082
    143          1           0      -19.160425   -5.264127    0.091642
    144          1           0      -17.559618   -6.755295   -2.143812
    145          1           0      -17.128673   -5.351635   -3.075226
    146          1           0      -18.667521   -5.359127   -2.129674
    147          1           0      -17.317312   -6.616737    1.589862
    148          1           0      -18.434769   -5.498848    2.429221
    149          1           0      -16.067161   -5.307537    3.272672
    150          1           0      -16.965869   -3.875655    2.809384
    151          1           0      -15.762183   -4.533217    1.686762
    152          1           0      -21.635890   -1.857559    3.293097
    153          1           0      -22.137667   -1.689704    1.604823
    154          1           0      -22.400781   -0.349824    2.681711
    155          1           0      -19.040433    3.448596    2.793549
    156          1           0      -19.826446    6.980058    0.402411
    157          1           0      -21.420291    6.592966    1.099592
    158          1           0      -21.019953    5.930490   -0.434005
 ---------------------------------------------------------------------

 SCF Done:  E(RCAM-B3LYP) =  -4069.82198659     A.U. after   19 cycles

 Excitation energies and oscillator strengths:

 Excited State   1:      Singlet-A      1.7036 eV  727.79 nm  f=0.4045  <S**2>=0.000
     309 -> 316        0.17508
     311 -> 313        0.68544
     309 <- 316        0.10734
 This state for optimization and/or second-order correction.
 Total Energy, E(TD-HF/TD-DFT) =  -4069.75938126
 Copying the excited state density for this state as the 1-particle RhoCI density.

 Excited State   2:      Singlet-A      1.7216 eV  720.15 nm  f=0.4015  <S**2>=0.000
     310 -> 315       -0.17535
     312 -> 314        0.68196
     310 <- 315       -0.10293

 Excited State   3:      Singlet-A      2.1918 eV  565.67 nm  f=0.1376  <S**2>=0.000
     309 -> 313        0.65683
     311 -> 316       -0.24840

 Excited State   4:      Singlet-A      2.2691 eV  546.40 nm  f=0.1130  <S**2>=0.000
     310 -> 314        0.63909
     312 -> 315        0.28653

 Excited State   5:      Singlet-A      2.9747 eV  416.79 nm  f=0.0000  <S**2>=0.000
     312 -> 313        0.70709

 The electronic state is 1-A.
 Alpha  occ. eigenvalues --  -46.89548 -46.89215 -19.25652 -19.25148 -19.19611
 Alpha  occ. eigenvalues --  -19.19563 -19.19479 -19.19284 -19.18400 -19.17704
 Alpha  occ. eigenvalues --  -14.42116 -14.42094 -14.41926 -14.41757 -14.40114
 Alpha  occ. eigenvalues --  -14.39776 -14.39304 -14.39234 -10.39581 -10.38799
 Alpha  occ. eigenvalues --  -10.36121 -10.35160 -10.34375 -10.33370 -10.32208
 Alpha  occ. eigenvalues --  -10.31813 -10.31708 -10.31531 -10.30996 -10.30780
 Alpha  occ. eigenvalues --  -10.30763 -10.30758 -10.30515 -10.30410 -10.30337
 Alpha  occ. eigenvalues --  -10.30245 -10.30046 -10.30011 -10.29967 -10.29631
 Alpha  occ. eigenvalues --  -10.29381 -10.29356 -10.29164 -10.28831 -10.28681
 Alpha  occ. eigenvalues --  -10.28608 -10.28414 -10.28192 -10.28126 -10.28092
 Alpha  occ. eigenvalues --  -10.28036 -10.28031 -10.28016 -10.28003 -10.27897
 Alpha  occ. eigenvalues --  -10.27798 -10.27769 -10.27565 -10.27518 -10.27511
 Alpha  occ. eigenvalues --  -10.27391 -10.27052 -10.27049 -10.27038 -10.26991
 Alpha  occ. eigenvalues --  -10.26783 -10.26734 -10.26652 -10.26557 -10.26550
 Alpha  occ. eigenvalues --  -10.26519 -10.26515 -10.26282 -10.26277 -10.26271
 Alpha  occ. eigenvalues --  -10.26251 -10.26207 -10.26180 -10.25968 -10.25956
 Alpha  occ. eigenvalues --  -10.25737 -10.25685 -10.25618 -10.25058 -10.25046
 Alpha  occ. eigenvalues --  -10.24425  -3.17951  -3.17740  -1.92834  -1.92631
 Alpha  occ. eigenvalues --   -1.92420  -1.92244  -1.92188  -1.92053  -1.15694
 Alpha  occ. eigenvalues --   -1.15586  -1.11675  -1.11068  -1.10412  -1.07994
 Alpha  occ. eigenvalues --   -1.07627  -1.06565  -1.05755  -1.05192  -1.04411
 Alpha  occ. eigenvalues --   -1.04294  -1.03902  -1.03838  -1.02982  -1.02002
 Alpha  occ. eigenvalues --   -0.92365  -0.91296  -0.89944  -0.88885  -0.88816
 Alpha  occ. eigenvalues --   -0.88756  -0.88224  -0.88197  -0.87746  -0.87577
 Alpha  occ. eigenvalues --   -0.87182  -0.87028  -0.86549  -0.86332  -0.84416
 Alpha  occ. eigenvalues --   -0.84216  -0.83503  -0.83358  -0.82513  -0.82383
 Alpha  occ. eigenvalues --   -0.82193  -0.81214  -0.81134  -0.80868  -0.80168
 Alpha  occ. eigenvalues --   -0.80066  -0.78561  -0.78382  -0.77581  -0.77425
 Alpha  occ. eigenvalues --   -0.76768  -0.76766  -0.76170  -0.76124  -0.75376
 Alpha  occ. eigenvalues --   -0.75228  -0.73108  -0.72660  -0.71769  -0.71711
 Alpha  occ. eigenvalues --   -0.69468  -0.69374  -0.69202  -0.69137  -0.68082
 Alpha  occ. eigenvalues --   -0.67737  -0.67602  -0.67305  -0.65870  -0.65488
 Alpha  occ. eigenvalues --   -0.65327  -0.65162  -0.64915  -0.64489  -0.64445
 Alpha  occ. eigenvalues --   -0.63971  -0.62662  -0.62285  -0.60755  -0.60415
 Alpha  occ. eigenvalues --   -0.59724  -0.59683  -0.59289  -0.58908  -0.58757
 Alpha  occ. eigenvalues --   -0.58664  -0.58131  -0.58014  -0.57541  -0.57465
 Alpha  occ. eigenvalues --   -0.56336  -0.55991  -0.55686  -0.55374  -0.55229
 Alpha  occ. eigenvalues --   -0.55171  -0.54580  -0.54566  -0.54220  -0.54203
 Alpha  occ. eigenvalues --   -0.53768  -0.53431  -0.53426  -0.52947  -0.52825
 Alpha  occ. eigenvalues --   -0.52672  -0.52598  -0.52447  -0.52192  -0.52130
 Alpha  occ. eigenvalues --   -0.51890  -0.51709  -0.51499  -0.51266  -0.51215
 Alpha  occ. eigenvalues --   -0.51141  -0.50769  -0.50733  -0.50508  -0.50035
 Alpha  occ. eigenvalues --   -0.49996  -0.49815  -0.49801  -0.49720  -0.49511
 Alpha  occ. eigenvalues --   -0.49392  -0.49385  -0.49324  -0.49068  -0.49038
 Alpha  occ. eigenvalues --   -0.48994  -0.48597  -0.48409  -0.48293  -0.48193
 Alpha  occ. eigenvalues --   -0.47941  -0.47820  -0.47684  -0.47578  -0.47471
 Alpha  occ. eigenvalues --   -0.47328  -0.47013  -0.46813  -0.46437  -0.46410
 Alpha  occ. eigenvalues --   -0.46167  -0.46137  -0.46104  -0.45996  -0.45901
 Alpha  occ. eigenvalues --   -0.45600  -0.45312  -0.45108  -0.45010  -0.44722
 Alpha  occ. eigenvalues --   -0.44545  -0.44522  -0.44433  -0.44155  -0.44060
 Alpha  occ. eigenvalues --   -0.44034  -0.43890  -0.43691  -0.43620  -0.43386
 Alpha  occ. eigenvalues --   -0.43334  -0.43061  -0.42947  -0.42904  -0.42786
 Alpha  occ. eigenvalues --   -0.42439  -0.42312  -0.42235  -0.42077  -0.42044
 Alpha  occ. eigenvalues --   -0.42014  -0.41991  -0.41864  -0.41556  -0.41468
 Alpha  occ. eigenvalues --   -0.41375  -0.41124  -0.40927  -0.40865  -0.40454
 Alpha  occ. eigenvalues --   -0.40321  -0.39737  -0.39303  -0.39118  -0.39090
 Alpha  occ. eigenvalues --   -0.38332  -0.38294  -0.38070  -0.37895  -0.37844
 Alpha  occ. eigenvalues --   -0.37079  -0.37028  -0.36709  -0.36368  -0.36241
 Alpha  occ. eigenvalues --   -0.36234  -0.35984  -0.34407  -0.34315  -0.34087
 Alpha  occ. eigenvalues --   -0.34030  -0.33401  -0.33386  -0.31993  -0.31622
 Alpha  occ. eigenvalues --   -0.31226  -0.31135  -0.30618  -0.30393  -0.30302
 Alpha  occ. eigenvalues --   -0.30154  -0.29999  -0.29697  -0.24182  -0.23942
 Alpha  occ. eigenvalues --   -0.21585  -0.21133
 Alpha virt. eigenvalues --   -0.09176  -0.08580  -0.01799  -0.01433   0.00547
 Alpha virt. eigenvalues --    0.00554   0.01680   0.01863   0.02507   0.02523
 Alpha virt. eigenvalues --    0.04869   0.05304   0.05649   0.05667   0.06267

 Mulliken charges:
               1
     1  Mg   0.832052
     2  C   -0.058970
     3  C   -0.068402
     4  C   -0.048459
     5  C   -0.064194
     6  N   -0.282683
     7  C   -0.070714
     8  C    0.037201
     9  C   -0.103347
    10  C    0.096693
    11  C    0.074351
    12  C    0.030394
    13  C   -0.078901
    14  H   -0.000475
    15  N   -0.351729
    16  C    0.093646
    17  C   -0.163047
    18  C   -0.023571
    19  C    0.114224
    20  C    0.115763
    21  C    0.042820
    22  O   -0.195721
    23  C    0.027068
    24  N   -0.202745
    25  C   -0.029770
    26  C   -0.063772
    27  C   -0.010486
    28  C   -0.014923
    29  C    0.083988
    30  C    0.049320
    31  C   -0.014701
    32  N   -0.364369
    33  C    0.117893
    34  C   -0.165061
    35  C   -0.033243
    36  C    0.166916
    37  C    0.154760
    38  C    0.031397
    39  O   -0.204198
    40  C    0.011465
    41  C    0.227308
    42  O   -0.237157
    43  O   -0.334662
    44  C    0.179420
    45  H   -0.045395
    46  H    0.005845
    47  H   -0.021636
    48  H    0.012757
    49  H    0.012042
    50  H    0.012175
    51  H    0.020284
    52  H    0.026707
    53  H    0.007717
    54  H    0.051183
    55  H    0.027724
    56  H    0.042424
    57  H    0.007537
    58  H    0.029990
    59  H    0.019379
    60  H    0.028779
    61  H    0.042018
    62  H    0.025851
    63  H    0.012600
    64  H   -0.000556
    65  H    0.024245
    66  H    0.022926
    67  H    0.008063
    68  H    0.006218
    69  H    0.012154
    70  H    0.013307
    71  H    0.012253
    72  H    0.019523
    73  H   -0.002857
    74  H    0.041584
    75  H    0.058607
    76  H    0.040189
    77  H    0.041195
    78  H    0.045307
    79  H    0.038484
    80  Mg   0.813044
    81  C   -0.023637
    82  C   -0.077238
    83  C   -0.062034
    84  C   -0.064346
    85  N   -0.302481
    86  C   -0.035122
    87  C    0.006890
    88  C   -0.058626
    89  C    0.050776
    90  C    0.068874
    91  C    0.056728
    92  C   -0.088708
    93  H    0.008324
    94  N   -0.363088
    95  C    0.161216
    96  C   -0.116987
    97  C   -0.041631
    98  C    0.130657
    99  C    0.062493
   100  C   -0.022274
   101  O   -0.176335
   102  C    0.054569
   103  N   -0.263233
   104  C    0.030068
   105  C   -0.035225
   106  C   -0.014420
   107  C    0.032479
   108  C    0.066533
   109  C    0.004409
   110  C   -0.014667
   111  N   -0.320750
   112  C    0.065124
   113  C   -0.162629
   114  C   -0.035089
   115  C    0.140022
   116  C    0.116961
   117  C    0.069079
   118  O   -0.136729
   119  C    0.003823
   120  C    0.181216
   121  O   -0.201500
   122  O   -0.351222
   123  C    0.165214
   124  H   -0.034038
   125  H   -0.000971
   126  H   -0.031228
   127  H    0.018647
   128  H    0.008116
   129  H    0.008582
   130  H    0.022503
   131  H    0.009372
   132  H    0.019131
   133  H    0.009105
   134  H    0.046095
   135  H    0.015669
   136  H    0.027228
   137  H    0.003925
   138  H    0.033402
   139  H    0.021893
   140  H    0.036868
   141  H    0.022692
   142  H    0.016563
   143  H    0.012827
   144  H    0.017338
   145  H    0.035594
   146  H    0.016226
   147  H    0.020176
   148  H    0.002039
   149  H    0.023615
   150  H    0.021699
   151  H    0.021082
   152  H    0.029083
   153  H    0.019750
   154  H    0.036331
   155  H    0.033796
   156  H    0.035901
   157  H    0.044026
   158  H    0.056439
 Sum of Mulliken charges =  -0.00000

 Dipole moment (field-independent basis, Debye):
    X=              3.7406    Y=              0.9667    Z=              6.1236  Tot=              7.2405
 Quadrupole moment (field-independent basis, Debye-Ang):
   XX=           -606.4826   YY=           -469.2496   ZZ=           -523.7371
   XY=             39.3893   XZ=             60.6208   YZ=              1.0206

 Normal termination of Gaussian 16 at Wed Sep  1 12:11:47 2021.
