 Gaussian 16, Revision A.03,
 Gaussian 16:  ES64L-G16RevA.03 25-Dec-2016

 -----------------------------------
 #p cam-b3lyp/Def2SVP td=(nstates=5)
 -----------------------------------

 --------------------------------
 TDDFT excited states in gaussian
 --------------------------------
 Symbolic Z-matrix:
 Charge =  0 Multiplicity = 1

                         Standard orientation:
 ---------------------------------------------------------------------
 Center     Atomic      Atomic             Coordinates (Angstroms)
 Number     Number       Type             X           Y           Z
 ---------------------------------------------------------------------
      1         12           0      -28.731015    0.370957    0.419940
      2          6           0      -26.870840   -2.122211   -1.066609
      3          6           0      -27.909302    2.391155   -2.421095
      4          6           0      -30.170302    2.923095    1.858066
      5          6           0      -29.163648   -1.572559    3.248505
      6          7           0      -27.312201    0.174545   -1.454324
      7          6           0      -26.887863   -0.995162   -1.902232
      8          6           0      -26.553031   -0.922772   -3.418886
      9          6           0      -26.378790    0.628017   -3.579010
     10          6           0      -27.247215    1.159039   -2.427286
     11          6           0      -24.879760    1.078125   -3.454318
     12          6           0      -27.780611   -1.502358   -4.156408
     13          6           0      -27.646436   -1.680765   -5.674827
     14          1           0      -26.471075   -1.072180   -6.413038
     15          7           0      -29.133951    2.328901   -0.151043
     16          6           0      -28.731331    2.944021   -1.386141
     17          6           0      -29.405640    4.234373   -1.427993
     18          6           0      -30.161712    4.347265   -0.219540
     19          6           0      -29.820687    3.183139    0.596879
     20          6           0      -29.330531    5.248538   -2.629663
     21          6           0      -31.179460    5.475114    0.154220
     22          8           0      -31.637217    5.476567    1.264030
     23          6           0      -31.534524    6.537274   -0.834972
     24          7           0      -29.641118    0.607487    2.278057
     25          6           0      -30.189301    1.778814    2.672702
     26          6           0      -30.715831    1.745770    4.106984
     27          6           0      -30.510891    0.260962    4.486966
     28          6           0      -29.705299   -0.282480    3.237678
     29          6           0      -30.022473    2.739266    5.110066
     30          6           0      -31.728755   -0.521855    4.906920
     31          6           0      -33.042809   -0.464265    4.091128
     32          7           0      -28.164972   -1.457482    1.059052
     33          6           0      -28.409384   -2.139245    2.216702
     34          6           0      -27.876081   -3.474254    2.045849
     35          6           0      -27.267732   -3.571080    0.747212
     36          6           0      -27.474744   -2.275254    0.199959
     37          6           0      -27.956251   -4.547502    3.086207
     38          6           0      -26.518631   -4.376416   -0.157765
     39          8           0      -26.065980   -5.539831   -0.087757
     40          6           0      -26.014029   -3.305967   -1.271139
     41          6           0      -26.042704   -4.034152   -2.615951
     42          8           0      -26.964292   -4.600726   -3.065324
     43          8           0      -24.797449   -3.942600   -3.169647
     44          6           0      -24.658429   -4.230704   -4.582340
     45          1           0      -27.599641    3.020892   -3.257209
     46          1           0      -30.616305    3.756218    2.405311
     47          1           0      -29.249300   -2.229404    4.115783
     48          1           0      -25.602290   -1.400474   -3.655061
     49          1           0      -26.823382    0.831778   -4.553434
     50          1           0      -24.489880    1.312707   -4.444040
     51          1           0      -24.326109    0.264037   -2.986128
     52          1           0      -24.747352    1.996188   -2.881772
     53          1           0      -28.597154   -0.791655   -4.031556
     54          1           0      -28.164120   -2.399599   -3.671596
     55          1           0      -28.592465   -1.569124   -6.205079
     56          1           0      -27.555792   -2.759008   -5.807596
     57          1           0      -29.072834    6.257335   -2.305777
     58          1           0      -30.300446    5.187464   -3.122995
     59          1           0      -28.622100    4.879615   -3.372346
     60          1           0      -32.544427    6.802909   -0.521717
     61          1           0      -31.647804    6.149136   -1.846561
     62          1           0      -30.828085    7.332513   -1.072806
     63          1           0      -31.772579    1.998359    4.022822
     64          1           0      -29.771476    0.121799    5.275604
     65          1           0      -29.998512    2.216999    6.066128
     66          1           0      -30.722296    3.575043    5.126145
     67          1           0      -29.073121    3.089424    4.704946
     68          1           0      -32.020262    0.047191    5.789067
     69          1           0      -31.593202   -1.576466    5.149092
     70          1           0      -33.934918   -0.071728    4.577341
     71          1           0      -33.402954   -1.463767    3.847535
     72          1           0      -32.885321    0.147801    3.202935
     73          1           0      -27.413472   -5.396324    2.671258
     74          1           0      -28.991563   -4.866421    3.213971
     75          1           0      -27.650783   -4.249317    4.088708
     76          1           0      -25.020495   -3.006600   -0.936777
     77          1           0      -23.869316   -4.955601   -4.382012
     78          1           0      -24.454875   -3.350843   -5.193048
     79          1           0      -25.506078   -4.758158   -5.020589
     80         12           0       28.774114    0.616578   -0.466280
     81          6           0       27.515314   -2.530101    0.711873
     82          6           0       25.771439    2.003977    0.882400
     83          6           0       30.091106    3.707305   -0.508699
     84          6           0       31.808005   -0.873385   -0.987651
     85          7           0       26.933157   -0.198435    0.676133
     86          6           0       26.632257   -1.486326    1.011210
     87          6           0       25.246896   -1.592211    1.739287
     88          6           0       24.603474   -0.168545    1.378766
     89          6           0       25.861553    0.611543    1.031924
     90          6           0       23.650395   -0.184000    0.205710
     91          6           0       25.360907   -1.990131    3.201576
     92          6           0       24.369482   -3.057812    3.732761
     93          1           0       23.078774   -2.633185    4.576338
     94          7           0       27.995429    2.665988    0.023126
     95          6           0       26.696362    2.980471    0.473762
     96          6           0       26.569747    4.440373    0.561862
     97          6           0       27.845844    4.952868    0.100689
     98          6           0       28.718579    3.810227   -0.063112
     99          6           0       25.404006    5.209212    1.059211
    100          6           0       28.154595    6.407204   -0.152397
    101          8           0       27.240231    7.199549   -0.115565
    102          6           0       29.531726    6.946426   -0.463527
    103          7           0       30.655876    1.237396   -0.592189
    104          6           0       30.912752    2.596542   -0.748787
    105          6           0       32.416206    2.752328   -0.988896
    106          6           0       32.897328    1.299125   -1.348982
    107          6           0       31.689780    0.498808   -0.994307
    108          6           0       32.899191    3.873724   -1.980355
    109          6           0       34.226904    0.787058   -0.714729
    110          6           0       35.293018    0.284174   -1.632595
    111          7           0       29.524461   -1.285920   -0.331644
    112          6           0       30.776531   -1.781031   -0.651931
    113          6           0       30.769821   -3.256692   -0.658023
    114          6           0       29.489251   -3.559938   -0.051948
    115          6           0       28.825980   -2.340956    0.118960
    116          6           0       31.836354   -4.233430   -1.078307
    117          6           0       28.623986   -4.696588    0.380896
    118          8           0       28.851715   -5.871344    0.438681
    119          6           0       27.390261   -4.032046    0.983131
    120          6           0       26.183996   -4.598106    0.295215
    121          8           0       26.021206   -4.367349   -0.883720
    122          8           0       25.257408   -5.294803    1.127734
    123          6           0       23.957710   -5.682509    0.500235
    124          1           0       24.844712    2.461662    1.235213
    125          1           0       30.664132    4.632576   -0.588731
    126          1           0       32.733955   -1.322741   -1.351735
    127          1           0       24.575073   -2.284511    1.232680
    128          1           0       24.173517    0.308549    2.259379
    129          1           0       24.236600   -0.164618   -0.712744
    130          1           0       22.984819    0.670986    0.323677
    131          1           0       22.999951   -1.048280    0.067402
    132          1           0       25.156624   -1.085960    3.774194
    133          1           0       26.410940   -2.196156    3.408977
    134          1           0       25.004118   -3.691846    4.352371
    135          1           0       23.962120   -3.697107    2.949429
    136          1           0       24.850152    5.524780    0.175555
    137          1           0       25.754693    6.139037    1.507138
    138          1           0       24.710111    4.758971    1.770077
    139          1           0       29.608346    8.032652   -0.507800
    140          1           0       29.779741    6.554595   -1.450040
    141          1           0       30.378239    6.633526    0.146587
    142          1           0       32.750423    3.126252   -0.020691
    143          1           0       32.902127    1.205205   -2.434508
    144          1           0       32.088226    4.175739   -2.643637
    145          1           0       33.783395    3.545120   -2.526225
    146          1           0       33.246389    4.743344   -1.422827
    147          1           0       33.992280   -0.002255   -0.000635
    148          1           0       34.599732    1.584166   -0.071655
    149          1           0       35.343987   -0.801844   -1.557567
    150          1           0       36.258789    0.684017   -1.323841
    151          1           0       35.191026    0.506438   -2.694588
    152          1           0       31.406038   -5.207939   -1.308179
    153          1           0       32.541128   -4.294520   -0.248579
    154          1           0       32.397323   -3.780755   -1.896129
    155          1           0       27.441053   -4.170336    2.063235
    156          1           0       24.106931   -6.576489   -0.105508
    157          1           0       23.610446   -4.909127   -0.184556
    158          1           0       23.192556   -5.839283    1.260295
 ---------------------------------------------------------------------

 SCF Done:  E(RCAM-B3LYP) =  -4069.80438386     A.U. after   18 cycles

 Excitation energies and oscillator strengths:

 Excited State   1:      Singlet-A      1.6714 eV  741.79 nm  f=0.3976  <S**2>=0.000
     309 -> 316        0.16934
     311 -> 313        0.68867
     309 <- 316        0.10659
 This state for optimization and/or second-order correction.
 Total Energy, E(TD-HF/TD-DFT) =  -4069.74296007
 Copying the excited state density for this state as the 1-particle RhoCI density.

 Excited State   2:      Singlet-A      1.7338 eV  715.11 nm  f=0.3759  <S**2>=0.000
     310 -> 315       -0.19618
     312 -> 314        0.68088
     310 <- 315       -0.11070

 Excited State   3:      Singlet-A      2.2193 eV  558.65 nm  f=0.0921  <S**2>=0.000
     310 -> 314        0.63504
     312 -> 315        0.29923

 Excited State   4:      Singlet-A      2.2361 eV  554.47 nm  f=0.1278  <S**2>=0.000
     309 -> 313        0.64117
     311 -> 316       -0.28143

 Excited State   5:      Singlet-A      3.1315 eV  395.93 nm  f=0.0000  <S**2>=0.000
     312 -> 313        0.70711

 The electronic state is 1-A.
 Alpha  occ. eigenvalues --  -46.89328 -46.88269 -19.25258 -19.24386 -19.20730
 Alpha  occ. eigenvalues --  -19.20262 -19.19728 -19.19096 -19.19018 -19.17987
 Alpha  occ. eigenvalues --  -14.42762 -14.41734 -14.41731 -14.41718 -14.39340
 Alpha  occ. eigenvalues --  -14.39306 -14.39275 -14.39160 -10.40221 -10.38917
 Alpha  occ. eigenvalues --  -10.35410 -10.35276 -10.35059 -10.34516 -10.32268
 Alpha  occ. eigenvalues --  -10.31464 -10.31389 -10.31298 -10.30712 -10.30698
 Alpha  occ. eigenvalues --  -10.30620 -10.30592 -10.30517 -10.30429 -10.30284
 Alpha  occ. eigenvalues --  -10.30283 -10.30236 -10.29625 -10.29492 -10.29314
 Alpha  occ. eigenvalues --  -10.29225 -10.29106 -10.29008 -10.28837 -10.28772
 Alpha  occ. eigenvalues --  -10.28665 -10.28641 -10.28600 -10.28559 -10.28458
 Alpha  occ. eigenvalues --  -10.28077 -10.28062 -10.27993 -10.27802 -10.27795
 Alpha  occ. eigenvalues --  -10.27783 -10.27698 -10.27656 -10.27622 -10.27604
 Alpha  occ. eigenvalues --  -10.27583 -10.27583 -10.27224 -10.27014 -10.26919
 Alpha  occ. eigenvalues --  -10.26742 -10.26570 -10.26559 -10.26527 -10.26526
 Alpha  occ. eigenvalues --  -10.26495 -10.26467 -10.26464 -10.26316 -10.26277
 Alpha  occ. eigenvalues --  -10.26267 -10.26208 -10.26050 -10.25896 -10.25792
 Alpha  occ. eigenvalues --  -10.25746 -10.25737 -10.25534 -10.25375 -10.25272
 Alpha  occ. eigenvalues --  -10.24947  -3.17897  -3.16906  -1.92745  -1.92357
 Alpha  occ. eigenvalues --   -1.92204  -1.91806  -1.91378  -1.91196  -1.17612
 Alpha  occ. eigenvalues --   -1.15369  -1.11728  -1.11524  -1.10218  -1.09801
 Alpha  occ. eigenvalues --   -1.08010  -1.07869  -1.05237  -1.04598  -1.04082
 Alpha  occ. eigenvalues --   -1.03580  -1.03053  -1.02779  -1.02077  -1.01514
 Alpha  occ. eigenvalues --   -0.93021  -0.92758  -0.89411  -0.89381  -0.88889
 Alpha  occ. eigenvalues --   -0.88670  -0.88539  -0.88460  -0.87618  -0.87309
 Alpha  occ. eigenvalues --   -0.86435  -0.86233  -0.85682  -0.85653  -0.84496
 Alpha  occ. eigenvalues --   -0.84069  -0.83964  -0.83737  -0.82497  -0.82431
 Alpha  occ. eigenvalues --   -0.81847  -0.81765  -0.81426  -0.80559  -0.80282
 Alpha  occ. eigenvalues --   -0.80207  -0.78168  -0.77997  -0.77492  -0.77361
 Alpha  occ. eigenvalues --   -0.76823  -0.76802  -0.76352  -0.75874  -0.75514
 Alpha  occ. eigenvalues --   -0.75228  -0.72687  -0.72650  -0.72008  -0.71784
 Alpha  occ. eigenvalues --   -0.70273  -0.69554  -0.68939  -0.68885  -0.68109
 Alpha  occ. eigenvalues --   -0.67925  -0.66716  -0.66205  -0.65948  -0.65191
 Alpha  occ. eigenvalues --   -0.65099  -0.64925  -0.64545  -0.64322  -0.64302
 Alpha  occ. eigenvalues --   -0.64157  -0.62374  -0.62327  -0.60510  -0.59800
 Alpha  occ. eigenvalues --   -0.59654  -0.59558  -0.59195  -0.59165  -0.59070
 Alpha  occ. eigenvalues --   -0.58825  -0.58331  -0.58147  -0.57922  -0.57652
 Alpha  occ. eigenvalues --   -0.56542  -0.56228  -0.56141  -0.55664  -0.55655
 Alpha  occ. eigenvalues --   -0.55438  -0.55354  -0.54331  -0.54230  -0.53869
 Alpha  occ. eigenvalues --   -0.53640  -0.53523  -0.53368  -0.53084  -0.52968
 Alpha  occ. eigenvalues --   -0.52963  -0.52395  -0.52311  -0.52245  -0.52087
 Alpha  occ. eigenvalues --   -0.51838  -0.51813  -0.51727  -0.51317  -0.51105
 Alpha  occ. eigenvalues --   -0.50929  -0.50766  -0.50722  -0.50440  -0.50152
 Alpha  occ. eigenvalues --   -0.49991  -0.49942  -0.49874  -0.49743  -0.49695
 Alpha  occ. eigenvalues --   -0.49565  -0.49329  -0.49315  -0.49307  -0.49116
 Alpha  occ. eigenvalues --   -0.48778  -0.48710  -0.48599  -0.48237  -0.48190
 Alpha  occ. eigenvalues --   -0.48143  -0.47981  -0.47693  -0.47642  -0.47088
 Alpha  occ. eigenvalues --   -0.46980  -0.46853  -0.46627  -0.46549  -0.46425
 Alpha  occ. eigenvalues --   -0.46385  -0.46186  -0.46058  -0.45976  -0.45964
 Alpha  occ. eigenvalues --   -0.45840  -0.45830  -0.45590  -0.45253  -0.45212
 Alpha  occ. eigenvalues --   -0.45016  -0.44963  -0.44745  -0.44664  -0.43863
 Alpha  occ. eigenvalues --   -0.43778  -0.43618  -0.43452  -0.43363  -0.43311
 Alpha  occ. eigenvalues --   -0.43267  -0.42984  -0.42904  -0.42863  -0.42699
 Alpha  occ. eigenvalues --   -0.42644  -0.42553  -0.42431  -0.42310  -0.42092
 Alpha  occ. eigenvalues --   -0.41993  -0.41923  -0.41882  -0.41574  -0.41556
 Alpha  occ. eigenvalues --   -0.41436  -0.41125  -0.40995  -0.40834  -0.40577
 Alpha  occ. eigenvalues --   -0.40268  -0.40227  -0.39556  -0.39447  -0.39293
 Alpha  occ. eigenvalues --   -0.38472  -0.38404  -0.37956  -0.37704  -0.37514
 Alpha  occ. eigenvalues --   -0.37344  -0.37159  -0.37134  -0.36512  -0.36391
 Alpha  occ. eigenvalues --   -0.35855  -0.35825  -0.35138  -0.35048  -0.34403
 Alpha  occ. eigenvalues --   -0.33964  -0.33348  -0.33188  -0.31606  -0.31584
 Alpha  occ. eigenvalues --   -0.31114  -0.31015  -0.30499  -0.30422  -0.29825
 Alpha  occ. eigenvalues --   -0.29678  -0.29365  -0.28744  -0.24311  -0.23813
 Alpha  occ. eigenvalues --   -0.21130  -0.21099
 Alpha virt. eigenvalues --   -0.08990  -0.08439  -0.01891  -0.01502   0.00186
 Alpha virt. eigenvalues --    0.00463   0.01239   0.02607   0.02631   0.03020
 Alpha virt. eigenvalues --    0.04394   0.04400   0.05334   0.05598   0.05848

 Mulliken charges:
               1
     1  Mg   0.826027
     2  C   -0.012349
     3  C   -0.069433
     4  C   -0.074867
     5  C   -0.110760
     6  N   -0.226806
     7  C   -0.083338
     8  C   -0.038259
     9  C   -0.040679
    10  C    0.001549
    11  C    0.086684
    12  C    0.038272
    13  C   -0.033818
    14  H    0.030048
    15  N   -0.395505
    16  C    0.163787
    17  C   -0.171013
    18  C   -0.041629
    19  C    0.168857
    20  C    0.109759
    21  C    0.017406
    22  O   -0.181332
    23  C    0.052848
    24  N   -0.266023
    25  C   -0.012119
    26  C   -0.046950
    27  C   -0.006082
    28  C    0.066946
    29  C    0.083999
    30  C    0.038639
    31  C   -0.018426
    32  N   -0.393955
    33  C    0.127055
    34  C   -0.170478
    35  C    0.015076
    36  C    0.149517
    37  C    0.114105
    38  C    0.076148
    39  O   -0.199756
    40  C   -0.076662
    41  C    0.177532
    42  O   -0.154517
    43  O   -0.338138
    44  C    0.149821
    45  H   -0.021740
    46  H   -0.018193
    47  H   -0.032791
    48  H   -0.002272
    49  H   -0.002006
    50  H    0.017269
    51  H    0.023468
    52  H    0.018042
    53  H    0.001272
    54  H    0.042094
    55  H    0.018706
    56  H    0.015675
    57  H    0.037190
    58  H    0.036372
    59  H    0.006414
    60  H    0.032716
    61  H   -0.000050
    62  H    0.047145
    63  H    0.021809
    64  H    0.003764
    65  H    0.024776
    66  H    0.026001
    67  H    0.031887
    68  H    0.004414
    69  H    0.015881
    70  H    0.010611
    71  H    0.010203
    72  H    0.020211
    73  H    0.037303
    74  H    0.019393
    75  H    0.024876
    76  H    0.054930
    77  H    0.050921
    78  H    0.046128
    79  H    0.046396
    80  Mg   0.850156
    81  C   -0.068681
    82  C   -0.046576
    83  C   -0.070130
    84  C   -0.117760
    85  N   -0.248511
    86  C   -0.056126
    87  C   -0.029263
    88  C   -0.067518
    89  C    0.027864
    90  C    0.088688
    91  C    0.079546
    92  C   -0.054263
    93  H    0.008691
    94  N   -0.346047
    95  C    0.095280
    96  C   -0.125948
    97  C   -0.029128
    98  C    0.139821
    99  C    0.130531
   100  C   -0.009064
   101  O   -0.204461
   102  C    0.048535
   103  N   -0.372413
   104  C    0.069187
   105  C   -0.081039
   106  C    0.022208
   107  C    0.057904
   108  C    0.063543
   109  C    0.049691
   110  C    0.008707
   111  N   -0.354570
   112  C    0.126919
   113  C   -0.180989
   114  C   -0.063992
   115  C    0.147739
   116  C    0.135423
   117  C    0.053069
   118  O   -0.136278
   119  C    0.059770
   120  C    0.212867
   121  O   -0.206832
   122  O   -0.375234
   123  C    0.175414
   124  H   -0.030904
   125  H   -0.056696
   126  H   -0.037311
   127  H    0.003960
   128  H    0.001850
   129  H    0.021989
   130  H    0.020328
   131  H    0.014391
   132  H    0.012525
   133  H    0.016702
   134  H    0.032674
   135  H    0.027192
   136  H    0.030806
   137  H    0.030809
   138  H    0.014443
   139  H    0.024082
   140  H    0.029761
   141  H    0.037082
   142  H    0.024830
   143  H    0.007135
   144  H    0.023785
   145  H    0.015797
   146  H    0.009089
   147  H    0.014438
   148  H   -0.000381
   149  H    0.015714
   150  H    0.013732
   151  H    0.015188
   152  H    0.047897
   153  H    0.030561
   154  H    0.013036
   155  H    0.042060
   156  H    0.044669
   157  H    0.034767
   158  H    0.047276
 Sum of Mulliken charges =  -0.00000

 Dipole moment (field-independent basis, Debye):
    X=              0.9286    Y=              4.8008    Z=             -2.0702  Tot=              5.3100
 Quadrupole moment (field-independent basis, Debye-Ang):
   XX=           -342.6138   YY=           -586.3049   ZZ=           -478.9735
   XY=            -58.8007   XZ=              7.3055   YZ=            -18.9270

 Normal termination of Gaussian 16 at Wed Sep  1 04:33:36 2021.
