 Gaussian 16, Revision A.03,
 Gaussian 16:  ES64L-G16RevA.03 25-Dec-2016

 -----------------------------------
 #p cam-b3lyp/Def2SVP td=(nstates=5)
 -----------------------------------

 --------------------------------
 TDDFT excited states in gaussian
 --------------------------------
 Symbolic Z-matrix:
 Charge =  0 Multiplicity = 1

                         Standard orientation:
 ---------------------------------------------------------------------
 Center     Atomic      Atomic             Coordinates (Angstroms)
 Number     Number       Type             X           Y           Z
 ---------------------------------------------------------------------
      1         12           0      -13.148918   -0.649332   -0.236828
      2          6           0      -12.145763    2.177405    1.639121
      3          6           0      -15.353680    1.362350   -1.969985
      4          6           0      -14.298003   -3.420131   -1.812868
      5          6           0      -11.051206   -2.688751    1.694435
      6          7           0      -13.686141    1.488248   -0.026691
      7          6           0      -13.006220    2.503807    0.641432
      8          6           0      -13.589409    3.929312    0.273683
      9          6           0      -14.773599    3.557219   -0.657850
     10          6           0      -14.657036    2.032519   -0.879446
     11          6           0      -16.229342    3.942070   -0.197595
     12          6           0      -12.552932    5.010532   -0.240496
     13          6           0      -12.464218    6.255347    0.589523
     14          1           0      -12.236651    7.603181   -0.202971
     15          7           0      -14.600310   -0.924868   -1.646273
     16          6           0      -15.368987    0.012575   -2.305882
     17          6           0      -16.261814   -0.661553   -3.235457
     18          6           0      -15.993495   -2.059688   -3.230938
     19          6           0      -14.894156   -2.199545   -2.206434
     20          6           0      -17.217618    0.070690   -4.198747
     21          6           0      -16.602327   -3.180677   -4.067124
     22          8           0      -16.223274   -4.333236   -4.031075
     23          6           0      -17.727025   -2.965741   -5.161127
     24          7           0      -12.790827   -2.792181   -0.005520
     25          6           0      -13.379871   -3.704147   -0.767903
     26          6           0      -12.882592   -5.157059   -0.439465
     27          6           0      -11.689749   -4.888588    0.561173
     28          6           0      -11.815612   -3.348104    0.762049
     29          6           0      -14.042695   -6.075613    0.042063
     30          6           0      -10.364364   -5.384406    0.017617
     31          6           0       -9.487409   -6.083260    1.055056
     32          7           0      -11.933359   -0.443389    1.442255
     33          6           0      -11.066826   -1.323754    2.061312
     34          6           0      -10.470188   -0.630853    3.161503
     35          6           0      -10.805679    0.739995    3.035224
     36          6           0      -11.727506    0.834353    1.955545
     37          6           0       -9.580370   -1.225304    4.186311
     38          6           0      -10.537476    2.090540    3.559432
     39          8           0       -9.922299    2.496973    4.540893
     40          6           0      -11.455676    3.123789    2.545054
     41          6           0      -12.358781    3.897989    3.338092
     42          8           0      -13.551312    3.697786    3.419068
     43          8           0      -11.716850    4.982626    3.891677
     44          6           0      -12.603443    5.785072    4.770729
     45          1           0      -15.972765    1.979031   -2.625172
     46          1           0      -14.664162   -4.349527   -2.252828
     47          1           0      -10.361916   -3.379195    2.186294
     48          1           0      -14.099605    4.247852    1.182074
     49          1           0      -14.651372    4.018654   -1.637813
     50          1           0      -16.753757    4.290989   -1.087718
     51          1           0      -16.155564    4.715061    0.566957
     52          1           0      -16.800302    3.115676    0.226163
     53          1           0      -12.836123    5.225393   -1.270996
     54          1           0      -11.569255    4.542019   -0.204905
     55          1           0      -11.628686    6.173484    1.285953
     56          1           0      -13.406986    6.261742    1.135831
     57          1           0      -16.816019   -0.122430   -5.192862
     58          1           0      -17.098775    1.146228   -4.065483
     59          1           0      -18.256653   -0.260614   -4.181719
     60          1           0      -17.355728   -2.238582   -5.884068
     61          1           0      -18.718872   -2.833453   -4.727865
     62          1           0      -17.899819   -3.961426   -5.568504
     63          1           0      -12.432361   -5.665316   -1.291912
     64          1           0      -11.978977   -5.361648    1.499817
     65          1           0      -13.735779   -6.555074    0.972025
     66          1           0      -14.373038   -6.788247   -0.714089
     67          1           0      -14.921951   -5.470545    0.257054
     68          1           0       -9.784758   -4.585876   -0.444375
     69          1           0      -10.454836   -6.069982   -0.826370
     70          1           0       -9.883846   -5.956827    2.062557
     71          1           0       -8.515331   -5.591258    1.011595
     72          1           0       -9.285991   -7.123364    0.798219
     73          1           0       -9.372061   -2.292554    4.111537
     74          1           0       -9.917214   -0.828032    5.144574
     75          1           0       -8.595753   -0.870744    3.880548
     76          1           0      -10.776464    3.786959    2.008595
     77          1           0      -12.976435    5.164106    5.585509
     78          1           0      -13.368453    6.207920    4.119583
     79          1           0      -12.084035    6.608157    5.259942
     80         12           0       13.504048   -0.669889    0.191955
     81          6           0       11.699465    2.357342   -0.988241
     82          6           0       16.257301    1.273379   -0.067315
     83          6           0       14.967386   -3.385080    0.922710
     84          6           0       10.494069   -2.440198   -0.500828
     85          7           0       13.893957    1.523554   -0.501776
     86          6           0       13.009467    2.561883   -0.739937
     87          6           0       13.654065    3.952024   -0.784918
     88          6           0       15.142987    3.515236   -0.945152
     89          6           0       15.142201    2.005184   -0.488259
     90          6           0       15.709674    3.674184   -2.320837
     91          6           0       13.350176    4.920819    0.406716
     92          6           0       13.334421    6.387646    0.133049
     93          1           0       13.898532    7.264940    1.246129
     94          7           0       15.407420   -1.031124    0.457225
     95          6           0       16.444064   -0.078657    0.367800
     96          6           0       17.648080   -0.700286    0.838744
     97          6           0       17.209485   -2.025493    1.274779
     98          6           0       15.849693   -2.158986    0.894025
     99          6           0       19.036166    0.022810    1.000602
    100          6           0       18.067844   -3.031451    1.978758
    101          8           0       17.647646   -4.177453    2.271194
    102          6           0       19.453211   -2.744941    2.430716
    103          7           0       12.929695   -2.656334    0.072865
    104          6           0       13.731985   -3.648523    0.463814
    105          6           0       13.063013   -5.059730    0.418700
    106          6           0       11.555337   -4.607443    0.400951
    107          6           0       11.641940   -3.135146   -0.086258
    108          6           0       13.442572   -5.853067   -0.872947
    109          6           0       10.891428   -4.665739    1.840581
    110          6           0       10.955817   -5.976337    2.652728
    111          7           0       11.490579   -0.176460   -0.538040
    112          6           0       10.391559   -1.014565   -0.687928
    113          6           0        9.271574   -0.258909   -1.198160
    114          6           0        9.726838    1.062404   -1.292337
    115          6           0       11.110601    1.066994   -0.964989
    116          6           0        7.882413   -0.755571   -1.419277
    117          6           0        9.320758    2.417519   -1.641137
    118          8           0        8.259217    2.927308   -1.974609
    119          6           0       10.641539    3.298527   -1.339874
    120          6           0       10.864527    4.089754   -2.537768
    121          8           0       11.122723    3.664184   -3.674652
    122          8           0       10.321094    5.324454   -2.326310
    123          6           0       10.344520    6.289427   -3.378328
    124          1           0       17.077500    1.993664   -0.031630
    125          1           0       15.430269   -4.341927    1.172241
    126          1           0        9.595449   -3.035087   -0.679188
    127          1           0       13.324749    4.426966   -1.709329
    128          1           0       15.767078    4.002629   -0.196698
    129          1           0       15.791125    2.674514   -2.747647
    130          1           0       16.723512    4.069036   -2.256669
    131          1           0       15.148275    4.287562   -3.025333
    132          1           0       14.142714    4.774239    1.139987
    133          1           0       12.420840    4.585592    0.866431
    134          1           0       12.274995    6.610151    0.007330
    135          1           0       13.698183    6.631876   -0.865108
    136          1           0       19.330084    0.252261    2.024413
    137          1           0       19.094554    0.914703    0.377302
    138          1           0       19.709725   -0.713993    0.561190
    139          1           0       20.106517   -2.759382    1.557939
    140          1           0       19.710747   -3.553660    3.115181
    141          1           0       19.411604   -1.801267    2.973621
    142          1           0       13.399496   -5.575943    1.318445
    143          1           0       10.909208   -5.144634   -0.292682
    144          1           0       14.053052   -6.695593   -0.547083
    145          1           0       13.930653   -5.278027   -1.659175
    146          1           0       12.465824   -6.211899   -1.200546
    147          1           0        9.822430   -4.483359    1.733282
    148          1           0       11.287821   -3.811020    2.388408
    149          1           0       11.466307   -5.702230    3.575843
    150          1           0       11.599197   -6.624799    2.057342
    151          1           0        9.968560   -6.378535    2.879518
    152          1           0        7.857688   -1.718614   -0.908820
    153          1           0        7.777802   -0.883791   -2.496605
    154          1           0        7.105111   -0.062545   -1.097432
    155          1           0       10.462087    3.940456   -0.477613
    156          1           0       10.852857    5.909452   -4.264780
    157          1           0       10.933628    7.118639   -2.986389
    158          1           0        9.351257    6.694878   -3.565712
 ---------------------------------------------------------------------

 SCF Done:  E(RCAM-B3LYP) =  -4069.80778983     A.U. after   18 cycles

 Excitation energies and oscillator strengths:

 Excited State   1:      Singlet-A      1.6590 eV  747.36 nm  f=0.4029  <S**2>=0.000
     309 -> 316       -0.15613
     311 -> 313        0.69157
     309 <- 316       -0.10433
 This state for optimization and/or second-order correction.
 Total Energy, E(TD-HF/TD-DFT) =  -4069.74682369
 Copying the excited state density for this state as the 1-particle RhoCI density.

 Excited State   2:      Singlet-A      1.7836 eV  695.12 nm  f=0.3649  <S**2>=0.000
     310 -> 315       -0.17648
     312 -> 314        0.68520
     310 <- 315       -0.10144

 Excited State   3:      Singlet-A      2.1782 eV  569.21 nm  f=0.2117  <S**2>=0.000
     309 -> 313        0.66758
     311 -> 316        0.21706

 Excited State   4:      Singlet-A      2.2586 eV  548.95 nm  f=0.1152  <S**2>=0.000
     310 -> 314        0.63967
     312 -> 315        0.28420

 Excited State   5:      Singlet-A      2.8046 eV  442.07 nm  f=0.0000  <S**2>=0.000
     312 -> 313        0.70707

 The electronic state is 1-A.
 Alpha  occ. eigenvalues --  -46.88876 -46.88192 -19.24787 -19.24292 -19.19868
 Alpha  occ. eigenvalues --  -19.19846 -19.19396 -19.19344 -19.19184 -19.17416
 Alpha  occ. eigenvalues --  -14.42287 -14.42230 -14.41723 -14.41411 -14.40300
 Alpha  occ. eigenvalues --  -14.39685 -14.39549 -14.38680 -10.39121 -10.38282
 Alpha  occ. eigenvalues --  -10.36363 -10.35953 -10.35953 -10.33973 -10.32477
 Alpha  occ. eigenvalues --  -10.31937 -10.31388 -10.31232 -10.31230 -10.31100
 Alpha  occ. eigenvalues --  -10.31087 -10.30781 -10.30712 -10.30678 -10.30430
 Alpha  occ. eigenvalues --  -10.30344 -10.30147 -10.30128 -10.29831 -10.29771
 Alpha  occ. eigenvalues --  -10.29052 -10.29037 -10.28930 -10.28825 -10.28660
 Alpha  occ. eigenvalues --  -10.28613 -10.28456 -10.28288 -10.28103 -10.28097
 Alpha  occ. eigenvalues --  -10.28089 -10.27994 -10.27984 -10.27977 -10.27956
 Alpha  occ. eigenvalues --  -10.27903 -10.27767 -10.27750 -10.27740 -10.27622
 Alpha  occ. eigenvalues --  -10.27573 -10.27402 -10.27364 -10.27329 -10.27083
 Alpha  occ. eigenvalues --  -10.27025 -10.26867 -10.26730 -10.26694 -10.26684
 Alpha  occ. eigenvalues --  -10.26457 -10.26368 -10.26296 -10.26210 -10.26170
 Alpha  occ. eigenvalues --  -10.25944 -10.25929 -10.25789 -10.25714 -10.25598
 Alpha  occ. eigenvalues --  -10.25577 -10.25519 -10.25518 -10.25257 -10.25107
 Alpha  occ. eigenvalues --  -10.24836  -3.17538  -3.16722  -1.92407  -1.91989
 Alpha  occ. eigenvalues --   -1.91860  -1.91630  -1.91171  -1.91029  -1.16514
 Alpha  occ. eigenvalues --   -1.15836  -1.11476  -1.10201  -1.09223  -1.07448
 Alpha  occ. eigenvalues --   -1.07393  -1.06997  -1.04894  -1.04049  -1.04014
 Alpha  occ. eigenvalues --   -1.03641  -1.02513  -1.02429  -1.01924  -1.00902
 Alpha  occ. eigenvalues --   -0.93682  -0.91810  -0.89532  -0.89102  -0.88778
 Alpha  occ. eigenvalues --   -0.88394  -0.88027  -0.88006  -0.87443  -0.87183
 Alpha  occ. eigenvalues --   -0.86855  -0.86818  -0.86221  -0.85571  -0.84722
 Alpha  occ. eigenvalues --   -0.84340  -0.84020  -0.83606  -0.83126  -0.82469
 Alpha  occ. eigenvalues --   -0.82054  -0.81045  -0.81001  -0.80834  -0.80682
 Alpha  occ. eigenvalues --   -0.80064  -0.78548  -0.78398  -0.77467  -0.77268
 Alpha  occ. eigenvalues --   -0.76907  -0.76416  -0.76207  -0.75728  -0.75427
 Alpha  occ. eigenvalues --   -0.74683  -0.73338  -0.72208  -0.71265  -0.70926
 Alpha  occ. eigenvalues --   -0.69272  -0.69020  -0.68815  -0.68625  -0.68152
 Alpha  occ. eigenvalues --   -0.67389  -0.67196  -0.66922  -0.65681  -0.65596
 Alpha  occ. eigenvalues --   -0.65116  -0.64884  -0.64763  -0.64550  -0.64460
 Alpha  occ. eigenvalues --   -0.64315  -0.62036  -0.61110  -0.60733  -0.60001
 Alpha  occ. eigenvalues --   -0.59761  -0.59503  -0.59132  -0.58842  -0.58760
 Alpha  occ. eigenvalues --   -0.58379  -0.57988  -0.57772  -0.57661  -0.56970
 Alpha  occ. eigenvalues --   -0.55911  -0.55887  -0.55731  -0.55613  -0.54867
 Alpha  occ. eigenvalues --   -0.54702  -0.54607  -0.54208  -0.54180  -0.53679
 Alpha  occ. eigenvalues --   -0.53661  -0.53213  -0.53209  -0.53174  -0.53004
 Alpha  occ. eigenvalues --   -0.52855  -0.52541  -0.52516  -0.52396  -0.52092
 Alpha  occ. eigenvalues --   -0.51740  -0.51658  -0.51402  -0.51378  -0.51207
 Alpha  occ. eigenvalues --   -0.51003  -0.50984  -0.50881  -0.50553  -0.50283
 Alpha  occ. eigenvalues --   -0.50111  -0.49888  -0.49827  -0.49702  -0.49541
 Alpha  occ. eigenvalues --   -0.49481  -0.49476  -0.49430  -0.49192  -0.48715
 Alpha  occ. eigenvalues --   -0.48612  -0.48510  -0.48312  -0.48134  -0.48032
 Alpha  occ. eigenvalues --   -0.47972  -0.47842  -0.47699  -0.47554  -0.47459
 Alpha  occ. eigenvalues --   -0.47246  -0.46749  -0.46508  -0.46386  -0.46365
 Alpha  occ. eigenvalues --   -0.46181  -0.46178  -0.45962  -0.45932  -0.45492
 Alpha  occ. eigenvalues --   -0.45375  -0.45108  -0.45099  -0.44959  -0.44821
 Alpha  occ. eigenvalues --   -0.44811  -0.44644  -0.44435  -0.44346  -0.43957
 Alpha  occ. eigenvalues --   -0.43932  -0.43896  -0.43687  -0.43532  -0.43256
 Alpha  occ. eigenvalues --   -0.43254  -0.43160  -0.43072  -0.42929  -0.42827
 Alpha  occ. eigenvalues --   -0.42665  -0.42373  -0.42262  -0.42095  -0.41993
 Alpha  occ. eigenvalues --   -0.41960  -0.41614  -0.41472  -0.41320  -0.41139
 Alpha  occ. eigenvalues --   -0.40667  -0.40617  -0.40524  -0.40252  -0.39987
 Alpha  occ. eigenvalues --   -0.39794  -0.39643  -0.39468  -0.39393  -0.39247
 Alpha  occ. eigenvalues --   -0.38652  -0.38560  -0.38220  -0.37745  -0.37625
 Alpha  occ. eigenvalues --   -0.37163  -0.37137  -0.36829  -0.36385  -0.36211
 Alpha  occ. eigenvalues --   -0.35875  -0.35804  -0.34595  -0.34294  -0.34251
 Alpha  occ. eigenvalues --   -0.33808  -0.33117  -0.33046  -0.31620  -0.31548
 Alpha  occ. eigenvalues --   -0.31448  -0.31375  -0.30610  -0.30192  -0.30114
 Alpha  occ. eigenvalues --   -0.29871  -0.29790  -0.28622  -0.24251  -0.24027
 Alpha  occ. eigenvalues --   -0.21709  -0.21277
 Alpha virt. eigenvalues --   -0.09638  -0.08481  -0.01739  -0.00757   0.00081
 Alpha virt. eigenvalues --    0.00312   0.01767   0.02138   0.02274   0.03007
 Alpha virt. eigenvalues --    0.03949   0.04581   0.05000   0.05438   0.05976

 Mulliken charges:
               1
     1  Mg   0.816408
     2  C    0.025817
     3  C   -0.086803
     4  C   -0.055829
     5  C   -0.058744
     6  N   -0.312810
     7  C   -0.055378
     8  C   -0.012797
     9  C   -0.109541
    10  C    0.087980
    11  C    0.070607
    12  C    0.093551
    13  C   -0.080288
    14  H    0.013003
    15  N   -0.426204
    16  C    0.167057
    17  C   -0.153123
    18  C   -0.007882
    19  C    0.162621
    20  C    0.112410
    21  C   -0.007689
    22  O   -0.188132
    23  C    0.041595
    24  N   -0.245181
    25  C    0.014697
    26  C   -0.075013
    27  C   -0.009841
    28  C   -0.002040
    29  C    0.065603
    30  C    0.045609
    31  C    0.000085
    32  N   -0.378416
    33  C    0.150692
    34  C   -0.188292
    35  C    0.001885
    36  C    0.131847
    37  C    0.134290
    38  C    0.077301
    39  O   -0.163561
    40  C   -0.091579
    41  C    0.202857
    42  O   -0.222128
    43  O   -0.341800
    44  C    0.191543
    45  H   -0.034379
    46  H   -0.007099
    47  H   -0.044566
    48  H    0.030881
    49  H    0.006549
    50  H    0.015301
    51  H    0.021308
    52  H    0.028677
    53  H    0.014537
    54  H    0.009741
    55  H    0.043828
    56  H    0.030002
    57  H    0.030554
    58  H    0.009729
    59  H    0.043614
    60  H    0.041132
    61  H    0.032962
    62  H    0.021218
    63  H    0.014108
    64  H    0.009759
    65  H    0.013030
    66  H    0.028832
    67  H    0.019962
    68  H    0.006231
    69  H    0.004040
    70  H    0.022110
    71  H    0.008871
    72  H    0.018060
    73  H   -0.003172
    74  H    0.047651
    75  H    0.022403
    76  H    0.051923
    77  H    0.042273
    78  H    0.032258
    79  H    0.033285
    80  Mg   0.846922
    81  C    0.005415
    82  C   -0.055093
    83  C   -0.031286
    84  C   -0.072622
    85  N   -0.231479
    86  C   -0.075655
    87  C   -0.050086
    88  C   -0.049639
    89  C   -0.041743
    90  C    0.095490
    91  C    0.083135
    92  C   -0.058037
    93  H    0.037307
    94  N   -0.406862
    95  C    0.180140
    96  C   -0.159301
    97  C   -0.027497
    98  C    0.117493
    99  C    0.116980
   100  C   -0.040712
   101  O   -0.244807
   102  C    0.073557
   103  N   -0.320043
   104  C    0.020704
   105  C   -0.057371
   106  C   -0.052503
   107  C    0.068253
   108  C    0.098085
   109  C    0.007914
   110  C    0.024822
   111  N   -0.315209
   112  C    0.105991
   113  C   -0.190277
   114  C    0.005620
   115  C    0.086705
   116  C    0.131672
   117  C    0.079973
   118  O   -0.155627
   119  C    0.008047
   120  C    0.184169
   121  O   -0.240504
   122  O   -0.318866
   123  C    0.170264
   124  H   -0.033476
   125  H   -0.013482
   126  H   -0.020907
   127  H    0.010310
   128  H   -0.000302
   129  H    0.022560
   130  H    0.011669
   131  H    0.026507
   132  H    0.008169
   133  H    0.007487
   134  H    0.024612
   135  H    0.020952
   136  H    0.046338
   137  H    0.017039
   138  H    0.021942
   139  H    0.041772
   140  H    0.028551
   141  H    0.025102
   142  H    0.021995
   143  H   -0.000269
   144  H    0.023635
   145  H    0.037984
   146  H    0.007112
   147  H   -0.000247
   148  H    0.009530
   149  H    0.020228
   150  H    0.016517
   151  H    0.025534
   152  H    0.010512
   153  H    0.036024
   154  H    0.041564
   155  H    0.042087
   156  H    0.049386
   157  H    0.016045
   158  H    0.044082
 Sum of Mulliken charges =  -0.00000

 Dipole moment (field-independent basis, Debye):
    X=              0.0354    Y=              1.2480    Z=             -2.2183  Tot=              2.5455
 Quadrupole moment (field-independent basis, Debye-Ang):
   XX=           -397.7613   YY=           -483.7035   ZZ=           -530.6033
   XY=             33.2363   XZ=             72.2183   YZ=             -7.7792

 Normal termination of Gaussian 16 at Thu Sep 16 08:01:46 2021.
