 Gaussian 16, Revision A.03,
 Gaussian 16:  ES64L-G16RevA.03 25-Dec-2016

 -----------------------------------
 #p cam-b3lyp/Def2SVP td=(nstates=5)
 -----------------------------------

 --------------------------------
 TDDFT excited states in gaussian
 --------------------------------
 Symbolic Z-matrix:
 Charge =  0 Multiplicity = 1

                         Standard orientation:
 ---------------------------------------------------------------------
 Center     Atomic      Atomic             Coordinates (Angstroms)
 Number     Number       Type             X           Y           Z
 ---------------------------------------------------------------------
      1         12           0       19.823260   -0.849485    0.286422
      2          6           0       19.258412    2.279998   -1.272837
      3          6           0       21.256524    0.981170    2.896605
      4          6           0       20.323177   -3.651460    1.923051
      5          6           0       19.118838   -2.445597   -2.721258
      6          7           0       20.158307    1.367690    0.725628
      7          6           0       19.721606    2.454344    0.030211
      8          6           0       20.062019    3.825327    0.639247
      9          6           0       20.831377    3.296929    1.953648
     10          6           0       20.742277    1.805780    1.816805
     11          6           0       22.346332    3.736561    2.041965
     12          6           0       18.794716    4.676806    0.976220
     13          6           0       18.404066    5.964950    0.262172
     14          1           0       17.744053    7.115104    1.011189
     15          7           0       20.602369   -1.305457    2.190136
     16          6           0       21.210546   -0.421929    3.093501
     17          6           0       21.743880   -1.214396    4.178912
     18          6           0       21.348784   -2.538565    4.005414
     19          6           0       20.676457   -2.536525    2.691522
     20          6           0       22.365103   -0.508131    5.335302
     21          6           0       21.611599   -3.791176    4.840626
     22          8           0       21.223186   -4.925709    4.546284
     23          6           0       22.253654   -3.596992    6.157637
     24          7           0       19.843659   -2.789651   -0.308261
     25          6           0       19.866363   -3.824593    0.585120
     26          6           0       19.337484   -5.145786   -0.069208
     27          6           0       19.079384   -4.732885   -1.512454
     28          6           0       19.435529   -3.220950   -1.558684
     29          6           0       20.290098   -6.369139    0.133579
     30          6           0       17.618615   -5.032394   -1.882036
     31          6           0       17.337236   -5.660432   -3.198478
     32          7           0       19.392292   -0.266713   -1.656287
     33          6           0       19.100377   -1.013743   -2.769407
     34          6           0       18.777107   -0.180030   -3.888383
     35          6           0       18.712506    1.201440   -3.360162
     36          6           0       19.099967    1.055137   -1.970108
     37          6           0       18.495269   -0.664680   -5.320872
     38          6           0       18.449052    2.634696   -3.644048
     39          8           0       17.972755    3.177694   -4.655315
     40          6           0       18.794119    3.369130   -2.283507
     41          6           0       19.865186    4.300849   -2.757930
     42          8           0       21.067660    4.091063   -2.861940
     43          8           0       19.383593    5.497083   -2.957822
     44          6           0       20.234039    6.537152   -3.585989
     45          1           0       21.528743    1.678525    3.691207
     46          1           0       20.476681   -4.651880    2.332195
     47          1           0       18.831915   -2.967777   -3.635987
     48          1           0       20.760495    4.321557   -0.035703
     49          1           0       20.395449    3.513303    2.929460
     50          1           0       22.809122    4.110718    1.129175
     51          1           0       22.958829    2.890850    2.352601
     52          1           0       22.433340    4.511856    2.803398
     53          1           0       18.892127    4.966867    2.022519
     54          1           0       17.894922    4.073284    0.863901
     55          1           0       17.607874    5.594701   -0.383822
     56          1           0       19.340243    6.236705   -0.225603
     57          1           0       21.821542   -0.688310    6.261735
     58          1           0       22.388329    0.569479    5.171120
     59          1           0       23.389989   -0.821617    5.531562
     60          1           0       21.731872   -2.810975    6.703700
     61          1           0       23.251738   -3.166467    6.075286
     62          1           0       22.230892   -4.474151    6.803514
     63          1           0       18.424579   -5.318579    0.500511
     64          1           0       19.665673   -5.336199   -2.205348
     65          1           0       21.107165   -6.189653    0.832201
     66          1           0       20.768189   -6.711133   -0.783590
     67          1           0       19.704682   -7.252013    0.389915
     68          1           0       17.162968   -4.043637   -1.847087
     69          1           0       17.104538   -5.706228   -1.197080
     70          1           0       16.626713   -4.985877   -3.675639
     71          1           0       17.009555   -6.691027   -3.062455
     72          1           0       18.177331   -5.667407   -3.893285
     73          1           0       19.430122   -0.678785   -5.879973
     74          1           0       17.760468    0.004523   -5.768201
     75          1           0       18.119839   -1.687976   -5.343142
     76          1           0       17.900110    3.919896   -1.991662
     77          1           0       21.131940    6.778419   -3.018129
     78          1           0       19.712026    7.468982   -3.802578
     79          1           0       20.613944    6.324006   -4.584691
     80         12           0      -20.256117   -0.568665    0.010284
     81          6           0      -17.665525    1.645542    0.531899
     82          6           0      -22.396166    1.920813    1.442270
     83          6           0      -22.741192   -2.681302   -0.109438
     84          6           0      -18.030297   -2.999813   -1.038741
     85          7           0      -19.964939    1.507256    1.092060
     86          6           0      -18.869577    2.234023    0.947524
     87          6           0      -19.165357    3.741393    1.188238
     88          6           0      -20.503417    3.623717    1.998605
     89          6           0      -21.043311    2.269207    1.512362
     90          6           0      -20.267799    3.651231    3.550688
     91          6           0      -19.325556    4.375053   -0.211627
     92          6           0      -19.481003    5.901159   -0.259221
     93          1           0      -19.724061    6.682861    1.016189
     94          7           0      -22.285173   -0.457865    0.449119
     95          6           0      -22.964908    0.682446    1.000111
     96          6           0      -24.385716    0.367391    0.940968
     97          6           0      -24.497473   -0.943501    0.380770
     98          6           0      -23.134995   -1.455333    0.240367
     99          6           0      -25.541489    1.346681    1.369174
    100          6           0      -25.812479   -1.683535   -0.032337
    101          8           0      -25.729675   -2.830488   -0.377102
    102          6           0      -27.132314   -0.986852    0.041305
    103          7           0      -20.382004   -2.556836   -0.596481
    104          6           0      -21.541483   -3.251779   -0.566196
    105          6           0      -21.377463   -4.717090   -0.968007
    106          6           0      -19.892017   -4.765566   -1.394785
    107          6           0      -19.390006   -3.324032   -0.976459
    108          6           0      -21.733476   -5.771915    0.143098
    109          6           0      -19.589110   -5.212008   -2.802370
    110          6           0      -20.365675   -4.639431   -4.012607
    111          7           0      -18.259350   -0.744895   -0.221928
    112          6           0      -17.475846   -1.772465   -0.663420
    113          6           0      -16.123726   -1.264913   -0.763488
    114          6           0      -16.107370    0.107012   -0.335147
    115          6           0      -17.467192    0.353728   -0.001199
    116          6           0      -14.956798   -2.077342   -1.231327
    117          6           0      -15.313603    1.256909   -0.058791
    118          8           0      -14.087242    1.485328   -0.143601
    119          6           0      -16.324984    2.207236    0.786237
    120          6           0      -16.018489    3.646034    0.367292
    121          8           0      -15.997461    4.046165   -0.733489
    122          8           0      -15.732268    4.360072    1.495940
    123          6           0      -15.763344    5.805778    1.412253
    124          1           0      -23.029775    2.657304    1.939930
    125          1           0      -23.524035   -3.442538   -0.122286
    126          1           0      -17.275114   -3.726065   -1.344043
    127          1           0      -18.418174    4.211846    1.827203
    128          1           0      -21.097672    4.458156    1.625437
    129          1           0      -20.557317    4.625550    3.942437
    130          1           0      -19.213062    3.442289    3.730528
    131          1           0      -20.886880    2.939877    4.097400
    132          1           0      -20.251419    3.988392   -0.636716
    133          1           0      -18.570328    4.018952   -0.911617
    134          1           0      -20.088259    6.244531   -1.097037
    135          1           0      -18.524470    6.252633   -0.646474
    136          1           0      -26.250394    0.878256    2.052558
    137          1           0      -25.996913    1.683972    0.438225
    138          1           0      -25.110239    2.248564    1.805281
    139          1           0      -27.697397   -1.500204   -0.736992
    140          1           0      -27.079602    0.050145   -0.288319
    141          1           0      -27.607888   -0.799491    1.003984
    142          1           0      -22.045913   -4.850395   -1.818304
    143          1           0      -19.281117   -5.386288   -0.739379
    144          1           0      -21.031587   -6.592982   -0.000407
    145          1           0      -22.749127   -6.059111   -0.129860
    146          1           0      -21.758735   -5.298272    1.124437
    147          1           0      -19.995677   -6.222217   -2.768389
    148          1           0      -18.544770   -5.221168   -3.116210
    149          1           0      -20.953641   -5.326346   -4.619888
    150          1           0      -19.686782   -4.266651   -4.779539
    151          1           0      -21.057475   -3.872979   -3.662924
    152          1           0      -14.089193   -1.425994   -1.129854
    153          1           0      -15.060731   -2.301922   -2.293714
    154          1           0      -14.854969   -3.057954   -0.767361
    155          1           0      -16.108908    1.981493    1.830689
    156          1           0      -14.757394    5.875958    1.826310
    157          1           0      -16.606035    6.258910    1.934841
    158          1           0      -15.744433    6.199175    0.395563
 ---------------------------------------------------------------------

 SCF Done:  E(RCAM-B3LYP) =  -4069.79991066     A.U. after   17 cycles

 Excitation energies and oscillator strengths:

 Excited State   1:      Singlet-A      1.7338 eV  715.10 nm  f=0.3785  <S**2>=0.000
     310 -> 315       -0.19614
     312 -> 314        0.68076
     310 <- 315       -0.11067
 This state for optimization and/or second-order correction.
 Total Energy, E(TD-HF/TD-DFT) =  -4069.73619489
 Copying the excited state density for this state as the 1-particle RhoCI density.

 Excited State   2:      Singlet-A      1.7571 eV  705.63 nm  f=0.3781  <S**2>=0.000
     309 -> 316        0.18341
     311 -> 313        0.68363
     309 <- 316        0.10473

 Excited State   3:      Singlet-A      2.2193 eV  558.65 nm  f=0.0655  <S**2>=0.000
     310 -> 314        0.62874
     312 -> 315        0.29624

 Excited State   4:      Singlet-A      2.2202 eV  558.45 nm  f=0.1318  <S**2>=0.000
     309 -> 313        0.62994
     311 -> 316       -0.29093

 Excited State   5:      Singlet-A      3.2005 eV  387.40 nm  f=0.0000  <S**2>=0.000
     312 -> 313        0.70710

 The electronic state is 1-A.
 Alpha  occ. eigenvalues --  -46.88492 -46.88265 -19.25269 -19.24381 -19.20257
 Alpha  occ. eigenvalues --  -19.19550 -19.19093 -19.19012 -19.18837 -19.18154
 Alpha  occ. eigenvalues --  -14.42549 -14.41869 -14.41730 -14.41726 -14.39789
 Alpha  occ. eigenvalues --  -14.39302 -14.39271 -14.38951 -10.38911 -10.38612
 Alpha  occ. eigenvalues --  -10.35944 -10.35406 -10.35272 -10.35054 -10.31911
 Alpha  occ. eigenvalues --  -10.31600 -10.31459 -10.31369 -10.31077 -10.30878
 Alpha  occ. eigenvalues --  -10.30709 -10.30708 -10.30616 -10.30588 -10.30490
 Alpha  occ. eigenvalues --  -10.30424 -10.30280 -10.29620 -10.29394 -10.29310
 Alpha  occ. eigenvalues --  -10.29004 -10.29001 -10.28825 -10.28767 -10.28733
 Alpha  occ. eigenvalues --  -10.28701 -10.28596 -10.28587 -10.28453 -10.28361
 Alpha  occ. eigenvalues --  -10.28073 -10.28003 -10.27997 -10.27917 -10.27844
 Alpha  occ. eigenvalues --  -10.27798 -10.27778 -10.27693 -10.27676 -10.27651
 Alpha  occ. eigenvalues --  -10.27618 -10.27579 -10.27578 -10.27489 -10.27024
 Alpha  occ. eigenvalues --  -10.26948 -10.26737 -10.26555 -10.26490 -10.26463
 Alpha  occ. eigenvalues --  -10.26463 -10.26458 -10.26376 -10.26274 -10.26264
 Alpha  occ. eigenvalues --  -10.26204 -10.25822 -10.25790 -10.25786 -10.25741
 Alpha  occ. eigenvalues --  -10.25654 -10.25605 -10.25266 -10.25187 -10.24943
 Alpha  occ. eigenvalues --  -10.24825  -3.17089  -3.16902  -1.91990  -1.91801
 Alpha  occ. eigenvalues --   -1.91546  -1.91393  -1.91373  -1.91192  -1.17762
 Alpha  occ. eigenvalues --   -1.17607  -1.11520  -1.10053  -1.09796  -1.08352
 Alpha  occ. eigenvalues --   -1.08005  -1.06453  -1.05440  -1.05233  -1.04077
 Alpha  occ. eigenvalues --   -1.03975  -1.03049  -1.02744  -1.02073  -1.01326
 Alpha  occ. eigenvalues --   -0.93017  -0.91811  -0.89543  -0.89376  -0.89009
 Alpha  occ. eigenvalues --   -0.88758  -0.88666  -0.88535  -0.87685  -0.87305
 Alpha  occ. eigenvalues --   -0.86725  -0.86430  -0.85678  -0.85076  -0.84304
 Alpha  occ. eigenvalues --   -0.84064  -0.83732  -0.83445  -0.82842  -0.82666
 Alpha  occ. eigenvalues --   -0.82427  -0.81762  -0.81422  -0.80795  -0.80483
 Alpha  occ. eigenvalues --   -0.80278  -0.78743  -0.77993  -0.77462  -0.77357
 Alpha  occ. eigenvalues --   -0.76840  -0.76819  -0.76157  -0.75870  -0.75510
 Alpha  occ. eigenvalues --   -0.75126  -0.72682  -0.72194  -0.72004  -0.71782
 Alpha  occ. eigenvalues --   -0.70269  -0.69192  -0.68881  -0.68167  -0.68104
 Alpha  occ. eigenvalues --   -0.67577  -0.66896  -0.66200  -0.65838  -0.65248
 Alpha  occ. eigenvalues --   -0.65186  -0.64920  -0.64831  -0.64297  -0.64168
 Alpha  occ. eigenvalues --   -0.64153  -0.62370  -0.62369  -0.60915  -0.60506
 Alpha  occ. eigenvalues --   -0.59649  -0.59477  -0.59161  -0.58948  -0.58820
 Alpha  occ. eigenvalues --   -0.58463  -0.58143  -0.57917  -0.57814  -0.57607
 Alpha  occ. eigenvalues --   -0.56666  -0.56223  -0.56137  -0.55650  -0.55606
 Alpha  occ. eigenvalues --   -0.55349  -0.54940  -0.54273  -0.54225  -0.54145
 Alpha  occ. eigenvalues --   -0.53806  -0.53635  -0.53524  -0.53519  -0.52964
 Alpha  occ. eigenvalues --   -0.52888  -0.52606  -0.52531  -0.52391  -0.52307
 Alpha  occ. eigenvalues --   -0.52104  -0.52083  -0.51808  -0.51388  -0.50761
 Alpha  occ. eigenvalues --   -0.50717  -0.50546  -0.50415  -0.50147  -0.49992
 Alpha  occ. eigenvalues --   -0.49987  -0.49851  -0.49707  -0.49691  -0.49560
 Alpha  occ. eigenvalues --   -0.49380  -0.49324  -0.49310  -0.49030  -0.48773
 Alpha  occ. eigenvalues --   -0.48676  -0.48464  -0.48233  -0.48156  -0.48139
 Alpha  occ. eigenvalues --   -0.48000  -0.47976  -0.47774  -0.47638  -0.47398
 Alpha  occ. eigenvalues --   -0.46848  -0.46622  -0.46598  -0.46545  -0.46286
 Alpha  occ. eigenvalues --   -0.46054  -0.45959  -0.45836  -0.45803  -0.45584
 Alpha  occ. eigenvalues --   -0.45547  -0.45417  -0.45207  -0.45136  -0.45011
 Alpha  occ. eigenvalues --   -0.44993  -0.44740  -0.44621  -0.44324  -0.44226
 Alpha  occ. eigenvalues --   -0.43985  -0.43859  -0.43359  -0.43263  -0.43161
 Alpha  occ. eigenvalues --   -0.43026  -0.42979  -0.42859  -0.42778  -0.42695
 Alpha  occ. eigenvalues --   -0.42385  -0.42306  -0.42087  -0.41989  -0.41877
 Alpha  occ. eigenvalues --   -0.41871  -0.41612  -0.41569  -0.41431  -0.41374
 Alpha  occ. eigenvalues --   -0.41200  -0.40991  -0.40793  -0.40385  -0.40223
 Alpha  occ. eigenvalues --   -0.40035  -0.39809  -0.39551  -0.39478  -0.39442
 Alpha  occ. eigenvalues --   -0.38408  -0.38399  -0.37951  -0.37889  -0.37510
 Alpha  occ. eigenvalues --   -0.37204  -0.37130  -0.36594  -0.36386  -0.36348
 Alpha  occ. eigenvalues --   -0.35851  -0.35812  -0.35133  -0.34417  -0.33959
 Alpha  occ. eigenvalues --   -0.33409  -0.33344  -0.33057  -0.31888  -0.31750
 Alpha  occ. eigenvalues --   -0.31580  -0.31011  -0.30568  -0.30418  -0.30281
 Alpha  occ. eigenvalues --   -0.29820  -0.29361  -0.28681  -0.23882  -0.23808
 Alpha  occ. eigenvalues --   -0.21146  -0.21095
 Alpha virt. eigenvalues --   -0.08488  -0.08434  -0.01886  -0.01830  -0.00160
 Alpha virt. eigenvalues --    0.00190   0.02108   0.02611   0.02731   0.03026
 Alpha virt. eigenvalues --    0.05276   0.05339   0.05801   0.05854   0.06068

 Mulliken charges:
               1
     1  Mg   0.832158
     2  C    0.053315
     3  C   -0.082053
     4  C   -0.070449
     5  C   -0.080611
     6  N   -0.209689
     7  C   -0.071906
     8  C    0.011112
     9  C   -0.072276
    10  C   -0.024616
    11  C    0.046709
    12  C    0.028489
    13  C   -0.068386
    14  H    0.028078
    15  N   -0.362197
    16  C    0.170246
    17  C   -0.116461
    18  C   -0.038019
    19  C    0.148174
    20  C    0.098565
    21  C    0.036630
    22  O   -0.200909
    23  C    0.053972
    24  N   -0.348543
    25  C   -0.000997
    26  C   -0.010942
    27  C   -0.014543
    28  C    0.090619
    29  C    0.058958
    30  C    0.000411
    31  C    0.009588
    32  N   -0.370132
    33  C    0.134160
    34  C   -0.185232
    35  C   -0.007936
    36  C    0.094268
    37  C    0.119445
    38  C    0.044332
    39  O   -0.191142
    40  C   -0.048611
    41  C    0.168007
    42  O   -0.239972
    43  O   -0.278986
    44  C    0.189700
    45  H   -0.020193
    46  H   -0.008686
    47  H   -0.032233
    48  H    0.036438
    49  H    0.020268
    50  H    0.030090
    51  H    0.017453
    52  H    0.014685
    53  H    0.014802
    54  H    0.008510
    55  H    0.040790
    56  H    0.030012
    57  H    0.032421
    58  H    0.010806
    59  H    0.024836
    60  H    0.019497
    61  H    0.028210
    62  H    0.034429
    63  H    0.027704
    64  H    0.006887
    65  H    0.037014
    66  H    0.003308
    67  H    0.012701
    68  H    0.013065
    69  H    0.007210
    70  H    0.015250
    71  H    0.020891
    72  H    0.005574
    73  H    0.033339
    74  H    0.038443
    75  H    0.005137
    76  H    0.046574
    77  H    0.033263
    78  H    0.033851
    79  H    0.035325
    80  Mg   0.826065
    81  C   -0.012355
    82  C   -0.069431
    83  C   -0.074874
    84  C   -0.110726
    85  N   -0.226796
    86  C   -0.083317
    87  C   -0.038298
    88  C   -0.040668
    89  C    0.001544
    90  C    0.086690
    91  C    0.038270
    92  C   -0.033813
    93  H    0.030023
    94  N   -0.395515
    95  C    0.163772
    96  C   -0.171013
    97  C   -0.041632
    98  C    0.168854
    99  C    0.109755
   100  C    0.017404
   101  O   -0.181334
   102  C    0.052850
   103  N   -0.266004
   104  C   -0.012136
   105  C   -0.046939
   106  C   -0.006052
   107  C    0.066890
   108  C    0.083997
   109  C    0.038642
   110  C   -0.018432
   111  N   -0.393966
   112  C    0.127046
   113  C   -0.170474
   114  C    0.015087
   115  C    0.149512
   116  C    0.114104
   117  C    0.076148
   118  O   -0.199724
   119  C   -0.076673
   120  C    0.177541
   121  O   -0.154488
   122  O   -0.338158
   123  C    0.149828
   124  H   -0.021756
   125  H   -0.018202
   126  H   -0.032780
   127  H   -0.002276
   128  H   -0.002004
   129  H    0.017256
   130  H    0.023460
   131  H    0.018027
   132  H    0.001276
   133  H    0.042113
   134  H    0.018718
   135  H    0.015692
   136  H    0.037174
   137  H    0.036376
   138  H    0.006407
   139  H    0.032716
   140  H   -0.000047
   141  H    0.047130
   142  H    0.021815
   143  H    0.003752
   144  H    0.024772
   145  H    0.025997
   146  H    0.031871
   147  H    0.004407
   148  H    0.015892
   149  H    0.010614
   150  H    0.010226
   151  H    0.020205
   152  H    0.037322
   153  H    0.019424
   154  H    0.024867
   155  H    0.054914
   156  H    0.050916
   157  H    0.046109
   158  H    0.046415
 Sum of Mulliken charges =  -0.00000

 Dipole moment (field-independent basis, Debye):
    X=             -3.4870    Y=              0.8914    Z=              5.9402  Tot=              6.9455
 Quadrupole moment (field-independent basis, Debye-Ang):
   XX=           -339.2144   YY=           -472.1107   ZZ=           -506.1156
   XY=            -19.6385   XZ=             81.3852   YZ=             41.7154

 Normal termination of Gaussian 16 at Thu Sep 16 08:23:31 2021.
