 Gaussian 16, Revision A.03,
 Gaussian 16:  ES64L-G16RevA.03 25-Dec-2016

 ----------------------------------------------------------
 #p cam-b3lyp/Def2SVP td=(nstates=5) density=(transition=1)
 ----------------------------------------------------------

 --------------------------------
 TDDFT excited states in gaussian
 --------------------------------
 Symbolic Z-matrix:
 Charge =  0 Multiplicity = 1

                         Standard orientation:
 ---------------------------------------------------------------------
 Center     Atomic      Atomic             Coordinates (Angstroms)
 Number     Number       Type             X           Y           Z
 ---------------------------------------------------------------------
      1         12           0      -26.468196    0.403009    0.048493
      2          6           0      -24.209151   -2.266770    0.190858
      3          6           0      -23.724836    2.386820   -0.658007
      4          6           0      -28.573712    2.944000   -0.453674
      5          6           0      -29.117980   -1.873968   -0.071551
      6          7           0      -24.123559   -0.026862   -0.405167
      7          6           0      -23.464195   -1.173902   -0.153349
      8          6           0      -21.975672   -1.078980   -0.387685
      9          6           0      -21.888642    0.494575   -0.357960
     10          6           0      -23.303746    1.035924   -0.533336
     11          6           0      -21.348796    0.969222    1.017566
     12          6           0      -21.557465   -1.852934   -1.644297
     13          6           0      -22.447988   -1.810914   -2.903537
     14          1           0      -21.733830   -1.506821   -4.215173
     15          7           0      -26.200639    2.365385   -0.463608
     16          6           0      -24.989092    2.992396   -0.586603
     17          6           0      -25.188345    4.441440   -0.453581
     18          6           0      -26.618907    4.671785   -0.549969
     19          6           0      -27.180004    3.288372   -0.474013
     20          6           0      -24.012317    5.481715   -0.596722
     21          6           0      -27.325432    6.022560   -0.688891
     22          8           0      -26.709006    7.046977   -0.592216
     23          6           0      -28.810876    6.075008   -0.901440
     24          7           0      -28.585349    0.446519   -0.442751
     25          6           0      -29.295974    1.659658   -0.503151
     26          6           0      -30.862628    1.452982   -0.652044
     27          6           0      -30.987683   -0.132918   -0.457425
     28          6           0      -29.461360   -0.563455   -0.267940
     29          6           0      -31.885301    2.299002    0.259109
     30          6           0      -31.745522   -0.957093   -1.595581
     31          6           0      -32.532168   -2.207223   -0.959680
     32          7           0      -26.701999   -1.672851    0.108463
     33          6           0      -27.847778   -2.441397    0.141946
     34          6           0      -27.481199   -3.837001    0.349753
     35          6           0      -26.066344   -3.871868    0.449368
     36          6           0      -25.626647   -2.519300    0.214064
     37          6           0      -28.423524   -4.984089    0.604890
     38          6           0      -24.817071   -4.691483    0.573342
     39          8           0      -24.670165   -5.892789    0.610540
     40          6           0      -23.624903   -3.648747    0.462255
     41          6           0      -22.873153   -3.716806    1.763139
     42          8           0      -22.073683   -4.637905    2.065175
     43          8           0      -23.087028   -2.551860    2.485582
     44          6           0      -22.257512   -2.379633    3.631119
     45          1           0      -22.852075    3.029847   -0.790030
     46          1           0      -29.357339    3.703457   -0.408259
     47          1           0      -29.962508   -2.547433    0.089462
     48          1           0      -21.408183   -1.414149    0.480281
     49          1           0      -21.271607    0.985650   -1.109212
     50          1           0      -21.843608    1.919754    1.218416
     51          1           0      -20.259993    0.993725    1.013711
     52          1           0      -21.635672    0.424919    1.917857
     53          1           0      -21.571264   -2.903949   -1.357365
     54          1           0      -20.543302   -1.550165   -1.905162
     55          1           0      -23.186204   -1.017963   -2.786254
     56          1           0      -22.898035   -2.794990   -3.031305
     57          1           0      -23.683235    5.669493   -1.619113
     58          1           0      -23.159635    5.150575   -0.003854
     59          1           0      -24.183299    6.461616   -0.152496
     60          1           0      -29.154275    7.083145   -1.135751
     61          1           0      -29.380197    5.714923   -0.044286
     62          1           0      -28.921029    5.510791   -1.827902
     63          1           0      -30.977764    1.732120   -1.698713
     64          1           0      -31.481730   -0.372905    0.483635
     65          1           0      -32.120932    3.210841   -0.288408
     66          1           0      -31.454526    2.532539    1.232366
     67          1           0      -32.773275    1.691171    0.433933
     68          1           0      -31.036056   -1.441655   -2.266275
     69          1           0      -32.393988   -0.308386   -2.184973
     70          1           0      -32.156265   -3.149299   -1.358997
     71          1           0      -33.591757   -2.128209   -1.201077
     72          1           0      -32.435498   -2.405993    0.107119
     73          1           0      -29.098490   -5.069038   -0.246086
     74          1           0      -29.014231   -4.779858    1.498152
     75          1           0      -27.902974   -5.937683    0.691592
     76          1           0      -22.964803   -4.087933   -0.285401
     77          1           0      -22.441670   -1.395842    4.062182
     78          1           0      -21.214421   -2.596269    3.399965
     79          1           0      -22.554362   -3.031178    4.452945
     80         12           0       26.356122   -0.290297   -0.579269
     81          6           0       25.168082    1.352443    2.285174
     82          6           0       27.141669   -2.992239    1.210685
     83          6           0       27.478261   -1.608773   -3.313504
     84          6           0       26.413663    2.983384   -2.118221
     85          7           0       26.249292   -0.674857    1.538038
     86          6           0       25.605136    0.007791    2.492954
     87          6           0       25.713571   -0.664392    3.837293
     88          6           0       26.710244   -1.855909    3.541166
     89          6           0       26.698194   -1.866726    2.024811
     90          6           0       28.153805   -1.785315    4.136734
     91          6           0       24.281077   -1.249727    4.294211
     92          6           0       23.902275   -0.887474    5.767653
     93          1           0       22.344417   -1.219664    6.082478
     94          7           0       26.941112   -2.089369   -1.026836
     95          6           0       27.180720   -3.136126   -0.152967
     96          6           0       27.372057   -4.335573   -0.920937
     97          6           0       27.454791   -4.005233   -2.335383
     98          6           0       27.175849   -2.518175   -2.321266
     99          6           0       27.627873   -5.674853   -0.171787
    100          6           0       27.693909   -4.779414   -3.626654
    101          8           0       27.639140   -4.322312   -4.782647
    102          6           0       27.900071   -6.233694   -3.390253
    103          7           0       26.992744    0.655021   -2.349372
    104          6           0       27.429236   -0.207290   -3.324635
    105          6           0       27.927460    0.559773   -4.550016
    106          6           0       27.305703    1.959878   -4.306035
    107          6           0       26.929206    1.911468   -2.823938
    108          6           0       29.498816    0.436288   -4.662882
    109          6           0       26.070476    2.344897   -5.226113
    110          6           0       25.799844    3.844230   -5.429486
    111          7           0       25.861757    1.768497   -0.082062
    112          6           0       25.944399    2.919004   -0.806289
    113          6           0       25.366941    4.032309   -0.086988
    114          6           0       24.987765    3.410269    1.116638
    115          6           0       25.361526    2.058840    1.104295
    116          6           0       25.176403    5.520743   -0.459073
    117          6           0       24.342673    3.668135    2.373750
    118          8           0       23.713707    4.598567    2.805360
    119          6           0       24.597998    2.337611    3.254753
    120          6           0       23.277157    2.156307    3.862687
    121          8           0       22.251966    1.611271    3.381056
    122          8           0       23.374645    2.722535    5.077897
    123          6           0       22.186208    2.739168    5.931944
    124          1           0       27.317017   -3.912481    1.772073
    125          1           0       27.784727   -2.062477   -4.258535
    126          1           0       26.365356    3.927355   -2.665066
    127          1           0       26.046910   -0.021481    4.652414
    128          1           0       26.359953   -2.851928    3.812644
    129          1           0       28.845783   -1.630511    3.308922
    130          1           0       28.321445   -2.764177    4.585644
    131          1           0       28.382880   -1.004594    4.861216
    132          1           0       24.137991   -2.321762    4.153625
    133          1           0       23.558071   -0.877385    3.568367
    134          1           0       24.068772    0.173009    5.955615
    135          1           0       24.423648   -1.459250    6.534963
    136          1           0       26.663306   -6.149757    0.002228
    137          1           0       27.926112   -5.544362    0.869192
    138          1           0       28.441048   -6.300933   -0.538292
    139          1           0       27.056677   -6.742370   -2.924653
    140          1           0       28.807445   -6.236393   -2.785063
    141          1           0       28.152783   -6.792740   -4.291644
    142          1           0       27.481416    0.051555   -5.405021
    143          1           0       28.054218    2.724809   -4.512486
    144          1           0       29.971233    1.381060   -4.394236
    145          1           0       29.936121    0.186803   -5.629293
    146          1           0       29.989113   -0.239716   -3.962052
    147          1           0       25.219813    2.002407   -4.636274
    148          1           0       26.024734    1.902474   -6.221470
    149          1           0       24.856350    4.156107   -4.979665
    150          1           0       25.770276    4.246648   -6.442257
    151          1           0       26.552248    4.354314   -4.829622
    152          1           0       25.941086    5.737649   -1.204939
    153          1           0       25.290562    6.162115    0.415834
    154          1           0       24.187344    5.597766   -0.910538
    155          1           0       25.309821    2.557629    4.050564
    156          1           0       22.353468    2.060967    6.768522
    157          1           0       21.269615    2.572313    5.367157
    158          1           0       22.118197    3.721711    6.398774
 ---------------------------------------------------------------------

 SCF Done:  E(RCAM-B3LYP) =  -4069.79641938     A.U. after   17 cycles

 Excitation energies and oscillator strengths:

 Excited State   1:      Singlet-A      1.7272 eV  717.84 nm  f=0.3731  <S**2>=0.000
     309 -> 315       -0.19744
     312 -> 314        0.68092
     309 <- 315       -0.11061
 This state for optimization and/or second-order correction.
 Total Energy, E(TD-HF/TD-DFT) =  -4069.73294652
 Copying the excited state density for this state as the 1-particle RhoCI density.

 Excited State   2:      Singlet-A      1.7469 eV  709.75 nm  f=0.3648  <S**2>=0.000
     310 -> 316       -0.19410
     311 -> 313        0.68065
     310 <- 316       -0.10946

 Excited State   3:      Singlet-A      2.2374 eV  554.13 nm  f=0.1045  <S**2>=0.000
     310 -> 313        0.63522
     311 -> 316        0.29910

 Excited State   4:      Singlet-A      2.2496 eV  551.13 nm  f=0.0627  <S**2>=0.000
     309 -> 314        0.61703
     312 -> 315        0.33568

 Excited State   5:      Singlet-A      3.2199 eV  385.05 nm  f=0.0000  <S**2>=0.000
     312 -> 313        0.70711

 The electronic state is 1-A.
 Alpha  occ. eigenvalues --  -46.90385 -46.87566 -19.26029 -19.24861 -19.20002
 Alpha  occ. eigenvalues --  -19.19663 -19.19535 -19.19031 -19.19029 -19.18421
 Alpha  occ. eigenvalues --  -14.42591 -14.42250 -14.41801 -14.41723 -14.40513
 Alpha  occ. eigenvalues --  -14.39464 -14.39451 -14.38399 -10.39964 -10.38562
 Alpha  occ. eigenvalues --  -10.35988 -10.35777 -10.35295 -10.34654 -10.32821
 Alpha  occ. eigenvalues --  -10.31968 -10.31821 -10.31706 -10.31186 -10.31118
 Alpha  occ. eigenvalues --  -10.30999 -10.30839 -10.30782 -10.30598 -10.30577
 Alpha  occ. eigenvalues --  -10.30268 -10.30200 -10.30108 -10.30034 -10.29876
 Alpha  occ. eigenvalues --  -10.29571 -10.29539 -10.29460 -10.29254 -10.29223
 Alpha  occ. eigenvalues --  -10.28947 -10.28716 -10.28536 -10.28526 -10.28514
 Alpha  occ. eigenvalues --  -10.28430 -10.28380 -10.28362 -10.28056 -10.27983
 Alpha  occ. eigenvalues --  -10.27898 -10.27858 -10.27830 -10.27783 -10.27778
 Alpha  occ. eigenvalues --  -10.27737 -10.27736 -10.27730 -10.27711 -10.27707
 Alpha  occ. eigenvalues --  -10.27672 -10.27603 -10.27295 -10.26863 -10.26798
 Alpha  occ. eigenvalues --  -10.26643 -10.26496 -10.26426 -10.26417 -10.26282
 Alpha  occ. eigenvalues --  -10.26252 -10.26252 -10.26209 -10.26166 -10.26056
 Alpha  occ. eigenvalues --  -10.25936 -10.25876 -10.25867 -10.25815 -10.25358
 Alpha  occ. eigenvalues --  -10.24433  -3.18748  -3.16409  -1.93611  -1.93223
 Alpha  occ. eigenvalues --   -1.93038  -1.91294  -1.90876  -1.90723  -1.16446
 Alpha  occ. eigenvalues --   -1.15929  -1.11494  -1.10767  -1.10647  -1.09385
 Alpha  occ. eigenvalues --   -1.07038  -1.05542  -1.05185  -1.04775  -1.04297
 Alpha  occ. eigenvalues --   -1.03877  -1.03586  -1.02953  -1.02405  -1.01887
 Alpha  occ. eigenvalues --   -0.92708  -0.92502  -0.89105  -0.89008  -0.88327
 Alpha  occ. eigenvalues --   -0.88255  -0.88041  -0.87731  -0.87442  -0.87336
 Alpha  occ. eigenvalues --   -0.86965  -0.86258  -0.86039  -0.85655  -0.84840
 Alpha  occ. eigenvalues --   -0.84528  -0.83821  -0.83340  -0.82702  -0.82473
 Alpha  occ. eigenvalues --   -0.82264  -0.81872  -0.81262  -0.80797  -0.80357
 Alpha  occ. eigenvalues --   -0.80296  -0.78213  -0.77527  -0.77314  -0.77280
 Alpha  occ. eigenvalues --   -0.76912  -0.76695  -0.76410  -0.75914  -0.75397
 Alpha  occ. eigenvalues --   -0.75313  -0.72804  -0.72782  -0.72126  -0.72050
 Alpha  occ. eigenvalues --   -0.69923  -0.69394  -0.69242  -0.68792  -0.68210
 Alpha  occ. eigenvalues --   -0.67909  -0.67211  -0.67149  -0.66046  -0.65889
 Alpha  occ. eigenvalues --   -0.65540  -0.64884  -0.64856  -0.64829  -0.64619
 Alpha  occ. eigenvalues --   -0.64439  -0.63708  -0.61763  -0.60230  -0.60021
 Alpha  occ. eigenvalues --   -0.59835  -0.59264  -0.59143  -0.58947  -0.58633
 Alpha  occ. eigenvalues --   -0.58169  -0.57970  -0.57786  -0.57338  -0.57149
 Alpha  occ. eigenvalues --   -0.56318  -0.56284  -0.56082  -0.55922  -0.55481
 Alpha  occ. eigenvalues --   -0.55435  -0.55054  -0.54360  -0.54292  -0.53915
 Alpha  occ. eigenvalues --   -0.53655  -0.53428  -0.53209  -0.53206  -0.53053
 Alpha  occ. eigenvalues --   -0.52778  -0.52770  -0.52550  -0.52217  -0.51919
 Alpha  occ. eigenvalues --   -0.51627  -0.51596  -0.51433  -0.51426  -0.51078
 Alpha  occ. eigenvalues --   -0.51021  -0.50724  -0.50689  -0.50545  -0.50383
 Alpha  occ. eigenvalues --   -0.50161  -0.50037  -0.50017  -0.49931  -0.49708
 Alpha  occ. eigenvalues --   -0.49543  -0.49419  -0.49046  -0.48925  -0.48921
 Alpha  occ. eigenvalues --   -0.48683  -0.48479  -0.48367  -0.48108  -0.48016
 Alpha  occ. eigenvalues --   -0.47561  -0.47415  -0.47304  -0.47256  -0.47229
 Alpha  occ. eigenvalues --   -0.46940  -0.46869  -0.46662  -0.46498  -0.46340
 Alpha  occ. eigenvalues --   -0.46307  -0.46073  -0.45903  -0.45710  -0.45682
 Alpha  occ. eigenvalues --   -0.45548  -0.45518  -0.45317  -0.45196  -0.45144
 Alpha  occ. eigenvalues --   -0.44880  -0.44874  -0.44240  -0.44029  -0.43947
 Alpha  occ. eigenvalues --   -0.43848  -0.43727  -0.43628  -0.43555  -0.43472
 Alpha  occ. eigenvalues --   -0.43376  -0.43259  -0.43091  -0.42976  -0.42870
 Alpha  occ. eigenvalues --   -0.42855  -0.42775  -0.42652  -0.42216  -0.42204
 Alpha  occ. eigenvalues --   -0.42204  -0.42072  -0.41993  -0.41903  -0.41727
 Alpha  occ. eigenvalues --   -0.41339  -0.41226  -0.41194  -0.40812  -0.40578
 Alpha  occ. eigenvalues --   -0.40365  -0.40314  -0.39911  -0.39592  -0.39091
 Alpha  occ. eigenvalues --   -0.38936  -0.38775  -0.38113  -0.37838  -0.37377
 Alpha  occ. eigenvalues --   -0.37266  -0.37183  -0.36993  -0.36773  -0.36310
 Alpha  occ. eigenvalues --   -0.35496  -0.35214  -0.34679  -0.34385  -0.33978
 Alpha  occ. eigenvalues --   -0.33929  -0.33148  -0.32966  -0.31721  -0.31364
 Alpha  occ. eigenvalues --   -0.31312  -0.31197  -0.30894  -0.30600  -0.30539
 Alpha  occ. eigenvalues --   -0.30327  -0.29722  -0.29603  -0.24180  -0.24025
 Alpha  occ. eigenvalues --   -0.21386  -0.21111
 Alpha virt. eigenvalues --   -0.08626  -0.08434  -0.02294  -0.02070  -0.00287
 Alpha virt. eigenvalues --    0.00103   0.00774   0.02016   0.02409   0.03152
 Alpha virt. eigenvalues --    0.04444   0.04795   0.05146   0.05498   0.05924

 Mulliken charges:
               1
     1  Mg  11.999974
     2  C    6.000327
     3  C    5.999870
     4  C    5.999564
     5  C    6.000124
     6  N    7.000148
     7  C    5.999588
     8  C    6.000120
     9  C    5.999954
    10  C    6.000292
    11  C    5.999949
    12  C    6.000041
    13  C    6.000084
    14  H    0.999897
    15  N    6.999849
    16  C    6.000488
    17  C    6.000259
    18  C    6.000124
    19  C    6.000545
    20  C    5.999920
    21  C    6.000136
    22  O    8.000243
    23  C    5.999970
    24  N    6.999923
    25  C    6.000568
    26  C    5.999862
    27  C    6.000079
    28  C    5.999703
    29  C    5.999981
    30  C    6.000047
    31  C    6.000012
    32  N    7.000051
    33  C    5.999550
    34  C    5.999614
    35  C    5.999971
    36  C    5.999514
    37  C    6.000066
    38  C    5.999792
    39  O    7.999671
    40  C    5.999947
    41  C    6.000002
    42  O    7.999918
    43  O    7.999997
    44  C    6.000033
    45  H    1.000163
    46  H    1.000079
    47  H    0.999869
    48  H    0.999982
    49  H    1.000015
    50  H    0.999922
    51  H    1.000123
    52  H    1.000146
    53  H    1.000047
    54  H    0.999922
    55  H    0.999899
    56  H    1.000058
    57  H    1.000254
    58  H    1.000222
    59  H    1.000202
    60  H    1.000146
    61  H    1.000108
    62  H    1.000073
    63  H    1.000015
    64  H    0.999983
    65  H    0.999970
    66  H    1.000020
    67  H    1.000093
    68  H    1.000003
    69  H    0.999866
    70  H    1.000034
    71  H    0.999919
    72  H    1.000019
    73  H    0.999761
    74  H    0.999756
    75  H    0.999810
    76  H    0.999904
    77  H    0.999921
    78  H    0.999953
    79  H    0.999974
    80  Mg  11.997600
    81  C    6.022368
    82  C    5.979196
    83  C    5.986390
    84  C    6.023625
    85  N    7.004840
    86  C    5.961464
    87  C    6.013402
    88  C    5.991252
    89  C    6.039635
    90  C    5.997692
    91  C    6.002900
    92  C    6.001439
    93  H    0.996539
    94  N    6.990401
    95  C    6.041410
    96  C    6.019341
    97  C    6.023718
    98  C    6.025576
    99  C    5.995935
   100  C    6.012881
   101  O    8.031666
   102  C    5.993759
   103  N    7.005889
   104  C    6.027888
   105  C    5.993617
   106  C    6.008282
   107  C    5.963732
   108  C    5.994241
   109  C    6.003200
   110  C    6.000534
   111  N    7.005280
   112  C    5.955907
   113  C    5.968952
   114  C    5.998643
   115  C    5.963886
   116  C    5.999777
   117  C    5.985219
   118  O    7.970299
   119  C    5.996289
   120  C    5.997530
   121  O    7.992437
   122  O    7.999658
   123  C    6.002975
   124  H    1.007622
   125  H    1.005860
   126  H    0.991859
   127  H    0.997848
   128  H    0.998082
   129  H    0.999709
   130  H    1.001765
   131  H    1.014352
   132  H    0.986373
   133  H    1.003144
   134  H    1.004702
   135  H    0.994039
   136  H    1.019700
   137  H    1.019062
   138  H    1.016850
   139  H    1.008829
   140  H    1.005891
   141  H    1.015857
   142  H    0.998250
   143  H    0.995862
   144  H    1.013390
   145  H    1.002829
   146  H    0.994861
   147  H    0.998650
   148  H    0.987532
   149  H    1.003413
   150  H    0.994398
   151  H    1.002856
   152  H    0.982943
   153  H    0.984911
   154  H    0.981125
   155  H    0.992434
   156  H    0.993309
   157  H    0.997287
   158  H    0.997140
 Sum of Mulliken charges = 624.00000

 Dipole moment (field-independent basis, Debye):
    X=              3.4222    Y=             -9.7128    Z=             -2.8049  Tot=             10.6732
 Quadrupole moment (field-independent basis, Debye-Ang):
   XX=            176.7869   YY=              5.6366   ZZ=              1.3974
   XY=           -262.8057   XZ=            -71.8587   YZ=              7.6876

 Normal termination of Gaussian 16 at Wed Sep 22 18:22:47 2021.
