 Gaussian 16, Revision A.03,
 Gaussian 16:  ES64L-G16RevA.03 25-Dec-2016

 -----------------------------------
 #p cam-b3lyp/Def2SVP td=(nstates=5)
 -----------------------------------

 --------------------------------
 TDDFT excited states in gaussian
 --------------------------------
 Symbolic Z-matrix:
 Charge =  0 Multiplicity = 1

                         Standard orientation:
 ---------------------------------------------------------------------
 Center     Atomic      Atomic             Coordinates (Angstroms)
 Number     Number       Type             X           Y           Z
 ---------------------------------------------------------------------
      1         12           0      -28.708122    0.255310    0.378626
      2          6           0      -26.476447   -1.754293   -1.455520
      3          6           0      -28.382537    2.656831   -2.114822
      4          6           0      -30.553322    2.239410    2.298562
      5          6           0      -28.246139   -1.910904    3.204326
      6          7           0      -27.558529    0.438386   -1.522363
      7          6           0      -26.807835   -0.586604   -2.115091
      8          6           0      -26.632244   -0.284214   -3.591745
      9          6           0      -26.985228    1.223261   -3.738814
     10          6           0      -27.694723    1.458330   -2.371261
     11          6           0      -25.802495    2.183068   -4.080354
     12          6           0      -27.431743   -1.230401   -4.553162
     13          6           0      -26.728602   -1.474611   -5.960528
     14          1           0      -25.415173   -0.739435   -6.240581
     15          7           0      -29.451263    2.069644    0.072462
     16          6           0      -29.274567    2.871716   -1.041814
     17          6           0      -30.077987    4.056366   -0.947755
     18          6           0      -30.623461    4.031720    0.375665
     19          6           0      -30.247977    2.747192    0.939057
     20          6           0      -30.118032    5.163211   -2.045248
     21          6           0      -31.424721    5.079166    1.077227
     22          8           0      -31.703518    4.984136    2.296332
     23          6           0      -31.963481    6.434265    0.531350
     24          7           0      -29.102839    0.336988    2.527938
     25          6           0      -29.989380    1.210048    3.042425
     26          6           0      -30.427232    0.765897    4.460761
     27          6           0      -29.682743   -0.538631    4.766881
     28          6           0      -28.980745   -0.750251    3.353546
     29          6           0      -30.322484    1.883415    5.453305
     30          6           0      -30.532492   -1.744341    5.222431
     31          6           0      -31.623420   -2.201040    4.222690
     32          7           0      -27.548885   -1.470885    0.876574
     33          6           0      -27.608654   -2.275157    1.963477
     34          6           0      -26.884160   -3.497848    1.620208
     35          6           0      -26.420048   -3.400259    0.278558
     36          6           0      -26.810401   -2.103161   -0.134442
     37          6           0      -26.767707   -4.740319    2.499186
     38          6           0      -25.708369   -4.061639   -0.768117
     39          8           0      -25.259962   -5.196230   -0.909545
     40          6           0      -25.656140   -2.932513   -1.990318
     41          6           0      -24.213747   -2.717417   -2.408499
     42          8           0      -23.435950   -2.008418   -1.800583
     43          8           0      -23.951687   -3.344678   -3.605302
     44          6           0      -22.564022   -3.586124   -3.986936
     45          1           0      -28.307422    3.278691   -3.009099
     46          1           0      -31.239944    2.889160    2.844697
     47          1           0      -28.264136   -2.585879    4.062198
     48          1           0      -25.586475   -0.423257   -3.865467
     49          1           0      -27.730322    1.297623   -4.530379
     50          1           0      -25.849400    2.906991   -3.267513
     51          1           0      -26.010841    2.740218   -4.994534
     52          1           0      -24.785586    1.793496   -4.127001
     53          1           0      -28.392167   -0.796928   -4.830335
     54          1           0      -27.631234   -2.165746   -4.031832
     55          1           0      -27.386423   -1.062801   -6.726051
     56          1           0      -26.587147   -2.549798   -6.067638
     57          1           0      -30.161731    6.127121   -1.536760
     58          1           0      -31.004928    5.097413   -2.674574
     59          1           0      -29.334186    5.243935   -2.798204
     60          1           0      -32.573888    6.274913   -0.357982
     61          1           0      -31.167429    7.154396    0.342294
     62          1           0      -32.776086    6.862442    1.117043
     63          1           0      -31.510123    0.660818    4.408243
     64          1           0      -28.858637   -0.239352    5.415438
     65          1           0      -31.286548    2.337986    5.682207
     66          1           0      -29.607649    2.627127    5.100797
     67          1           0      -29.893873    1.590616    6.412420
     68          1           0      -31.030470   -1.370590    6.117331
     69          1           0      -29.885962   -2.582572    5.483865
     70          1           0      -31.374733   -3.234656    3.982926
     71          1           0      -31.544538   -1.548787    3.352907
     72          1           0      -32.644829   -2.061496    4.577080
     73          1           0      -26.911836   -5.664372    1.940038
     74          1           0      -27.571948   -4.786776    3.232886
     75          1           0      -25.825679   -4.680467    3.044948
     76          1           0      -26.166457   -3.418674   -2.822169
     77          1           0      -22.004786   -2.695963   -3.697694
     78          1           0      -22.402842   -3.741408   -5.053767
     79          1           0      -22.279722   -4.507305   -3.478251
     80         12           0       28.749542    0.427711   -0.180465
     81          6           0       26.129629   -1.923777   -0.179688
     82          6           0       26.319647    2.851821   -0.740030
     83          6           0       31.061150    2.788620    0.236834
     84          6           0       30.773825   -1.993084    1.263635
     85          7           0       26.444629    0.409007   -0.260310
     86          6           0       25.569410   -0.654131   -0.368106
     87          6           0       24.195638   -0.312544   -0.905789
     88          6           0       24.265583    1.219927   -1.107959
     89          6           0       25.731335    1.553882   -0.676941
     90          6           0       23.934942    1.699987   -2.579277
     91          6           0       22.953729   -0.709028    0.011056
     92          6           0       23.149214   -0.693099    1.535896
     93          1           0       22.544070    0.491422    2.346013
     94          7           0       28.693851    2.481867   -0.251459
     95          6           0       27.630690    3.285447   -0.550921
     96          6           0       28.069428    4.685509   -0.636443
     97          6           0       29.469842    4.688957   -0.354413
     98          6           0       29.793969    3.252975   -0.092763
     99          6           0       27.140499    5.841272   -0.988683
    100          6           0       30.230960    6.064205   -0.267743
    101          8           0       29.579533    7.089331   -0.412012
    102          6           0       31.776282    6.101670    0.089496
    103          7           0       30.563452    0.414981    0.736022
    104          6           0       31.438294    1.495395    0.647712
    105          6           0       32.911863    1.090978    1.219963
    106          6           0       32.640146   -0.446375    1.665990
    107          6           0       31.244687   -0.676520    1.181986
    108          6           0       34.035093    1.253479    0.153894
    109          6           0       32.775259   -0.735471    3.222400
    110          6           0       33.672845   -1.891821    3.689515
    111          7           0       28.583275   -1.614883    0.328720
    112          6           0       29.460063   -2.490034    0.916943
    113          6           0       28.779629   -3.790842    1.089734
    114          6           0       27.481434   -3.607196    0.542570
    115          6           0       27.425078   -2.241971    0.145547
    116          6           0       29.327530   -5.038331    1.725663
    117          6           0       26.191295   -4.296946    0.353825
    118          8           0       25.836229   -5.475275    0.503257
    119          6           0       25.326676   -3.241600   -0.319585
    120          6           0       24.953807   -3.594751   -1.647913
    121          8           0       25.742699   -3.463691   -2.619396
    122          8           0       23.622674   -4.053011   -1.706490
    123          6           0       23.034356   -4.301085   -3.018784
    124          1           0       25.635891    3.630543   -1.083358
    125          1           0       31.879382    3.511155    0.229381
    126          1           0       31.491858   -2.710305    1.665614
    127          1           0       24.162665   -0.873275   -1.839148
    128          1           0       23.651541    1.645820   -0.315266
    129          1           0       22.984226    2.233052   -2.581439
    130          1           0       23.880370    0.794068   -3.183556
    131          1           0       24.699311    2.379414   -2.957859
    132          1           0       22.798192   -1.746907   -0.286142
    133          1           0       22.086984   -0.119991   -0.289632
    134          1           0       24.209057   -0.744485    1.787488
    135          1           0       22.752616   -1.625165    1.936296
    136          1           0       26.834062    6.455595   -0.142012
    137          1           0       26.336865    5.511571   -1.647263
    138          1           0       27.625197    6.527821   -1.682593
    139          1           0       32.264116    5.363773   -0.547845
    140          1           0       31.871440    5.848021    1.144958
    141          1           0       32.203608    7.104293    0.104961
    142          1           0       33.146780    1.831801    1.983645
    143          1           0       33.311635   -1.069745    1.075120
    144          1           0       34.177696    0.282059   -0.319048
    145          1           0       34.949358    1.682457    0.564176
    146          1           0       33.809812    1.984133   -0.622779
    147          1           0       31.760611   -0.851035    3.604847
    148          1           0       33.213925    0.198199    3.574420
    149          1           0       33.428465   -2.217348    4.701032
    150          1           0       34.664982   -1.442781    3.649260
    151          1           0       33.493816   -2.678909    2.956723
    152          1           0       30.083227   -4.669850    2.418857
    153          1           0       29.832074   -5.520700    0.888512
    154          1           0       28.580700   -5.723497    2.127856
    155          1           0       24.464365   -3.216535    0.346302
    156          1           0       23.463852   -5.104568   -3.617213
    157          1           0       23.065099   -3.390621   -3.618012
    158          1           0       21.961036   -4.403584   -2.858014
 ---------------------------------------------------------------------

 SCF Done:  E(RCAM-B3LYP) =  -4069.80879797     A.U. after   18 cycles

 Excitation energies and oscillator strengths:

 Excited State   1:      Singlet-A      1.6591 eV  747.30 nm  f=0.4001  <S**2>=0.000
     310 -> 316        0.16730
     311 -> 313        0.68826
     310 <- 316        0.10535
 This state for optimization and/or second-order correction.
 Total Energy, E(TD-HF/TD-DFT) =  -4069.74782748
 Copying the excited state density for this state as the 1-particle RhoCI density.

 Excited State   2:      Singlet-A      1.7180 eV  721.70 nm  f=0.3774  <S**2>=0.000
     309 -> 315       -0.18148
     312 -> 314        0.68506
     309 <- 315       -0.10790

 Excited State   3:      Singlet-A      2.1919 eV  565.65 nm  f=0.1546  <S**2>=0.000
     310 -> 313        0.65721
     311 -> 316       -0.24506

 Excited State   4:      Singlet-A      2.3104 eV  536.64 nm  f=0.0714  <S**2>=0.000
     309 -> 314        0.61633
     312 -> 315        0.33582

 Excited State   5:      Singlet-A      2.9877 eV  414.98 nm  f=0.0000  <S**2>=0.000
     312 -> 313        0.70711

 The electronic state is 1-A.
 Alpha  occ. eigenvalues --  -46.88922 -46.88898 -19.25787 -19.24246 -19.20231
 Alpha  occ. eigenvalues --  -19.19611 -19.19348 -19.19247 -19.19188 -19.18353
 Alpha  occ. eigenvalues --  -14.42633 -14.42540 -14.42078 -14.41422 -14.40263
 Alpha  occ. eigenvalues --  -14.39954 -14.39368 -14.39310 -10.40018 -10.39107
 Alpha  occ. eigenvalues --  -10.36490 -10.35578 -10.35467 -10.35346 -10.32110
 Alpha  occ. eigenvalues --  -10.31875 -10.31531 -10.31403 -10.31344 -10.30931
 Alpha  occ. eigenvalues --  -10.30927 -10.30789 -10.30721 -10.30634 -10.30580
 Alpha  occ. eigenvalues --  -10.30459 -10.30341 -10.30084 -10.29842 -10.29835
 Alpha  occ. eigenvalues --  -10.29506 -10.29295 -10.29282 -10.29028 -10.28994
 Alpha  occ. eigenvalues --  -10.28459 -10.28366 -10.28302 -10.28302 -10.28300
 Alpha  occ. eigenvalues --  -10.28233 -10.28191 -10.28144 -10.28027 -10.27966
 Alpha  occ. eigenvalues --  -10.27936 -10.27842 -10.27756 -10.27737 -10.27513
 Alpha  occ. eigenvalues --  -10.27509 -10.27466 -10.27464 -10.27446 -10.27384
 Alpha  occ. eigenvalues --  -10.27149 -10.27136 -10.26875 -10.26791 -10.26727
 Alpha  occ. eigenvalues --  -10.26715 -10.26655 -10.26581 -10.26580 -10.26566
 Alpha  occ. eigenvalues --  -10.26323 -10.26248 -10.26062 -10.26051 -10.25855
 Alpha  occ. eigenvalues --  -10.25606 -10.25589 -10.25453 -10.25283 -10.25169
 Alpha  occ. eigenvalues --  -10.24897  -3.17548  -3.17469  -1.92406  -1.92339
 Alpha  occ. eigenvalues --   -1.92020  -1.91924  -1.91853  -1.91782  -1.15437
 Alpha  occ. eigenvalues --   -1.14967  -1.10411  -1.09437  -1.09051  -1.08403
 Alpha  occ. eigenvalues --   -1.07444  -1.07017  -1.04319  -1.04142  -1.03543
 Alpha  occ. eigenvalues --   -1.03458  -1.03206  -1.02609  -1.02105  -1.01875
 Alpha  occ. eigenvalues --   -0.93129  -0.92178  -0.89200  -0.89160  -0.88842
 Alpha  occ. eigenvalues --   -0.88541  -0.88138  -0.88045  -0.87359  -0.86802
 Alpha  occ. eigenvalues --   -0.86791  -0.86076  -0.85557  -0.85305  -0.84519
 Alpha  occ. eigenvalues --   -0.83910  -0.83809  -0.83328  -0.82796  -0.82177
 Alpha  occ. eigenvalues --   -0.81657  -0.81056  -0.81004  -0.80618  -0.80078
 Alpha  occ. eigenvalues --   -0.80031  -0.78699  -0.78164  -0.77213  -0.76941
 Alpha  occ. eigenvalues --   -0.76766  -0.76763  -0.76516  -0.75828  -0.74977
 Alpha  occ. eigenvalues --   -0.74899  -0.72533  -0.72328  -0.71745  -0.71075
 Alpha  occ. eigenvalues --   -0.69916  -0.69288  -0.69127  -0.68905  -0.68429
 Alpha  occ. eigenvalues --   -0.68325  -0.67517  -0.66806  -0.65775  -0.65209
 Alpha  occ. eigenvalues --   -0.65183  -0.64905  -0.64573  -0.64195  -0.64143
 Alpha  occ. eigenvalues --   -0.64124  -0.62436  -0.61625  -0.60898  -0.60227
 Alpha  occ. eigenvalues --   -0.59618  -0.59480  -0.59060  -0.58785  -0.58648
 Alpha  occ. eigenvalues --   -0.58063  -0.57735  -0.57410  -0.57179  -0.56944
 Alpha  occ. eigenvalues --   -0.56137  -0.55890  -0.55754  -0.55599  -0.54942
 Alpha  occ. eigenvalues --   -0.54914  -0.54735  -0.54426  -0.54188  -0.53935
 Alpha  occ. eigenvalues --   -0.53759  -0.53466  -0.53080  -0.53041  -0.52768
 Alpha  occ. eigenvalues --   -0.52611  -0.52536  -0.52340  -0.52337  -0.52120
 Alpha  occ. eigenvalues --   -0.51979  -0.51557  -0.51311  -0.51181  -0.51017
 Alpha  occ. eigenvalues --   -0.50941  -0.50712  -0.50704  -0.50296  -0.50008
 Alpha  occ. eigenvalues --   -0.49974  -0.49507  -0.49353  -0.49345  -0.49271
 Alpha  occ. eigenvalues --   -0.49251  -0.49196  -0.49019  -0.48960  -0.48758
 Alpha  occ. eigenvalues --   -0.48596  -0.48567  -0.48341  -0.48180  -0.48131
 Alpha  occ. eigenvalues --   -0.47865  -0.47743  -0.47407  -0.47360  -0.47195
 Alpha  occ. eigenvalues --   -0.46674  -0.46606  -0.46442  -0.46367  -0.46285
 Alpha  occ. eigenvalues --   -0.46233  -0.46154  -0.45822  -0.45763  -0.45454
 Alpha  occ. eigenvalues --   -0.45375  -0.45194  -0.44961  -0.44782  -0.44710
 Alpha  occ. eigenvalues --   -0.44605  -0.44549  -0.44540  -0.44230  -0.44174
 Alpha  occ. eigenvalues --   -0.44068  -0.43989  -0.43916  -0.43394  -0.43220
 Alpha  occ. eigenvalues --   -0.43126  -0.43034  -0.43024  -0.42921  -0.42669
 Alpha  occ. eigenvalues --   -0.42630  -0.42405  -0.42385  -0.42252  -0.42089
 Alpha  occ. eigenvalues --   -0.41915  -0.41838  -0.41593  -0.41555  -0.41522
 Alpha  occ. eigenvalues --   -0.41055  -0.40725  -0.40598  -0.40596  -0.40266
 Alpha  occ. eigenvalues --   -0.40090  -0.39849  -0.39689  -0.39624  -0.39234
 Alpha  occ. eigenvalues --   -0.38894  -0.38670  -0.37794  -0.37635  -0.37626
 Alpha  occ. eigenvalues --   -0.37503  -0.37069  -0.37003  -0.36813  -0.36617
 Alpha  occ. eigenvalues --   -0.36302  -0.35958  -0.34747  -0.34399  -0.34003
 Alpha  occ. eigenvalues --   -0.33733  -0.33188  -0.33050  -0.31459  -0.31403
 Alpha  occ. eigenvalues --   -0.31192  -0.30968  -0.30784  -0.30728  -0.30286
 Alpha  occ. eigenvalues --   -0.30253  -0.29592  -0.29482  -0.24131  -0.24113
 Alpha  occ. eigenvalues --   -0.21374  -0.20819
 Alpha virt. eigenvalues --   -0.09235  -0.08174  -0.01796  -0.01401  -0.00041
 Alpha virt. eigenvalues --    0.00288   0.01368   0.01660   0.02063   0.02176
 Alpha virt. eigenvalues --    0.03449   0.05046   0.05216   0.05233   0.05396

 Mulliken charges:
               1
     1  Mg   0.835485
     2  C    0.031232
     3  C   -0.057074
     4  C   -0.053478
     5  C   -0.058907
     6  N   -0.269254
     7  C   -0.044953
     8  C    0.001996
     9  C   -0.047187
    10  C   -0.014828
    11  C    0.074626
    12  C    0.034741
    13  C   -0.076609
    14  H    0.020627
    15  N   -0.405722
    16  C    0.178227
    17  C   -0.125154
    18  C   -0.000865
    19  C    0.109734
    20  C    0.101764
    21  C   -0.004286
    22  O   -0.244043
    23  C    0.051030
    24  N   -0.270192
    25  C    0.053237
    26  C   -0.078191
    27  C    0.027902
    28  C   -0.007819
    29  C    0.069548
    30  C    0.031231
    31  C    0.009340
    32  N   -0.344238
    33  C    0.135700
    34  C   -0.189191
    35  C    0.048252
    36  C    0.088855
    37  C    0.113942
    38  C    0.043013
    39  O   -0.170948
    40  C   -0.068829
    41  C    0.209040
    42  O   -0.207536
    43  O   -0.347378
    44  C    0.172020
    45  H   -0.027409
    46  H   -0.004055
    47  H   -0.028295
    48  H    0.008152
    49  H    0.006975
    50  H    0.010115
    51  H    0.012674
    52  H    0.036569
    53  H    0.005608
    54  H    0.014514
    55  H    0.032436
    56  H    0.046722
    57  H    0.016017
    58  H    0.027838
    59  H    0.023618
    60  H    0.009460
    61  H    0.052514
    62  H    0.022992
    63  H    0.010399
    64  H    0.010000
    65  H    0.021273
    66  H    0.019814
    67  H   -0.000300
    68  H    0.007286
    69  H    0.015371
    70  H    0.024408
    71  H    0.019926
    72  H    0.019855
    73  H    0.034818
    74  H   -0.002153
    75  H    0.035975
    76  H    0.036131
    77  H    0.043645
    78  H    0.035893
    79  H    0.046356
    80  Mg   0.851585
    81  C   -0.100120
    82  C   -0.078331
    83  C   -0.099242
    84  C   -0.088967
    85  N   -0.279400
    86  C   -0.081202
    87  C   -0.019323
    88  C   -0.002827
    89  C   -0.000072
    90  C    0.073892
    91  C    0.027083
    92  C   -0.064907
    93  H    0.020901
    94  N   -0.362119
    95  C    0.140210
    96  C   -0.140676
    97  C   -0.078380
    98  C    0.187254
    99  C    0.142642
   100  C    0.026514
   101  O   -0.197139
   102  C    0.035347
   103  N   -0.347397
   104  C    0.055850
   105  C   -0.054203
   106  C   -0.028390
   107  C    0.061098
   108  C    0.055235
   109  C    0.021393
   110  C    0.018573
   111  N   -0.317881
   112  C    0.107220
   113  C   -0.195283
   114  C   -0.057894
   115  C    0.233632
   116  C    0.136022
   117  C    0.071837
   118  O   -0.182069
   119  C    0.008147
   120  C    0.252090
   121  O   -0.249974
   122  O   -0.351327
   123  C    0.193048
   124  H   -0.033190
   125  H   -0.057988
   126  H   -0.041241
   127  H    0.023642
   128  H    0.018858
   129  H    0.021285
   130  H    0.018759
   131  H    0.026151
   132  H    0.015720
   133  H    0.022991
   134  H    0.041895
   135  H    0.033136
   136  H    0.040406
   137  H    0.001796
   138  H    0.020833
   139  H    0.054658
   140  H    0.038699
   141  H    0.026064
   142  H    0.018357
   143  H    0.011697
   144  H    0.016641
   145  H    0.015994
   146  H    0.011099
   147  H    0.024253
   148  H    0.000201
   149  H    0.028358
   150  H    0.019636
   151  H    0.018974
   152  H    0.013659
   153  H    0.031444
   154  H    0.042867
   155  H    0.030577
   156  H    0.050922
   157  H    0.016620
   158  H    0.033780
 Sum of Mulliken charges =  -0.00000

 Dipole moment (field-independent basis, Debye):
    X=             -1.6311    Y=              3.5439    Z=             -3.8441  Tot=              5.4770
 Quadrupole moment (field-independent basis, Debye-Ang):
   XX=           -193.1080   YY=           -565.4038   ZZ=           -479.1769
   XY=             -1.7250   XZ=             91.3117   YZ=            -18.8387

 Normal termination of Gaussian 16 at Wed Sep  1 11:00:02 2021.
