 Gaussian 16, Revision A.03,
 Gaussian 16:  ES64L-G16RevA.03 25-Dec-2016

 -----------------------------------
 #p cam-b3lyp/Def2SVP td=(nstates=5)
 -----------------------------------

 --------------------------------
 TDDFT excited states in gaussian
 --------------------------------
 Symbolic Z-matrix:
 Charge =  0 Multiplicity = 1

                         Standard orientation:
 ---------------------------------------------------------------------
 Center     Atomic      Atomic             Coordinates (Angstroms)
 Number     Number       Type             X           Y           Z
 ---------------------------------------------------------------------
      1         12           0       26.381113   -0.901102    0.209728
      2          6           0       27.136369    2.427579   -0.935556
      3          6           0       25.345256    0.519104    3.136136
      4          6           0       25.968125   -4.018735    1.376464
      5          6           0       27.906398   -2.102038   -2.579970
      6          7           0       26.213703    1.337694    0.995488
      7          6           0       26.552829    2.456680    0.291713
      8          6           0       26.092385    3.624265    1.079163
      9          6           0       25.641876    3.043776    2.448265
     10          6           0       25.759604    1.505122    2.271742
     11          6           0       26.551391    3.538041    3.617856
     12          6           0       25.039912    4.485253    0.426666
     13          6           0       24.683624    5.823849    1.052895
     14          1           0       24.662038    6.991021    0.157813
     15          7           0       25.649786   -1.630795    1.941501
     16          6           0       25.355759   -0.869595    3.106366
     17          6           0       24.780245   -1.809805    4.086367
     18          6           0       25.053161   -3.084788    3.597657
     19          6           0       25.649375   -2.947348    2.256466
     20          6           0       24.223492   -1.323054    5.407956
     21          6           0       24.740834   -4.464412    4.216537
     22          8           0       25.223878   -5.537606    3.809542
     23          6           0       23.786155   -4.489546    5.339613
     24          7           0       26.923781   -2.835939   -0.462010
     25          6           0       26.659431   -3.979046    0.136766
     26          6           0       27.181335   -5.218696   -0.640377
     27          6           0       27.552676   -4.577134   -1.979109
     28          6           0       27.414298   -3.102013   -1.679789
     29          6           0       28.405520   -5.877160    0.080850
     30          6           0       26.743427   -4.995820   -3.185840
     31          6           0       27.526440   -5.259676   -4.484256
     32          7           0       27.233503   -0.025178   -1.446127
     33          6           0       27.809351   -0.672961   -2.517128
     34          6           0       28.269060    0.297394   -3.556041
     35          6           0       28.010620    1.480618   -2.893872
     36          6           0       27.447465    1.265070   -1.630270
     37          6           0       28.717383    0.023902   -4.955758
     38          6           0       28.127728    2.922129   -3.057597
     39          8           0       28.532757    3.532693   -4.040383
     40          6           0       27.564730    3.617094   -1.796682
     41          6           0       28.566954    4.558218   -1.366150
     42          8           0       29.636423    4.298484   -0.763740
     43          8           0       28.125750    5.833428   -1.549579
     44          6           0       28.860404    6.917675   -0.935257
     45          1           0       24.930879    0.962377    4.043738
     46          1           0       25.989650   -5.019494    1.812542
     47          1           0       28.570891   -2.576645   -3.304726
     48          1           0       27.007952    4.199518    1.210336
     49          1           0       24.618369    3.321111    2.701090
     50          1           0       26.163624    3.980730    4.535876
     51          1           0       27.181680    4.298830    3.157653
     52          1           0       27.309510    2.826490    3.946143
     53          1           0       24.070396    3.986857    0.421570
     54          1           0       25.164407    4.531498   -0.654859
     55          1           0       25.389545    6.079577    1.841652
     56          1           0       23.622132    5.753313    1.288873
     57          1           0       24.556659   -1.896410    6.272785
     58          1           0       23.134837   -1.289567    5.445402
     59          1           0       24.535809   -0.318801    5.695435
     60          1           0       22.891691   -3.941665    5.042859
     61          1           0       24.328456   -3.948602    6.114324
     62          1           0       23.489705   -5.530217    5.465580
     63          1           0       26.333913   -5.899857   -0.725022
     64          1           0       28.589031   -4.692819   -2.295131
     65          1           0       29.323066   -5.755123   -0.493991
     66          1           0       28.272141   -6.954097    0.183535
     67          1           0       28.493326   -5.352964    1.032606
     68          1           0       25.951783   -4.281582   -3.410017
     69          1           0       26.103286   -5.791754   -2.806685
     70          1           0       26.949707   -5.987957   -5.053588
     71          1           0       28.572144   -5.514407   -4.309135
     72          1           0       27.518910   -4.267654   -4.935360
     73          1           0       27.952087    0.194827   -5.713093
     74          1           0       29.166945   -0.968096   -4.922244
     75          1           0       29.623500    0.596329   -5.158051
     76          1           0       26.760076    4.247640   -2.174786
     77          1           0       29.663878    6.602637   -0.268930
     78          1           0       28.179358    7.619372   -0.454473
     79          1           0       29.352131    7.548923   -1.675876
     80         12           0      -27.192488   -0.555077   -0.413803
     81          6           0      -25.583302    2.610775   -0.459752
     82          6           0      -28.701913    0.529604    2.595701
     83          6           0      -28.454274   -3.541367   -0.047319
     84          6           0      -25.354396   -1.470404   -3.220970
     85          7           0      -27.139355    1.389869    0.949249
     86          6           0      -26.470150    2.539115    0.606481
     87          6           0      -26.761926    3.702053    1.539631
     88          6           0      -27.679126    2.945108    2.593207
     89          6           0      -27.896471    1.541939    2.006223
     90          6           0      -27.088750    3.036209    3.997262
     91          6           0      -27.493521    4.836150    0.788552
     92          6           0      -27.170675    6.329006    1.178004
     93          1           0      -26.532390    6.599485    2.560843
     94          7           0      -28.478709   -1.384491    1.028933
     95          6           0      -28.908947   -0.795699    2.218356
     96          6           0      -29.771294   -1.760545    2.918887
     97          6           0      -29.782796   -2.930607    2.091528
     98          6           0      -28.906514   -2.602399    0.950726
     99          6           0      -30.354602   -1.507557    4.205058
    100          6           0      -30.512037   -4.250247    2.322857
    101          8           0      -30.346620   -5.214986    1.559531
    102          6           0      -31.565276   -4.360952    3.354239
    103          7           0      -26.858832   -2.299261   -1.426635
    104          6           0      -27.585550   -3.383422   -1.143140
    105          6           0      -27.191925   -4.581328   -2.067238
    106          6           0      -26.364519   -3.856856   -3.176055
    107          6           0      -26.145064   -2.487314   -2.614005
    108          6           0      -26.468440   -5.761447   -1.324038
    109          6           0      -27.311729   -3.814186   -4.435494
    110          6           0      -28.220212   -2.564435   -4.700354
    111          7           0      -25.844956    0.364779   -1.679319
    112          6           0      -25.163729   -0.162815   -2.791201
    113          6           0      -24.229052    0.872806   -3.297402
    114          6           0      -24.338406    1.913298   -2.382285
    115          6           0      -25.311611    1.634657   -1.446108
    116          6           0      -23.248024    0.540843   -4.316130
    117          6           0      -23.703918    3.179186   -2.023125
    118          8           0      -22.758683    3.731277   -2.574875
    119          6           0      -24.474884    3.695268   -0.718866
    120          6           0      -23.539795    3.889384    0.415884
    121          8           0      -23.286290    3.070257    1.294454
    122          8           0      -22.992585    5.184297    0.342108
    123          6           0      -21.998566    5.639896    1.287453
    124          1           0      -29.389712    0.859828    3.377450
    125          1           0      -28.857719   -4.555157    0.004349
    126          1           0      -24.871405   -1.857602   -4.120229
    127          1           0      -25.861299    4.104113    2.004378
    128          1           0      -28.590466    3.537223    2.672030
    129          1           0      -27.756973    3.451455    4.750867
    130          1           0      -26.152680    3.586908    4.090335
    131          1           0      -26.934020    2.009563    4.331814
    132          1           0      -28.574247    4.716505    0.863864
    133          1           0      -27.201499    4.610546   -0.237671
    134          1           0      -28.089187    6.912374    1.232805
    135          1           0      -26.692974    6.753219    0.294872
    136          1           0      -31.420737   -1.709677    4.100068
    137          1           0      -30.003617   -0.560270    4.613259
    138          1           0      -29.815455   -2.241152    4.805272
    139          1           0      -31.177797   -4.370243    4.373448
    140          1           0      -32.092715   -5.306663    3.231056
    141          1           0      -32.165869   -3.452897    3.309585
    142          1           0      -28.198125   -4.890237   -2.350596
    143          1           0      -25.468817   -4.416845   -3.445989
    144          1           0      -27.189162   -6.537861   -1.067099
    145          1           0      -25.931542   -5.319152   -0.485483
    146          1           0      -25.739221   -6.154972   -2.031994
    147          1           0      -27.825775   -4.770900   -4.530153
    148          1           0      -26.612841   -3.652738   -5.256759
    149          1           0      -29.173991   -3.006566   -4.986859
    150          1           0      -27.869986   -1.950275   -5.530963
    151          1           0      -28.412728   -1.919909   -3.843351
    152          1           0      -22.750970   -0.384832   -4.028837
    153          1           0      -22.507818    1.341498   -4.302807
    154          1           0      -23.682240    0.605209   -5.313467
    155          1           0      -24.867680    4.663726   -1.030093
    156          1           0      -20.976269    5.533965    0.925245
    157          1           0      -22.224165    5.297828    2.297614
    158          1           0      -22.277747    6.689865    1.379866
 ---------------------------------------------------------------------

 SCF Done:  E(RCAM-B3LYP) =  -4069.81915485     A.U. after   17 cycles

 Excitation energies and oscillator strengths:

 Excited State   1:      Singlet-A      1.7492 eV  708.83 nm  f=0.3648  <S**2>=0.000
     310 -> 316       -0.18982
     312 -> 313        0.68127
     310 <- 316       -0.10803
 This state for optimization and/or second-order correction.
 Total Energy, E(TD-HF/TD-DFT) =  -4069.75487473
 Copying the excited state density for this state as the 1-particle RhoCI density.

 Excited State   2:      Singlet-A      1.7540 eV  706.87 nm  f=0.3874  <S**2>=0.000
     309 -> 315       -0.19891
     311 -> 314        0.68121
     309 <- 315       -0.11270

 Excited State   3:      Singlet-A      2.2729 eV  545.50 nm  f=0.0721  <S**2>=0.000
     310 -> 313        0.62309
     312 -> 316        0.32197

 Excited State   4:      Singlet-A      2.3187 eV  534.70 nm  f=0.0718  <S**2>=0.000
     309 -> 314        0.61703
     311 -> 315        0.33882

 Excited State   5:      Singlet-A      3.2643 eV  379.82 nm  f=0.0000  <S**2>=0.000
     312 -> 314        0.70711

 The electronic state is 1-A.
 Alpha  occ. eigenvalues --  -46.88515 -46.88499 -19.25162 -19.23993 -19.19895
 Alpha  occ. eigenvalues --  -19.19330 -19.19029 -19.18836 -19.18745 -19.18607
 Alpha  occ. eigenvalues --  -14.42135 -14.41906 -14.41294 -14.41101 -14.39764
 Alpha  occ. eigenvalues --  -14.39694 -14.39598 -14.38928 -10.39494 -10.39139
 Alpha  occ. eigenvalues --  -10.35386 -10.35295 -10.35247 -10.34450 -10.31216
 Alpha  occ. eigenvalues --  -10.31198 -10.31018 -10.30779 -10.30749 -10.30606
 Alpha  occ. eigenvalues --  -10.30559 -10.30474 -10.30461 -10.30404 -10.30398
 Alpha  occ. eigenvalues --  -10.30392 -10.30325 -10.30225 -10.30081 -10.29244
 Alpha  occ. eigenvalues --  -10.29197 -10.29038 -10.29034 -10.28882 -10.28599
 Alpha  occ. eigenvalues --  -10.28400 -10.28246 -10.28118 -10.28051 -10.28011
 Alpha  occ. eigenvalues --  -10.27991 -10.27951 -10.27602 -10.27593 -10.27564
 Alpha  occ. eigenvalues --  -10.27536 -10.27455 -10.27403 -10.27325 -10.27292
 Alpha  occ. eigenvalues --  -10.27249 -10.27221 -10.27151 -10.27078 -10.27052
 Alpha  occ. eigenvalues --  -10.26965 -10.26917 -10.26820 -10.26515 -10.26440
 Alpha  occ. eigenvalues --  -10.26379 -10.26283 -10.26215 -10.26093 -10.25984
 Alpha  occ. eigenvalues --  -10.25933 -10.25919 -10.25764 -10.25761 -10.25694
 Alpha  occ. eigenvalues --  -10.25349 -10.25320 -10.25287 -10.25105 -10.24706
 Alpha  occ. eigenvalues --  -10.24604  -3.17105  -3.17058  -1.92014  -1.91965
 Alpha  occ. eigenvalues --   -1.91552  -1.91526  -1.91418  -1.91346  -1.16110
 Alpha  occ. eigenvalues --   -1.14667  -1.09669  -1.09473  -1.09213  -1.09061
 Alpha  occ. eigenvalues --   -1.07258  -1.05956  -1.05766  -1.04769  -1.04578
 Alpha  occ. eigenvalues --   -1.04050  -1.03102  -1.03074  -1.02180  -1.01383
 Alpha  occ. eigenvalues --   -0.93162  -0.91989  -0.90091  -0.89891  -0.89315
 Alpha  occ. eigenvalues --   -0.88667  -0.88476  -0.88394  -0.87588  -0.87342
 Alpha  occ. eigenvalues --   -0.87079  -0.86744  -0.86623  -0.86193  -0.84672
 Alpha  occ. eigenvalues --   -0.84141  -0.84065  -0.83308  -0.82932  -0.82651
 Alpha  occ. eigenvalues --   -0.82604  -0.82001  -0.81241  -0.80877  -0.80840
 Alpha  occ. eigenvalues --   -0.80448  -0.78953  -0.78667  -0.77718  -0.77440
 Alpha  occ. eigenvalues --   -0.77113  -0.76863  -0.76573  -0.75795  -0.75245
 Alpha  occ. eigenvalues --   -0.74787  -0.72988  -0.72134  -0.71953  -0.71310
 Alpha  occ. eigenvalues --   -0.69543  -0.69261  -0.69242  -0.68918  -0.68083
 Alpha  occ. eigenvalues --   -0.67847  -0.66713  -0.66529  -0.66420  -0.65408
 Alpha  occ. eigenvalues --   -0.65106  -0.65010  -0.64686  -0.64557  -0.64466
 Alpha  occ. eigenvalues --   -0.64191  -0.62540  -0.61541  -0.60407  -0.60335
 Alpha  occ. eigenvalues --   -0.59902  -0.59487  -0.59370  -0.59050  -0.58774
 Alpha  occ. eigenvalues --   -0.58392  -0.58069  -0.57880  -0.57609  -0.57172
 Alpha  occ. eigenvalues --   -0.56465  -0.56283  -0.55748  -0.55515  -0.55496
 Alpha  occ. eigenvalues --   -0.55337  -0.54436  -0.54283  -0.54028  -0.53961
 Alpha  occ. eigenvalues --   -0.53890  -0.53857  -0.53486  -0.53329  -0.53166
 Alpha  occ. eigenvalues --   -0.53157  -0.52965  -0.52774  -0.52331  -0.51970
 Alpha  occ. eigenvalues --   -0.51878  -0.51814  -0.51686  -0.51505  -0.51311
 Alpha  occ. eigenvalues --   -0.51207  -0.50787  -0.50767  -0.50612  -0.50484
 Alpha  occ. eigenvalues --   -0.50291  -0.49928  -0.49908  -0.49790  -0.49650
 Alpha  occ. eigenvalues --   -0.49563  -0.49075  -0.49030  -0.48912  -0.48638
 Alpha  occ. eigenvalues --   -0.48530  -0.48390  -0.48379  -0.48340  -0.48084
 Alpha  occ. eigenvalues --   -0.47956  -0.47798  -0.47599  -0.47367  -0.47361
 Alpha  occ. eigenvalues --   -0.47231  -0.47002  -0.46955  -0.46682  -0.46537
 Alpha  occ. eigenvalues --   -0.46228  -0.46109  -0.46040  -0.45997  -0.45569
 Alpha  occ. eigenvalues --   -0.45395  -0.45137  -0.45051  -0.45024  -0.44617
 Alpha  occ. eigenvalues --   -0.44524  -0.44258  -0.44236  -0.44052  -0.43958
 Alpha  occ. eigenvalues --   -0.43935  -0.43858  -0.43705  -0.43668  -0.43423
 Alpha  occ. eigenvalues --   -0.43416  -0.43320  -0.43148  -0.42961  -0.42558
 Alpha  occ. eigenvalues --   -0.42496  -0.42431  -0.42040  -0.41955  -0.41749
 Alpha  occ. eigenvalues --   -0.41697  -0.41679  -0.41561  -0.41306  -0.41232
 Alpha  occ. eigenvalues --   -0.41065  -0.41024  -0.40866  -0.40671  -0.40349
 Alpha  occ. eigenvalues --   -0.40118  -0.39931  -0.39856  -0.39376  -0.38812
 Alpha  occ. eigenvalues --   -0.38582  -0.37909  -0.37752  -0.37427  -0.37115
 Alpha  occ. eigenvalues --   -0.37038  -0.36639  -0.36127  -0.36063  -0.35999
 Alpha  occ. eigenvalues --   -0.35686  -0.35640  -0.34181  -0.34041  -0.33811
 Alpha  occ. eigenvalues --   -0.33531  -0.33298  -0.33005  -0.31563  -0.31199
 Alpha  occ. eigenvalues --   -0.31043  -0.30964  -0.30828  -0.30586  -0.30538
 Alpha  occ. eigenvalues --   -0.30259  -0.30158  -0.29347  -0.24071  -0.23883
 Alpha  occ. eigenvalues --   -0.20909  -0.20787
 Alpha virt. eigenvalues --   -0.08147  -0.08146  -0.01789  -0.01709   0.00233
 Alpha virt. eigenvalues --    0.00751   0.02181   0.02523   0.03024   0.03325
 Alpha virt. eigenvalues --    0.04560   0.04824   0.05084   0.05525   0.05728

 Mulliken charges:
               1
     1  Mg   0.834420
     2  C    0.024644
     3  C   -0.055719
     4  C   -0.051634
     5  C   -0.106222
     6  N   -0.264137
     7  C   -0.113547
     8  C    0.060336
     9  C   -0.062132
    10  C    0.034820
    11  C    0.055110
    12  C    0.051941
    13  C   -0.062172
    14  H    0.017779
    15  N   -0.433210
    16  C    0.175011
    17  C   -0.115148
    18  C   -0.045496
    19  C    0.143486
    20  C    0.083559
    21  C    0.007305
    22  O   -0.223205
    23  C    0.070555
    24  N   -0.254208
    25  C   -0.037000
    26  C   -0.004002
    27  C   -0.057326
    28  C    0.011899
    29  C    0.079537
    30  C    0.047617
    31  C    0.022743
    32  N   -0.327797
    33  C    0.125492
    34  C   -0.201391
    35  C    0.044236
    36  C    0.113395
    37  C    0.151099
    38  C   -0.008649
    39  O   -0.172834
    40  C    0.036438
    41  C    0.195469
    42  O   -0.253681
    43  O   -0.318316
    44  C    0.171990
    45  H   -0.038310
    46  H    0.004199
    47  H   -0.019202
    48  H    0.008452
    49  H    0.010566
    50  H    0.018374
    51  H   -0.002282
    52  H    0.013801
    53  H   -0.010868
    54  H    0.002160
    55  H    0.034889
    56  H    0.034209
    57  H    0.018572
    58  H    0.030381
    59  H    0.016777
    60  H    0.031170
    61  H    0.040919
    62  H    0.035927
    63  H    0.017083
    64  H    0.006251
    65  H    0.011848
    66  H    0.025613
    67  H    0.033358
    68  H   -0.002019
    69  H   -0.015549
    70  H    0.028558
    71  H    0.017464
    72  H    0.021561
    73  H    0.054893
    74  H   -0.004395
    75  H    0.025630
    76  H    0.050974
    77  H    0.049986
    78  H    0.029565
    79  H    0.028390
    80  Mg   0.821041
    81  C    0.030435
    82  C   -0.107815
    83  C   -0.061766
    84  C   -0.079822
    85  N   -0.200726
    86  C   -0.088547
    87  C   -0.039420
    88  C   -0.030665
    89  C    0.038586
    90  C    0.062992
    91  C    0.035484
    92  C   -0.045787
    93  H    0.027962
    94  N   -0.333904
    95  C    0.142445
    96  C   -0.171138
    97  C   -0.048869
    98  C    0.118383
    99  C    0.141197
   100  C    0.013183
   101  O   -0.220254
   102  C    0.057275
   103  N   -0.336845
   104  C    0.016416
   105  C   -0.060068
   106  C    0.004134
   107  C    0.025624
   108  C    0.091683
   109  C   -0.015107
   110  C    0.015172
   111  N   -0.395347
   112  C    0.152198
   113  C   -0.185228
   114  C    0.030578
   115  C    0.122674
   116  C    0.129686
   117  C    0.041173
   118  O   -0.160963
   119  C   -0.039299
   120  C    0.232538
   121  O   -0.216971
   122  O   -0.361700
   123  C    0.186993
   124  H   -0.014562
   125  H   -0.010689
   126  H   -0.032467
   127  H    0.024576
   128  H    0.002123
   129  H    0.003011
   130  H    0.023993
   131  H    0.005973
   132  H    0.006730
   133  H    0.011627
   134  H    0.020939
   135  H    0.030080
   136  H    0.040070
   137  H    0.014424
   138  H    0.038051
   139  H    0.028241
   140  H    0.037013
   141  H    0.029790
   142  H    0.014481
   143  H    0.008515
   144  H    0.034325
   145  H    0.027490
   146  H    0.007520
   147  H    0.020659
   148  H    0.002247
   149  H    0.010469
   150  H    0.021422
   151  H    0.027519
   152  H    0.036493
   153  H    0.019124
   154  H    0.021711
   155  H    0.045245
   156  H    0.053665
   157  H    0.030212
   158  H    0.022372
 Sum of Mulliken charges =  -0.00000

 Dipole moment (field-independent basis, Debye):
    X=             -7.5344    Y=             -0.1633    Z=              4.7648  Tot=              8.9161
 Quadrupole moment (field-independent basis, Debye-Ang):
   XX=           -507.8054   YY=           -506.4707   ZZ=           -486.1015
   XY=            -58.5692   XZ=             -2.1898   YZ=             50.9849

 Normal termination of Gaussian 16 at Thu Sep 16 00:05:52 2021.
