 Gaussian 16, Revision A.03,
 Gaussian 16:  ES64L-G16RevA.03 25-Dec-2016

 -----------------------------------
 #p cam-b3lyp/Def2SVP td=(nstates=5)
 -----------------------------------

 --------------------------------
 TDDFT excited states in gaussian
 --------------------------------
 Symbolic Z-matrix:
 Charge =  0 Multiplicity = 1

                         Standard orientation:
 ---------------------------------------------------------------------
 Center     Atomic      Atomic             Coordinates (Angstroms)
 Number     Number       Type             X           Y           Z
 ---------------------------------------------------------------------
      1         12           0      -31.076343    0.330173    0.442531
      2          6           0      -28.505145   -1.924204   -0.634359
      3          6           0      -33.140267   -1.080529   -1.932690
      4          6           0      -33.156137    2.785142    1.010675
      5          6           0      -28.736659    1.711173    2.594077
      6          7           0      -30.743863   -1.179399   -1.345188
      7          6           0      -29.651302   -1.998628   -1.436245
      8          6           0      -29.964593   -3.173872   -2.400636
      9          6           0      -31.447864   -2.877722   -2.877617
     10          6           0      -31.851918   -1.613058   -2.035398
     11          6           0      -31.690358   -2.607269   -4.422041
     12          6           0      -29.838770   -4.590203   -1.778554
     13          6           0      -29.140072   -5.636675   -2.571507
     14          1           0      -28.908707   -5.539859   -4.127876
     15          7           0      -32.950325    0.837000   -0.361721
     16          6           0      -33.721710    0.072473   -1.236628
     17          6           0      -34.978854    0.792718   -1.515792
     18          6           0      -35.025323    1.874574   -0.554831
     19          6           0      -33.684407    1.879995    0.074763
     20          6           0      -36.011531    0.404560   -2.530251
     21          6           0      -36.147581    2.883403   -0.214769
     22          8           0      -36.200167    3.571937    0.826120
     23          6           0      -37.326785    2.913030   -1.101715
     24          7           0      -30.916413    1.978933    1.557508
     25          6           0      -31.942289    2.898330    1.563894
     26          6           0      -31.732005    3.965916    2.673161
     27          6           0      -30.460105    3.368719    3.423176
     28          6           0      -30.001005    2.266906    2.483939
     29          6           0      -31.556457    5.476746    2.234022
     30          6           0      -30.675145    2.832410    4.829580
     31          6           0      -29.953393    3.602450    5.955272
     32          7           0      -29.103378   -0.120264    1.053570
     33          6           0      -28.275930    0.555546    1.918873
     34          6           0      -26.943116   -0.061589    1.923820
     35          6           0      -27.035752   -1.065460    0.976173
     36          6           0      -28.355579   -1.066975    0.472237
     37          6           0      -25.725888    0.330236    2.694622
     38          6           0      -26.269741   -2.105826    0.390024
     39          8           0      -25.113509   -2.551456    0.639150
     40          6           0      -27.141775   -2.685152   -0.641823
     41          6           0      -26.430870   -2.709977   -1.967870
     42          8           0      -26.177993   -1.760851   -2.628058
     43          8           0      -26.186722   -3.969685   -2.328417
     44          6           0      -25.262777   -4.229926   -3.379657
     45          1           0      -33.855145   -1.460539   -2.665711
     46          1           0      -33.763051    3.634630    1.333541
     47          1           0      -27.986358    2.201877    3.216237
     48          1           0      -29.252014   -3.081887   -3.221149
     49          1           0      -32.102133   -3.698318   -2.584783
     50          1           0      -30.834290   -2.796557   -5.069062
     51          1           0      -31.885479   -1.538829   -4.524940
     52          1           0      -32.566721   -3.154014   -4.771442
     53          1           0      -30.806061   -5.046154   -1.564260
     54          1           0      -29.289031   -4.589919   -0.837778
     55          1           0      -29.697296   -6.572333   -2.516143
     56          1           0      -28.162776   -5.788129   -2.114027
     57          1           0      -36.202341    1.248494   -3.192817
     58          1           0      -36.920925    0.185464   -1.970689
     59          1           0      -35.772972   -0.549717   -3.001012
     60          1           0      -36.986407    3.228247   -2.088112
     61          1           0      -37.958661    3.711056   -0.712609
     62          1           0      -37.909062    1.993995   -1.040961
     63          1           0      -32.595207    3.869852    3.332535
     64          1           0      -29.726756    4.172850    3.482954
     65          1           0      -31.622134    5.561858    1.149926
     66          1           0      -30.665023    5.944295    2.653919
     67          1           0      -32.366080    6.040297    2.698002
     68          1           0      -30.534233    1.760750    4.970963
     69          1           0      -31.734423    2.958278    5.051125
     70          1           0      -29.454925    3.007520    6.720314
     71          1           0      -30.732561    4.053714    6.570157
     72          1           0      -29.211861    4.328994    5.625816
     73          1           0      -25.956592    0.973033    3.544629
     74          1           0      -25.097473    0.985441    2.091553
     75          1           0      -25.173411   -0.589682    2.885588
     76          1           0      -27.350519   -3.703635   -0.315437
     77          1           0      -24.271159   -4.044729   -2.964341
     78          1           0      -25.365910   -3.497076   -4.180042
     79          1           0      -25.300110   -5.275218   -3.687516
     80         12           0       31.108197   -0.039862   -0.469387
     81          6           0       27.989134   -1.110951    0.557085
     82          6           0       29.544109    2.119375   -2.646919
     83          6           0       34.148872    1.445095   -1.059642
     84          6           0       32.593438   -2.145186    1.813782
     85          7           0       29.033029    0.586708   -0.839134
     86          6           0       27.926393   -0.065993   -0.332751
     87          6           0       26.625298    0.499203   -0.896237
     88          6           0       27.155622    1.280327   -2.155891
     89          6           0       28.641346    1.371599   -1.839848
     90          6           0       26.789827    0.689827   -3.592461
     91          6           0       25.747205    1.335674    0.088249
     92          6           0       24.264531    1.029257    0.069514
     93          1           0       23.450834    2.169598   -0.522366
     94          7           0       31.708282    1.550196   -1.665054
     95          6           0       30.943323    2.276328   -2.488010
     96          6           0       31.749335    3.219839   -3.243228
     97          6           0       33.079395    3.121353   -2.870132
     98          6           0       33.044008    2.047138   -1.787012
     99          6           0       31.110742    4.270929   -4.270592
    100          6           0       34.294910    3.888708   -3.491567
    101          8           0       34.070779    4.762359   -4.376502
    102          6           0       35.684804    3.656038   -3.036945
    103          7           0       33.134907   -0.143514    0.468855
    104          6           0       34.200628    0.416582   -0.055461
    105          6           0       35.492254   -0.203699    0.434834
    106          6           0       35.090623   -1.325749    1.451335
    107          6           0       33.505866   -1.291849    1.209546
    108          6           0       36.641667   -0.517111   -0.575527
    109          6           0       35.448458   -1.191402    2.959901
    110          6           0       35.371528   -2.507578    3.705656
    111          7           0       30.425491   -1.381782    0.945987
    112          6           0       31.162784   -2.259447    1.774096
    113          6           0       30.227871   -3.120029    2.446251
    114          6           0       28.941925   -2.745160    1.986324
    115          6           0       29.158548   -1.671938    1.126529
    116          6           0       30.562827   -4.356295    3.267396
    117          6           0       27.609092   -3.076768    2.099036
    118          8           0       26.966757   -3.824182    2.785218
    119          6           0       26.869136   -1.907339    1.263759
    120          6           0       26.361044   -0.952059    2.342570
    121          8           0       27.026419   -0.112164    2.917403
    122          8           0       25.022053   -1.249015    2.539260
    123          6           0       24.359143   -0.520513    3.616049
    124          1           0       29.126120    2.675079   -3.488709
    125          1           0       35.083724    1.952714   -1.305019
    126          1           0       32.926611   -2.953231    2.468370
    127          1           0       26.043764   -0.340310   -1.276102
    128          1           0       26.846902    2.318576   -2.028779
    129          1           0       27.587022    1.106275   -4.208118
    130          1           0       25.890216    1.116639   -4.036587
    131          1           0       26.722077   -0.394749   -3.676237
    132          1           0       25.921808    2.361496   -0.236894
    133          1           0       26.106312    1.429755    1.112879
    134          1           0       23.962745    0.831087    1.098239
    135          1           0       24.027386    0.149351   -0.528834
    136          1           0       30.022279    4.251101   -4.339410
    137          1           0       31.513249    4.118948   -5.272644
    138          1           0       31.256263    5.306964   -3.967878
    139          1           0       35.950655    2.612048   -3.199769
    140          1           0       35.852219    4.054003   -2.036011
    141          1           0       36.292801    4.139500   -3.800597
    142          1           0       36.066976    0.400829    1.136808
    143          1           0       35.280038   -2.327121    1.063993
    144          1           0       36.374015   -0.002712   -1.499517
    145          1           0       36.858805   -1.580687   -0.680815
    146          1           0       37.609622   -0.101472   -0.295142
    147          1           0       34.788934   -0.419760    3.356783
    148          1           0       36.446194   -0.752634    2.958995
    149          1           0       36.113646   -2.475061    4.503735
    150          1           0       35.580095   -3.395787    3.108086
    151          1           0       34.416347   -2.563381    4.227845
    152          1           0       29.696932   -4.971269    3.512782
    153          1           0       31.077177   -4.023252    4.167923
    154          1           0       31.265181   -5.002464    2.740715
    155          1           0       26.134588   -2.317827    0.570225
    156          1           0       24.796749   -0.808359    4.572093
    157          1           0       23.280030   -0.669695    3.602224
    158          1           0       24.564701    0.544548    3.512618
 ---------------------------------------------------------------------

 SCF Done:  E(RCAM-B3LYP) =  -4069.80675988     A.U. after   19 cycles

 Excitation energies and oscillator strengths:

 Excited State   1:      Singlet-A      1.7200 eV  720.83 nm  f=0.4228  <S**2>=0.000
     309 -> 316        0.17638
     312 -> 313        0.68704
     309 <- 316        0.10598
 This state for optimization and/or second-order correction.
 Total Energy, E(TD-HF/TD-DFT) =  -4069.74355023
 Copying the excited state density for this state as the 1-particle RhoCI density.

 Excited State   2:      Singlet-A      1.8652 eV  664.74 nm  f=0.3716  <S**2>=0.000
     310 -> 315       -0.14280
     311 -> 314        0.68808

 Excited State   3:      Singlet-A      2.2103 eV  560.94 nm  f=0.1294  <S**2>=0.000
     309 -> 313        0.65015
     312 -> 316       -0.26633

 Excited State   4:      Singlet-A      2.2638 eV  547.69 nm  f=0.1277  <S**2>=0.000
     310 -> 314        0.64676
     311 -> 315        0.24681
     311 -> 318        0.10329

 Excited State   5:      Singlet-A      3.2604 eV  380.27 nm  f=0.0000  <S**2>=0.000
     311 -> 313        0.70710

 The electronic state is 1-A.
 Alpha  occ. eigenvalues --  -46.89396 -46.88909 -19.24997 -19.24514 -19.20219
 Alpha  occ. eigenvalues --  -19.19869 -19.19650 -19.19023 -19.18546 -19.17714
 Alpha  occ. eigenvalues --  -14.42307 -14.42054 -14.42044 -14.41618 -14.40547
 Alpha  occ. eigenvalues --  -14.39693 -14.39557 -14.38484 -10.39084 -10.39044
 Alpha  occ. eigenvalues --  -10.37025 -10.34958 -10.34706 -10.33395 -10.33071
 Alpha  occ. eigenvalues --  -10.32413 -10.31715 -10.31699 -10.31502 -10.31140
 Alpha  occ. eigenvalues --  -10.31075 -10.31026 -10.30954 -10.30547 -10.30350
 Alpha  occ. eigenvalues --  -10.30156 -10.29798 -10.29791 -10.29697 -10.29547
 Alpha  occ. eigenvalues --  -10.29295 -10.29160 -10.28756 -10.28749 -10.28409
 Alpha  occ. eigenvalues --  -10.28385 -10.28381 -10.28366 -10.28341 -10.28292
 Alpha  occ. eigenvalues --  -10.28263 -10.28194 -10.28095 -10.28059 -10.28054
 Alpha  occ. eigenvalues --  -10.27563 -10.27513 -10.27511 -10.27418 -10.27228
 Alpha  occ. eigenvalues --  -10.27185 -10.27185 -10.27148 -10.27053 -10.26995
 Alpha  occ. eigenvalues --  -10.26949 -10.26933 -10.26914 -10.26853 -10.26777
 Alpha  occ. eigenvalues --  -10.26764 -10.26752 -10.26730 -10.26468 -10.26439
 Alpha  occ. eigenvalues --  -10.26205 -10.25937 -10.25914 -10.25893 -10.25797
 Alpha  occ. eigenvalues --  -10.25580 -10.25446 -10.25290 -10.25190 -10.25181
 Alpha  occ. eigenvalues --  -10.23097  -3.17835  -3.17487  -1.92718  -1.92369
 Alpha  occ. eigenvalues --   -1.92296  -1.92138  -1.91956  -1.91786  -1.18617
 Alpha  occ. eigenvalues --   -1.15457  -1.09796  -1.09706  -1.09140  -1.08307
 Alpha  occ. eigenvalues --   -1.08081  -1.07901  -1.04830  -1.04581  -1.03836
 Alpha  occ. eigenvalues --   -1.03769  -1.03188  -1.02544  -1.02530  -1.01783
 Alpha  occ. eigenvalues --   -0.93570  -0.91557  -0.89177  -0.89127  -0.88543
 Alpha  occ. eigenvalues --   -0.88491  -0.88370  -0.87964  -0.87738  -0.87053
 Alpha  occ. eigenvalues --   -0.86881  -0.86628  -0.86286  -0.85820  -0.84553
 Alpha  occ. eigenvalues --   -0.84501  -0.83630  -0.83525  -0.83202  -0.82622
 Alpha  occ. eigenvalues --   -0.82059  -0.82055  -0.81715  -0.80703  -0.80506
 Alpha  occ. eigenvalues --   -0.80215  -0.78301  -0.77710  -0.77639  -0.77158
 Alpha  occ. eigenvalues --   -0.77157  -0.76736  -0.76358  -0.75326  -0.75200
 Alpha  occ. eigenvalues --   -0.75138  -0.73174  -0.72389  -0.71690  -0.71491
 Alpha  occ. eigenvalues --   -0.69720  -0.69400  -0.69111  -0.68973  -0.67901
 Alpha  occ. eigenvalues --   -0.67491  -0.67351  -0.66251  -0.65921  -0.65609
 Alpha  occ. eigenvalues --   -0.65475  -0.64916  -0.64848  -0.64674  -0.64472
 Alpha  occ. eigenvalues --   -0.64038  -0.63029  -0.61699  -0.60332  -0.59967
 Alpha  occ. eigenvalues --   -0.59862  -0.59469  -0.59335  -0.59137  -0.59023
 Alpha  occ. eigenvalues --   -0.58458  -0.58211  -0.57837  -0.57755  -0.57386
 Alpha  occ. eigenvalues --   -0.56492  -0.56434  -0.56109  -0.55485  -0.55175
 Alpha  occ. eigenvalues --   -0.55037  -0.54914  -0.54180  -0.53921  -0.53753
 Alpha  occ. eigenvalues --   -0.53726  -0.53428  -0.53331  -0.53249  -0.53155
 Alpha  occ. eigenvalues --   -0.53017  -0.52795  -0.52712  -0.52405  -0.52006
 Alpha  occ. eigenvalues --   -0.51651  -0.51584  -0.51580  -0.51486  -0.51115
 Alpha  occ. eigenvalues --   -0.51025  -0.50798  -0.50525  -0.50151  -0.50078
 Alpha  occ. eigenvalues --   -0.50034  -0.50004  -0.49881  -0.49808  -0.49448
 Alpha  occ. eigenvalues --   -0.49253  -0.49088  -0.49024  -0.48753  -0.48702
 Alpha  occ. eigenvalues --   -0.48577  -0.48536  -0.48332  -0.48236  -0.48215
 Alpha  occ. eigenvalues --   -0.47707  -0.47579  -0.47415  -0.47359  -0.47174
 Alpha  occ. eigenvalues --   -0.46910  -0.46777  -0.46543  -0.46211  -0.46184
 Alpha  occ. eigenvalues --   -0.46129  -0.46112  -0.46050  -0.45956  -0.45804
 Alpha  occ. eigenvalues --   -0.45281  -0.45214  -0.45187  -0.45041  -0.44876
 Alpha  occ. eigenvalues --   -0.44785  -0.44661  -0.44539  -0.44447  -0.44274
 Alpha  occ. eigenvalues --   -0.43939  -0.43641  -0.43583  -0.43440  -0.43406
 Alpha  occ. eigenvalues --   -0.43080  -0.43032  -0.42703  -0.42685  -0.42607
 Alpha  occ. eigenvalues --   -0.42550  -0.42471  -0.42173  -0.42150  -0.42034
 Alpha  occ. eigenvalues --   -0.41856  -0.41626  -0.41598  -0.41431  -0.41171
 Alpha  occ. eigenvalues --   -0.40964  -0.40767  -0.40405  -0.40268  -0.40151
 Alpha  occ. eigenvalues --   -0.40081  -0.39859  -0.39682  -0.39266  -0.39121
 Alpha  occ. eigenvalues --   -0.38969  -0.38184  -0.38054  -0.37909  -0.37332
 Alpha  occ. eigenvalues --   -0.36946  -0.36526  -0.36481  -0.36322  -0.36262
 Alpha  occ. eigenvalues --   -0.35848  -0.35330  -0.34677  -0.34415  -0.34283
 Alpha  occ. eigenvalues --   -0.34124  -0.33074  -0.32904  -0.32437  -0.31876
 Alpha  occ. eigenvalues --   -0.31595  -0.31439  -0.30852  -0.30760  -0.30597
 Alpha  occ. eigenvalues --   -0.29655  -0.29481  -0.29096  -0.24112  -0.24062
 Alpha  occ. eigenvalues --   -0.21480  -0.21304
 Alpha virt. eigenvalues --   -0.08935  -0.08445  -0.01786  -0.01471  -0.00188
 Alpha virt. eigenvalues --    0.00121   0.01812   0.01931   0.01999   0.02366
 Alpha virt. eigenvalues --    0.05180   0.05275   0.05839   0.06118   0.06284

 Mulliken charges:
               1
     1  Mg   0.831077
     2  C   -0.003513
     3  C   -0.022636
     4  C   -0.061396
     5  C   -0.094161
     6  N   -0.252752
     7  C   -0.054175
     8  C    0.021030
     9  C   -0.061027
    10  C    0.018210
    11  C    0.057388
    12  C    0.048953
    13  C   -0.081520
    14  H    0.000634
    15  N   -0.364191
    16  C    0.090946
    17  C   -0.170526
    18  C   -0.041468
    19  C    0.129263
    20  C    0.140609
    21  C    0.009630
    22  O   -0.229744
    23  C    0.054907
    24  N   -0.351657
    25  C    0.076926
    26  C   -0.074950
    27  C   -0.035816
    28  C    0.084620
    29  C    0.075265
    30  C    0.058356
    31  C   -0.010541
    32  N   -0.321547
    33  C    0.100456
    34  C   -0.161313
    35  C   -0.007606
    36  C    0.104590
    37  C    0.130295
    38  C    0.044983
    39  O   -0.216231
    40  C    0.039334
    41  C    0.154821
    42  O   -0.173644
    43  O   -0.300081
    44  C    0.179700
    45  H   -0.038464
    46  H   -0.005601
    47  H   -0.029182
    48  H    0.021600
    49  H    0.016310
    50  H    0.019320
    51  H    0.019356
    52  H    0.018316
    53  H    0.008906
    54  H    0.007779
    55  H    0.022213
    56  H    0.037191
    57  H    0.036377
    58  H    0.019928
    59  H    0.011627
    60  H    0.032299
    61  H    0.020466
    62  H    0.045025
    63  H    0.021382
    64  H    0.000787
    65  H    0.029701
    66  H    0.014097
    67  H    0.016451
    68  H    0.016409
    69  H   -0.002380
    70  H    0.007287
    71  H    0.010573
    72  H    0.017262
    73  H    0.008817
    74  H    0.034169
    75  H    0.049487
    76  H    0.040262
    77  H    0.029072
    78  H    0.038743
    79  H    0.042920
    80  Mg   0.828940
    81  C   -0.030281
    82  C   -0.118207
    83  C   -0.096000
    84  C   -0.030464
    85  N   -0.261067
    86  C   -0.046110
    87  C   -0.037676
    88  C   -0.022684
    89  C    0.032230
    90  C    0.082820
    91  C    0.069550
    92  C   -0.053120
    93  H    0.008485
    94  N   -0.381670
    95  C    0.167557
    96  C   -0.137043
    97  C   -0.024655
    98  C    0.115520
    99  C    0.116996
   100  C    0.007355
   101  O   -0.226559
   102  C    0.070462
   103  N   -0.264374
   104  C    0.101570
   105  C   -0.027366
   106  C   -0.054093
   107  C    0.007669
   108  C    0.065024
   109  C    0.060274
   110  C    0.025652
   111  N   -0.347615
   112  C    0.034464
   113  C   -0.140312
   114  C    0.052361
   115  C    0.114916
   116  C    0.104369
   117  C   -0.012349
   118  O   -0.157314
   119  C   -0.046250
   120  C    0.232202
   121  O   -0.211959
   122  O   -0.335430
   123  C    0.185502
   124  H   -0.025993
   125  H   -0.042734
   126  H   -0.041117
   127  H   -0.000712
   128  H    0.006114
   129  H    0.004924
   130  H    0.021635
   131  H    0.031779
   132  H   -0.004020
   133  H    0.028903
   134  H    0.025659
   135  H    0.027225
   136  H   -0.002838
   137  H    0.041081
   138  H    0.035882
   139  H    0.040805
   140  H    0.068736
   141  H    0.028196
   142  H    0.010227
   143  H    0.006684
   144  H    0.011343
   145  H    0.019364
   146  H    0.006927
   147  H    0.016840
   148  H    0.001343
   149  H    0.007776
   150  H    0.022101
   151  H    0.031329
   152  H    0.034199
   153  H    0.016133
   154  H    0.019404
   155  H    0.024853
   156  H    0.038230
   157  H    0.041683
   158  H    0.026718
 Sum of Mulliken charges =  -0.00000

 Dipole moment (field-independent basis, Debye):
    X=              1.2378    Y=             -1.0635    Z=             -2.2746  Tot=              2.7994
 Quadrupole moment (field-independent basis, Debye-Ang):
   XX=           -138.0897   YY=           -521.6692   ZZ=           -503.6858
   XY=             58.8699   XZ=            -30.1684   YZ=             29.7608

 Normal termination of Gaussian 16 at Thu Sep 16 06:07:34 2021.
