 Gaussian 16, Revision A.03,
 Gaussian 16:  ES64L-G16RevA.03 25-Dec-2016

 -----------------------------------
 #p cam-b3lyp/Def2SVP td=(nstates=5)
 -----------------------------------

 --------------------------------
 TDDFT excited states in gaussian
 --------------------------------
 Symbolic Z-matrix:
 Charge =  0 Multiplicity = 1

                         Standard orientation:
 ---------------------------------------------------------------------
 Center     Atomic      Atomic             Coordinates (Angstroms)
 Number     Number       Type             X           Y           Z
 ---------------------------------------------------------------------
      1         12           0       25.012017   -0.369177   -0.678633
      2          6           0       23.377602    1.343918    2.012760
      3          6           0       25.275544   -3.024533    1.234799
      4          6           0       27.173427   -1.463310   -2.940405
      5          6           0       24.914207    2.852592   -2.450461
      6          7           0       24.347994   -0.791042    1.374995
      7          6           0       23.727379    0.040797    2.328109
      8          6           0       23.461400   -0.665232    3.711191
      9          6           0       24.070269   -2.150970    3.332387
     10          6           0       24.591762   -2.030757    1.903893
     11          6           0       25.233578   -2.595423    4.319114
     12          6           0       21.976144   -0.644499    4.214720
     13          6           0       21.632856   -1.650017    5.307305
     14          1           0       21.275654   -1.023988    6.667847
     15          7           0       26.002175   -2.069624   -0.872285
     16          6           0       26.012739   -3.134208   -0.001961
     17          6           0       26.809445   -4.239428   -0.491441
     18          6           0       27.351229   -3.747662   -1.744541
     19          6           0       26.767924   -2.370543   -1.924262
     20          6           0       26.950236   -5.553251    0.120461
     21          6           0       28.262429   -4.431135   -2.749259
     22          8           0       28.554120   -3.967832   -3.816023
     23          6           0       28.864978   -5.726192   -2.273118
     24          7           0       25.970581    0.588142   -2.420708
     25          6           0       26.810848   -0.137290   -3.200966
     26          6           0       27.253739    0.676041   -4.446539
     27          6           0       26.402458    1.986220   -4.311317
     28          6           0       25.665610    1.793431   -2.999876
     29          6           0       28.781096    0.971401   -4.632394
     30          6           0       25.388123    2.275127   -5.473590
     31          6           0       26.059969    2.833571   -6.747548
     32          7           0       24.349050    1.670516   -0.360987
     33          6           0       24.304917    2.791225   -1.157900
     34          6           0       23.589739    3.802647   -0.486835
     35          6           0       23.255778    3.352810    0.735318
     36          6           0       23.754189    2.017506    0.821052
     37          6           0       23.251298    5.118848   -1.174591
     38          6           0       22.659066    3.619872    2.047907
     39          8           0       22.144734    4.616447    2.485988
     40          6           0       22.752693    2.287763    2.934265
     41          6           0       23.723872    2.558243    4.038807
     42          8           0       24.928661    2.457283    4.096486
     43          8           0       22.938229    2.939031    5.108569
     44          6           0       23.636056    3.256913    6.377125
     45          1           0       25.457679   -3.934271    1.810491
     46          1           0       27.997069   -1.821781   -3.562506
     47          1           0       24.877729    3.692933   -3.147586
     48          1           0       24.148843   -0.234103    4.439150
     49          1           0       23.267148   -2.879511    3.445844
     50          1           0       25.087931   -3.637836    4.601999
     51          1           0       25.416213   -2.010814    5.220371
     52          1           0       26.184100   -2.633106    3.787846
     53          1           0       21.458347   -0.792558    3.266161
     54          1           0       21.553542    0.304420    4.545690
     55          1           0       22.483407   -2.314076    5.458624
     56          1           0       20.705060   -2.153395    5.036860
     57          1           0       26.462236   -6.156191   -0.645287
     58          1           0       26.476446   -5.583188    1.101768
     59          1           0       27.956168   -5.950404    0.254848
     60          1           0       28.241901   -6.556536   -2.605121
     61          1           0       29.291266   -5.668253   -1.271188
     62          1           0       29.859536   -5.706694   -2.717846
     63          1           0       26.762829    0.187661   -5.288847
     64          1           0       27.070960    2.822114   -4.104005
     65          1           0       29.067533    2.022279   -4.682900
     66          1           0       29.018529    0.616207   -5.634924
     67          1           0       29.437793    0.525561   -3.885357
     68          1           0       24.666835    3.021992   -5.143770
     69          1           0       24.868619    1.329034   -5.631895
     70          1           0       27.024949    3.278983   -6.504858
     71          1           0       25.349359    3.543824   -7.170081
     72          1           0       26.301714    2.076211   -7.493846
     73          1           0       22.350939    5.564580   -0.751627
     74          1           0       23.149731    4.938540   -2.244814
     75          1           0       24.098449    5.803050   -1.121715
     76          1           0       21.775225    1.982453    3.308441
     77          1           0       23.115893    4.123434    6.785190
     78          1           0       24.695513    3.485307    6.261946
     79          1           0       23.434043    2.334478    6.922440
     80         12           0      -25.563016    0.356821    0.156059
     81          6           0      -23.470238   -2.420029    0.103203
     82          6           0      -22.750452    2.330358    0.623303
     83          6           0      -27.342984    3.100950   -0.320050
     84          6           0      -28.211067   -1.653442   -0.805815
     85          7           0      -23.365276    0.025638    0.179572
     86          6           0      -22.749983   -1.205205    0.281227
     87          6           0      -21.285678   -1.100588    0.589726
     88          6           0      -21.177099    0.396136    1.122002
     89          6           0      -22.474710    0.990470    0.590749
     90          6           0      -20.781327    0.733219    2.637533
     91          6           0      -20.303241   -1.492010   -0.609281
     92          6           0      -20.780844   -1.198564   -2.062630
     93          1           0      -19.706693   -0.648696   -2.970069
     94          7           0      -25.098859    2.440321    0.033131
     95          6           0      -23.862386    3.051748    0.275021
     96          6           0      -23.929529    4.473778    0.077626
     97          6           0      -25.285552    4.738824   -0.229023
     98          6           0      -25.993338    3.423963   -0.217400
     99          6           0      -22.750657    5.363796    0.474570
    100          6           0      -25.799791    6.176581   -0.468909
    101          8           0      -25.038196    7.148574   -0.500003
    102          6           0      -27.256986    6.325166   -0.601714
    103          7           0      -27.471009    0.618439   -0.595305
    104          6           0      -28.056807    1.861149   -0.422122
    105          6           0      -29.579709    1.850605   -0.679740
    106          6           0      -29.735560    0.321453   -1.061302
    107          6           0      -28.411591   -0.271569   -0.865242
    108          6           0      -30.512599    2.281439    0.407706
    109          6           0      -30.196695    0.099440   -2.589861
    110          6           0      -31.309226   -0.912362   -2.679382
    111          7           0      -25.898139   -1.684672   -0.093465
    112          6           0      -27.039522   -2.356468   -0.490247
    113          6           0      -26.764527   -3.808866   -0.578181
    114          6           0      -25.347180   -3.880641   -0.344133
    115          6           0      -24.905496   -2.581148   -0.069303
    116          6           0      -27.600671   -4.912422   -1.085997
    117          6           0      -24.136925   -4.729477   -0.321193
    118          8           0      -24.017959   -5.901966   -0.592310
    119          6           0      -22.899222   -3.833329    0.005677
    120          6           0      -22.202093   -4.341446    1.187768
    121          8           0      -21.053664   -4.769108    1.307060
    122          8           0      -23.187648   -4.542520    2.189500
    123          6           0      -22.677211   -5.004330    3.498123
    124          1           0      -21.893344    2.880606    1.018368
    125          1           0      -28.065187    3.919720   -0.304100
    126          1           0      -29.124634   -2.203900   -1.037450
    127          1           0      -21.014898   -1.804451    1.376640
    128          1           0      -20.367994    0.767417    0.492531
    129          1           0      -20.499675   -0.119310    3.255314
    130          1           0      -21.591290    1.179698    3.214201
    131          1           0      -19.851609    1.302784    2.646350
    132          1           0      -19.985596   -2.530390   -0.520454
    133          1           0      -19.378651   -0.943444   -0.429692
    134          1           0      -21.637561   -0.523993   -2.057705
    135          1           0      -21.119632   -2.121558   -2.532359
    136          1           0      -22.658063    6.267074   -0.129263
    137          1           0      -21.820118    4.832275    0.277092
    138          1           0      -22.928520    5.642461    1.513497
    139          1           0      -27.712967    6.142410    0.370858
    140          1           0      -27.627554    5.647280   -1.371283
    141          1           0      -27.407240    7.364780   -0.892652
    142          1           0      -29.752444    2.368544   -1.623428
    143          1           0      -30.345575   -0.060749   -0.242848
    144          1           0      -31.509064    1.990709    0.074683
    145          1           0      -30.518562    3.371440    0.408100
    146          1           0      -30.206759    1.856565    1.364498
    147          1           0      -29.302758   -0.195641   -3.139166
    148          1           0      -30.475554    0.987489   -3.158464
    149          1           0      -30.908877   -1.805717   -3.158091
    150          1           0      -32.061750   -0.637704   -3.419299
    151          1           0      -31.614372   -1.215103   -1.677924
    152          1           0      -28.604190   -4.636853   -1.413601
    153          1           0      -27.738281   -5.591468   -0.245250
    154          1           0      -27.056387   -5.164388   -1.995922
    155          1           0      -22.273583   -3.899952   -0.884092
    156          1           0      -23.220807   -4.360214    4.190244
    157          1           0      -21.616318   -4.944708    3.741292
    158          1           0      -23.152768   -5.974283    3.644685
 ---------------------------------------------------------------------

 SCF Done:  E(RCAM-B3LYP) =  -4069.81840245     A.U. after   19 cycles

 Excitation energies and oscillator strengths:

 Excited State   1:      Singlet-A      1.6973 eV  730.49 nm  f=0.3887  <S**2>=0.000
     310 -> 316        0.17772
     312 -> 314        0.68630
     310 <- 316        0.10764
 This state for optimization and/or second-order correction.
 Total Energy, E(TD-HF/TD-DFT) =  -4069.75602897
 Copying the excited state density for this state as the 1-particle RhoCI density.

 Excited State   2:      Singlet-A      1.7179 eV  721.73 nm  f=0.3800  <S**2>=0.000
     309 -> 315       -0.18174
     311 -> 313        0.68353
     309 <- 315       -0.10499

 Excited State   3:      Singlet-A      2.2043 eV  562.47 nm  f=0.0886  <S**2>=0.000
     309 -> 313        0.62964
     311 -> 315        0.30513

 Excited State   4:      Singlet-A      2.2114 eV  560.66 nm  f=0.1385  <S**2>=0.000
     310 -> 314        0.65073
     312 -> 316       -0.26505

 Excited State   5:      Singlet-A      3.1546 eV  393.03 nm  f=0.0000  <S**2>=0.000
     312 -> 313        0.70711

 The electronic state is 1-A.
 Alpha  occ. eigenvalues --  -46.89113 -46.88557 -19.24351 -19.23829 -19.20547
 Alpha  occ. eigenvalues --  -19.19909 -19.19096 -19.19031 -19.18935 -19.18830
 Alpha  occ. eigenvalues --  -14.42243 -14.42214 -14.42176 -14.41307 -14.39652
 Alpha  occ. eigenvalues --  -14.39613 -14.39192 -14.38835 -10.39741 -10.38962
 Alpha  occ. eigenvalues --  -10.35254 -10.35127 -10.35113 -10.34756 -10.31631
 Alpha  occ. eigenvalues --  -10.31308 -10.31192 -10.31191 -10.30898 -10.30852
 Alpha  occ. eigenvalues --  -10.30688 -10.30642 -10.30354 -10.30200 -10.30175
 Alpha  occ. eigenvalues --  -10.30092 -10.30090 -10.30087 -10.29366 -10.29361
 Alpha  occ. eigenvalues --  -10.29075 -10.28967 -10.28893 -10.28845 -10.28749
 Alpha  occ. eigenvalues --  -10.28685 -10.28550 -10.28474 -10.28437 -10.28421
 Alpha  occ. eigenvalues --  -10.28350 -10.28216 -10.28168 -10.28082 -10.27736
 Alpha  occ. eigenvalues --  -10.27680 -10.27654 -10.27307 -10.27170 -10.27169
 Alpha  occ. eigenvalues --  -10.27145 -10.27136 -10.26981 -10.26975 -10.26928
 Alpha  occ. eigenvalues --  -10.26914 -10.26808 -10.26766 -10.26754 -10.26738
 Alpha  occ. eigenvalues --  -10.26737 -10.26725 -10.26691 -10.26225 -10.26141
 Alpha  occ. eigenvalues --  -10.26064 -10.26028 -10.25968 -10.25868 -10.25761
 Alpha  occ. eigenvalues --  -10.25698 -10.25585 -10.25550 -10.25535 -10.25394
 Alpha  occ. eigenvalues --  -10.24693  -3.17639  -3.17100  -1.92523  -1.92109
 Alpha  occ. eigenvalues --   -1.91996  -1.91932  -1.91536  -1.91424  -1.15692
 Alpha  occ. eigenvalues --   -1.14827  -1.11353  -1.10777  -1.10370  -1.09379
 Alpha  occ. eigenvalues --   -1.07453  -1.06910  -1.05080  -1.03794  -1.03725
 Alpha  occ. eigenvalues --   -1.03283  -1.03192  -1.02489  -1.02351  -1.01579
 Alpha  occ. eigenvalues --   -0.93001  -0.92473  -0.89663  -0.89230  -0.88917
 Alpha  occ. eigenvalues --   -0.88235  -0.88108  -0.87994  -0.87676  -0.87133
 Alpha  occ. eigenvalues --   -0.86888  -0.86832  -0.86192  -0.86008  -0.84840
 Alpha  occ. eigenvalues --   -0.84464  -0.83881  -0.83178  -0.82729  -0.82394
 Alpha  occ. eigenvalues --   -0.82163  -0.82036  -0.80852  -0.80696  -0.80160
 Alpha  occ. eigenvalues --   -0.80063  -0.78328  -0.78100  -0.77510  -0.76961
 Alpha  occ. eigenvalues --   -0.76855  -0.76629  -0.76225  -0.75756  -0.75530
 Alpha  occ. eigenvalues --   -0.74805  -0.72757  -0.72652  -0.72148  -0.71308
 Alpha  occ. eigenvalues --   -0.69630  -0.69434  -0.69371  -0.68736  -0.68097
 Alpha  occ. eigenvalues --   -0.67708  -0.66943  -0.66836  -0.66421  -0.65030
 Alpha  occ. eigenvalues --   -0.64910  -0.64595  -0.64516  -0.64400  -0.64008
 Alpha  occ. eigenvalues --   -0.63876  -0.62552  -0.61447  -0.60285  -0.60067
 Alpha  occ. eigenvalues --   -0.59460  -0.59386  -0.58950  -0.58806  -0.58318
 Alpha  occ. eigenvalues --   -0.58295  -0.57829  -0.57536  -0.57259  -0.56859
 Alpha  occ. eigenvalues --   -0.56332  -0.56115  -0.55832  -0.55756  -0.55357
 Alpha  occ. eigenvalues --   -0.55108  -0.54988  -0.54618  -0.54451  -0.54267
 Alpha  occ. eigenvalues --   -0.54117  -0.53900  -0.53646  -0.52915  -0.52721
 Alpha  occ. eigenvalues --   -0.52645  -0.52634  -0.52364  -0.52184  -0.51990
 Alpha  occ. eigenvalues --   -0.51935  -0.51624  -0.51607  -0.51324  -0.51119
 Alpha  occ. eigenvalues --   -0.50982  -0.50858  -0.50528  -0.50481  -0.50284
 Alpha  occ. eigenvalues --   -0.50176  -0.49787  -0.49661  -0.49641  -0.49561
 Alpha  occ. eigenvalues --   -0.49470  -0.49279  -0.49141  -0.48830  -0.48815
 Alpha  occ. eigenvalues --   -0.48572  -0.48393  -0.48306  -0.48179  -0.47955
 Alpha  occ. eigenvalues --   -0.47798  -0.47748  -0.47735  -0.47261  -0.47040
 Alpha  occ. eigenvalues --   -0.46925  -0.46741  -0.46510  -0.46325  -0.46281
 Alpha  occ. eigenvalues --   -0.46217  -0.45879  -0.45739  -0.45730  -0.45433
 Alpha  occ. eigenvalues --   -0.45395  -0.45286  -0.45162  -0.45128  -0.45027
 Alpha  occ. eigenvalues --   -0.44999  -0.44985  -0.44831  -0.44704  -0.44699
 Alpha  occ. eigenvalues --   -0.44655  -0.43966  -0.43936  -0.43799  -0.43462
 Alpha  occ. eigenvalues --   -0.43428  -0.43229  -0.43171  -0.43118  -0.42757
 Alpha  occ. eigenvalues --   -0.42745  -0.42536  -0.42488  -0.42140  -0.42058
 Alpha  occ. eigenvalues --   -0.41971  -0.41802  -0.41718  -0.41692  -0.41605
 Alpha  occ. eigenvalues --   -0.41231  -0.41103  -0.40934  -0.40763  -0.40467
 Alpha  occ. eigenvalues --   -0.40460  -0.40001  -0.39326  -0.39113  -0.38775
 Alpha  occ. eigenvalues --   -0.38518  -0.38088  -0.37985  -0.37739  -0.37441
 Alpha  occ. eigenvalues --   -0.36996  -0.36904  -0.36568  -0.36528  -0.36328
 Alpha  occ. eigenvalues --   -0.35720  -0.35665  -0.35163  -0.34808  -0.34625
 Alpha  occ. eigenvalues --   -0.33923  -0.33328  -0.32578  -0.31299  -0.31281
 Alpha  occ. eigenvalues --   -0.31212  -0.30822  -0.30818  -0.30555  -0.30096
 Alpha  occ. eigenvalues --   -0.29966  -0.29727  -0.29664  -0.24105  -0.23575
 Alpha  occ. eigenvalues --   -0.21223  -0.20947
 Alpha virt. eigenvalues --   -0.08674  -0.08519  -0.02255  -0.01116   0.00623
 Alpha virt. eigenvalues --    0.00894   0.01706   0.02480   0.02519   0.02689
 Alpha virt. eigenvalues --    0.04076   0.04941   0.04959   0.05865   0.05941

 Mulliken charges:
               1
     1  Mg   0.840124
     2  C   -0.023592
     3  C   -0.059923
     4  C   -0.059503
     5  C   -0.088242
     6  N   -0.312888
     7  C   -0.052863
     8  C    0.013315
     9  C   -0.070188
    10  C    0.084878
    11  C    0.032877
    12  C    0.022255
    13  C   -0.067089
    14  H    0.013099
    15  N   -0.403465
    16  C    0.093539
    17  C   -0.114443
    18  C   -0.089674
    19  C    0.139403
    20  C    0.129805
    21  C   -0.007892
    22  O   -0.175146
    23  C    0.037063
    24  N   -0.268500
    25  C    0.008192
    26  C    0.022474
    27  C   -0.064393
    28  C   -0.003235
    29  C    0.067818
    30  C    0.012975
    31  C    0.024880
    32  N   -0.316130
    33  C    0.150948
    34  C   -0.226513
    35  C    0.063328
    36  C    0.099512
    37  C    0.138224
    38  C    0.034451
    39  O   -0.135688
    40  C   -0.039685
    41  C    0.217473
    42  O   -0.203430
    43  O   -0.356818
    44  C    0.167138
    45  H   -0.052231
    46  H   -0.001827
    47  H   -0.022099
    48  H    0.024649
    49  H    0.022142
    50  H    0.009515
    51  H    0.028680
    52  H    0.021731
    53  H    0.009456
    54  H    0.037186
    55  H    0.040121
    56  H    0.040352
    57  H    0.035125
    58  H    0.015713
    59  H    0.025396
    60  H    0.055356
    61  H    0.027319
    62  H    0.014935
    63  H    0.011975
    64  H    0.007775
    65  H    0.012399
    66  H    0.017598
    67  H    0.029870
    68  H    0.004780
    69  H    0.008093
    70  H    0.011334
    71  H    0.020295
    72  H    0.015888
    73  H    0.034528
    74  H    0.007383
    75  H    0.021757
    76  H    0.051815
    77  H    0.045608
    78  H    0.055969
    79  H    0.036947
    80  Mg   0.819830
    81  C   -0.024962
    82  C   -0.097594
    83  C   -0.086983
    84  C   -0.094182
    85  N   -0.283855
    86  C   -0.030051
    87  C   -0.040828
    88  C    0.001985
    89  C    0.000853
    90  C    0.064169
    91  C    0.029220
    92  C   -0.076370
    93  H    0.023192
    94  N   -0.359624
    95  C    0.167017
    96  C   -0.136595
    97  C   -0.064257
    98  C    0.184922
    99  C    0.126747
   100  C    0.000345
   101  O   -0.204505
   102  C    0.054782
   103  N   -0.295319
   104  C   -0.001587
   105  C   -0.033994
   106  C   -0.063450
   107  C    0.012395
   108  C    0.107191
   109  C    0.036505
   110  C    0.030424
   111  N   -0.342679
   112  C    0.151460
   113  C   -0.189594
   114  C   -0.004856
   115  C    0.088716
   116  C    0.130650
   117  C    0.030282
   118  O   -0.149199
   119  C    0.028488
   120  C    0.222592
   121  O   -0.208341
   122  O   -0.379721
   123  C    0.180155
   124  H   -0.029633
   125  H   -0.042304
   126  H   -0.043970
   127  H    0.010499
   128  H    0.006344
   129  H    0.011228
   130  H    0.026805
   131  H    0.022155
   132  H    0.028645
   133  H    0.010448
   134  H    0.047615
   135  H    0.030605
   136  H    0.035841
   137  H    0.016227
   138  H    0.041146
   139  H    0.048736
   140  H    0.044986
   141  H    0.024334
   142  H    0.004679
   143  H    0.008069
   144  H    0.019797
   145  H    0.014493
   146  H    0.025110
   147  H    0.015646
   148  H    0.007067
   149  H    0.005816
   150  H    0.014917
   151  H    0.023376
   152  H   -0.003577
   153  H    0.043712
   154  H    0.053183
   155  H    0.038597
   156  H    0.018961
   157  H    0.058635
   158  H    0.038440
 Sum of Mulliken charges =  -0.00000

 Dipole moment (field-independent basis, Debye):
    X=             -4.7472    Y=             -1.4908    Z=              2.7171  Tot=              5.6693
 Quadrupole moment (field-independent basis, Debye-Ang):
   XX=           -272.3359   YY=           -567.6717   ZZ=           -484.0453
   XY=           -125.2353   XZ=            -39.3560   YZ=            -28.1851

 Normal termination of Gaussian 16 at Wed Sep 15 08:06:25 2021.
