 Gaussian 16, Revision A.03,
 Gaussian 16:  ES64L-G16RevA.03 25-Dec-2016

 ----------------------------------------------------------
 #p cam-b3lyp/Def2SVP td=(nstates=5) density=(transition=1)
 ----------------------------------------------------------

 --------------------------------
 TDDFT excited states in gaussian
 --------------------------------
 Symbolic Z-matrix:
 Charge =  0 Multiplicity = 1

                         Standard orientation:
 ---------------------------------------------------------------------
 Center     Atomic      Atomic             Coordinates (Angstroms)
 Number     Number       Type             X           Y           Z
 ---------------------------------------------------------------------
      1         12           0       20.331123   -0.709809    0.267959
      2          6           0       19.625884    2.114816   -1.671057
      3          6           0       21.529473    1.198222    2.653984
      4          6           0       21.673909   -3.495987    1.763933
      5          6           0       19.522027   -2.758959   -2.491002
      6          7           0       20.435008    1.386368    0.459212
      7          6           0       20.047974    2.399813   -0.389820
      8          6           0       20.128525    3.763581    0.283872
      9          6           0       20.951093    3.428704    1.569319
     10          6           0       20.884009    1.942203    1.625811
     11          6           0       22.333945    4.017092    1.748304
     12          6           0       18.751897    4.464845    0.514879
     13          6           0       18.826326    5.849574    1.167378
     14          1           0       18.086190    6.967414    0.447567
     15          7           0       21.559501   -1.099522    2.031657
     16          6           0       21.813959   -0.153766    2.959835
     17          6           0       22.438776   -0.766011    4.099449
     18          6           0       22.586488   -2.131962    3.803004
     19          6           0       21.934966   -2.284801    2.473712
     20          6           0       22.891309   -0.001783    5.325720
     21          6           0       23.146382   -3.236685    4.637910
     22          8           0       23.379435   -4.414567    4.255630
     23          6           0       23.450541   -3.002029    6.112494
     24          7           0       20.581504   -2.777497   -0.294652
     25          6           0       21.223781   -3.691077    0.469872
     26          6           0       21.016028   -5.171010   -0.162553
     27          6           0       19.926792   -4.904636   -1.260095
     28          6           0       19.928688   -3.411711   -1.339723
     29          6           0       22.402114   -5.698830   -0.703389
     30          6           0       18.502129   -5.330522   -0.748750
     31          6           0       18.006250   -4.812223    0.592230
     32          7           0       19.623920   -0.426189   -1.735531
     33          6           0       19.355106   -1.371447   -2.687004
     34          6           0       18.913727   -0.696093   -3.817649
     35          6           0       18.995651    0.700990   -3.551262
     36          6           0       19.438363    0.816353   -2.259787
     37          6           0       18.531945   -1.245060   -5.147012
     38          6           0       18.823253    2.080308   -4.060915
     39          8           0       18.509360    2.544552   -5.151006
     40          6           0       19.137693    3.055732   -2.798299
     41          6           0       20.023272    4.176466   -3.212406
     42          8           0       20.955235    4.084952   -4.065641
     43          8           0       19.536302    5.278181   -2.657540
     44          6           0       19.969026    6.504679   -3.299511
     45          1           0       21.835518    1.781592    3.525025
     46          1           0       22.063627   -4.397515    2.242634
     47          1           0       19.159375   -3.426768   -3.273971
     48          1           0       20.624056    4.392955   -0.455586
     49          1           0       20.449746    3.737823    2.487131
     50          1           0       22.576121    4.895855    1.150652
     51          1           0       23.076970    3.237408    1.578515
     52          1           0       22.489457    4.137678    2.820577
     53          1           0       18.101582    3.811529    1.097143
     54          1           0       18.243949    4.571206   -0.443093
     55          1           0       19.799642    6.312390    1.005381
     56          1           0       18.572941    5.802801    2.226897
     57          1           0       22.824915    1.082757    5.240127
     58          1           0       23.954653   -0.061543    5.556443
     59          1           0       22.354985   -0.280413    6.233337
     60          1           0       24.300771   -2.323240    6.173189
     61          1           0       23.903254   -3.876234    6.579830
     62          1           0       22.573601   -2.712204    6.692485
     63          1           0       20.700294   -5.861035    0.619944
     64          1           0       20.326739   -5.359391   -2.166350
     65          1           0       23.255811   -5.119604   -0.351100
     66          1           0       22.491707   -5.684883   -1.789734
     67          1           0       22.645496   -6.706097   -0.368403
     68          1           0       18.647137   -6.410725   -0.730315
     69          1           0       17.688620   -5.125109   -1.443874
     70          1           0       18.826005   -4.348689    1.141502
     71          1           0       17.452520   -5.517886    1.210569
     72          1           0       17.233478   -4.103544    0.294306
     73          1           0       17.761654   -2.015804   -5.110450
     74          1           0       19.437823   -1.717796   -5.525392
     75          1           0       18.237870   -0.468280   -5.852123
     76          1           0       18.162207    3.472487   -2.548942
     77          1           0       19.125786    7.188450   -3.404720
     78          1           0       20.371115    6.406624   -4.307598
     79          1           0       20.706378    6.947132   -2.628904
     80         12           0      -20.861291   -0.437392   -0.312551
     81          6           0      -18.809179    2.323909    0.171729
     82          6           0      -23.440161    1.388012    1.025536
     83          6           0      -22.849288   -3.249885   -0.542008
     84          6           0      -18.101348   -2.404329   -1.127690
     85          7           0      -21.093590    1.649055    0.407165
     86          6           0      -20.175957    2.630935    0.416744
     87          6           0      -20.723899    4.028565    0.788250
     88          6           0      -22.182067    3.655059    1.296293
     89          6           0      -22.271182    2.095609    0.933721
     90          6           0      -22.294453    3.995127    2.825244
     91          6           0      -20.688400    4.922814   -0.555367
     92          6           0      -19.948024    6.289472   -0.462152
     93          1           0      -19.792305    6.834585    1.003572
     94          7           0      -22.831305   -0.937966    0.221415
     95          6           0      -23.763781    0.010884    0.689253
     96          6           0      -25.080132   -0.590882    0.684453
     97          6           0      -24.931403   -1.926783    0.290792
     98          6           0      -23.487095   -2.088862   -0.118202
     99          6           0      -26.275468    0.104673    1.351199
    100          6           0      -26.019222   -3.031527    0.226869
    101          8           0      -25.827178   -4.206230   -0.138914
    102          6           0      -27.468475   -2.643246    0.566776
    103          7           0      -20.457990   -2.535561   -0.699867
    104          6           0      -21.523726   -3.482146   -0.788228
    105          6           0      -20.961452   -4.907142   -0.972757
    106          6           0      -19.468988   -4.572597   -1.441381
    107          6           0      -19.339261   -3.062314   -1.111801
    108          6           0      -21.142955   -5.694519    0.314422
    109          6           0      -19.278051   -4.821879   -2.996840
    110          6           0      -20.186106   -4.227185   -4.126603
    111          7           0      -18.872459   -0.176020   -0.385483
    112          6           0      -17.839242   -1.058214   -0.716126
    113          6           0      -16.596325   -0.359089   -0.665921
    114          6           0      -16.914505    0.954613   -0.372298
    115          6           0      -18.303759    1.020094   -0.102067
    116          6           0      -15.206705   -0.937870   -0.837195
    117          6           0      -16.363725    2.238012   -0.184795
    118          8           0      -15.210750    2.531142   -0.170346
    119          6           0      -17.567347    3.151542    0.292917
    120          6           0      -17.265753    3.522431    1.718634
    121          8           0      -17.835644    3.047137    2.678537
    122          8           0      -16.263633    4.409204    1.698452
    123          6           0      -15.579307    4.512531    2.964014
    124          1           0      -24.286024    1.983992    1.373814
    125          1           0      -23.425259   -4.162452   -0.378907
    126          1           0      -17.224795   -3.009728   -1.369862
    127          1           0      -20.148226    4.566788    1.541012
    128          1           0      -22.994060    4.148100    0.761308
    129          1           0      -22.793380    3.238954    3.431824
    130          1           0      -22.879057    4.911214    2.745732
    131          1           0      -21.295338    4.276208    3.157353
    132          1           0      -21.714141    4.999776   -0.915358
    133          1           0      -20.184347    4.322836   -1.313430
    134          1           0      -20.604039    6.918848   -1.062532
    135          1           0      -18.954774    6.306776   -0.909790
    136          1           0      -26.663971   -0.582014    2.103706
    137          1           0      -27.073285    0.231575    0.618197
    138          1           0      -25.961514    1.059518    1.771730
    139          1           0      -27.509880   -2.499871    1.647305
    140          1           0      -28.063176   -3.534655    0.367927
    141          1           0      -27.815154   -1.881996   -0.131661
    142          1           0      -21.492863   -5.301101   -1.839561
    143          1           0      -18.770548   -5.263370   -0.970414
    144          1           0      -22.002546   -5.366883    0.899339
    145          1           0      -20.256672   -5.611101    0.943009
    146          1           0      -21.350699   -6.742655    0.100108
    147          1           0      -19.214079   -5.898987   -3.151580
    148          1           0      -18.320801   -4.339486   -3.194665
    149          1           0      -21.017605   -4.912610   -4.291236
    150          1           0      -19.549331   -4.177973   -5.010667
    151          1           0      -20.505344   -3.193145   -3.992546
    152          1           0      -15.070113   -1.401478   -1.814352
    153          1           0      -15.148784   -1.703007   -0.063311
    154          1           0      -14.391948   -0.212820   -0.860498
    155          1           0      -17.728712    4.094339   -0.230074
    156          1           0      -14.522709    4.764362    2.876083
    157          1           0      -15.699932    3.760283    3.743421
    158          1           0      -15.939040    5.332994    3.585304
 ---------------------------------------------------------------------

 SCF Done:  E(RCAM-B3LYP) =  -4069.82414534     A.U. after   19 cycles

 Excitation energies and oscillator strengths:

 Excited State   1:      Singlet-A      1.7042 eV  727.51 nm  f=0.4017  <S**2>=0.000
     310 -> 315       -0.17553
     312 -> 314        0.68562
     310 <- 315       -0.10640
 This state for optimization and/or second-order correction.
 Total Energy, E(TD-HF/TD-DFT) =  -4069.76151646
 Copying the excited state density for this state as the 1-particle RhoCI density.

 Excited State   2:      Singlet-A      1.7144 eV  723.17 nm  f=0.3812  <S**2>=0.000
     309 -> 316        0.16576
     311 -> 313        0.68819
     309 <- 316        0.10297

 Excited State   3:      Singlet-A      2.1453 eV  577.93 nm  f=0.1684  <S**2>=0.000
     309 -> 313        0.66339
     311 -> 316       -0.22678

 Excited State   4:      Singlet-A      2.2267 eV  556.81 nm  f=0.1274  <S**2>=0.000
     310 -> 314        0.64629
     312 -> 315        0.27557

 Excited State   5:      Singlet-A      2.9315 eV  422.93 nm  f=0.0000  <S**2>=0.000
     312 -> 313        0.70710

 The electronic state is 1-A.
 Alpha  occ. eigenvalues --  -46.89388 -46.88076 -19.26669 -19.26154 -19.20066
 Alpha  occ. eigenvalues --  -19.19359 -19.19118 -19.19057 -19.18610 -19.18460
 Alpha  occ. eigenvalues --  -14.42910 -14.42241 -14.41832 -14.41431 -14.39771
 Alpha  occ. eigenvalues --  -14.39553 -14.39056 -14.38032 -10.39325 -10.39246
 Alpha  occ. eigenvalues --  -10.35765 -10.35118 -10.34833 -10.34826 -10.32127
 Alpha  occ. eigenvalues --  -10.32027 -10.31597 -10.31357 -10.31098 -10.31023
 Alpha  occ. eigenvalues --  -10.30790 -10.30663 -10.30635 -10.30346 -10.30153
 Alpha  occ. eigenvalues --  -10.30104 -10.29897 -10.29825 -10.29772 -10.29659
 Alpha  occ. eigenvalues --  -10.29634 -10.29260 -10.28881 -10.28532 -10.28517
 Alpha  occ. eigenvalues --  -10.28396 -10.28320 -10.28312 -10.28257 -10.28226
 Alpha  occ. eigenvalues --  -10.28180 -10.28140 -10.28136 -10.27890 -10.27872
 Alpha  occ. eigenvalues --  -10.27851 -10.27797 -10.27772 -10.27711 -10.27662
 Alpha  occ. eigenvalues --  -10.27658 -10.27592 -10.27078 -10.27063 -10.27007
 Alpha  occ. eigenvalues --  -10.26729 -10.26711 -10.26683 -10.26525 -10.26509
 Alpha  occ. eigenvalues --  -10.26493 -10.26487 -10.26480 -10.26252 -10.26154
 Alpha  occ. eigenvalues --  -10.26134 -10.25814 -10.25784 -10.25675 -10.25603
 Alpha  occ. eigenvalues --  -10.25425 -10.25256 -10.25200 -10.24894 -10.24679
 Alpha  occ. eigenvalues --  -10.24281  -3.17776  -3.16678  -1.92685  -1.92202
 Alpha  occ. eigenvalues --   -1.92091  -1.91578  -1.91111  -1.91000  -1.18160
 Alpha  occ. eigenvalues --   -1.18105  -1.12014  -1.09083  -1.08803  -1.08379
 Alpha  occ. eigenvalues --   -1.08329  -1.05929  -1.05420  -1.04370  -1.04151
 Alpha  occ. eigenvalues --   -1.03346  -1.03316  -1.02706  -1.02467  -1.01160
 Alpha  occ. eigenvalues --   -0.92797  -0.91863  -0.89607  -0.89292  -0.88531
 Alpha  occ. eigenvalues --   -0.88413  -0.88129  -0.87995  -0.87751  -0.87147
 Alpha  occ. eigenvalues --   -0.87075  -0.86495  -0.86014  -0.85689  -0.84812
 Alpha  occ. eigenvalues --   -0.83930  -0.83771  -0.83396  -0.82918  -0.82282
 Alpha  occ. eigenvalues --   -0.81866  -0.81344  -0.81197  -0.80905  -0.80679
 Alpha  occ. eigenvalues --   -0.79933  -0.78891  -0.77711  -0.77594  -0.77366
 Alpha  occ. eigenvalues --   -0.77106  -0.76732  -0.76133  -0.75857  -0.75243
 Alpha  occ. eigenvalues --   -0.74955  -0.72956  -0.72758  -0.71757  -0.71179
 Alpha  occ. eigenvalues --   -0.69918  -0.69189  -0.68887  -0.68643  -0.68359
 Alpha  occ. eigenvalues --   -0.67969  -0.67692  -0.66366  -0.65851  -0.65540
 Alpha  occ. eigenvalues --   -0.65210  -0.64686  -0.64571  -0.64546  -0.64475
 Alpha  occ. eigenvalues --   -0.63935  -0.62748  -0.62383  -0.61026  -0.59996
 Alpha  occ. eigenvalues --   -0.59787  -0.59399  -0.59257  -0.58957  -0.58542
 Alpha  occ. eigenvalues --   -0.58417  -0.57996  -0.57620  -0.57251  -0.57236
 Alpha  occ. eigenvalues --   -0.56263  -0.56217  -0.56043  -0.55809  -0.55678
 Alpha  occ. eigenvalues --   -0.55472  -0.55327  -0.54902  -0.54405  -0.54383
 Alpha  occ. eigenvalues --   -0.53965  -0.53366  -0.53283  -0.53148  -0.53121
 Alpha  occ. eigenvalues --   -0.52936  -0.52585  -0.52544  -0.52205  -0.51989
 Alpha  occ. eigenvalues --   -0.51854  -0.51732  -0.51726  -0.51584  -0.50986
 Alpha  occ. eigenvalues --   -0.50952  -0.50613  -0.50573  -0.50459  -0.50121
 Alpha  occ. eigenvalues --   -0.49903  -0.49810  -0.49534  -0.49507  -0.49162
 Alpha  occ. eigenvalues --   -0.49116  -0.48863  -0.48840  -0.48591  -0.48588
 Alpha  occ. eigenvalues --   -0.48498  -0.48367  -0.48327  -0.48112  -0.47943
 Alpha  occ. eigenvalues --   -0.47734  -0.47475  -0.47249  -0.47209  -0.47129
 Alpha  occ. eigenvalues --   -0.46773  -0.46651  -0.46503  -0.46393  -0.46264
 Alpha  occ. eigenvalues --   -0.46167  -0.45970  -0.45864  -0.45722  -0.45571
 Alpha  occ. eigenvalues --   -0.45451  -0.45189  -0.45180  -0.44931  -0.44741
 Alpha  occ. eigenvalues --   -0.44629  -0.44546  -0.44464  -0.44322  -0.44291
 Alpha  occ. eigenvalues --   -0.43869  -0.43752  -0.43734  -0.43599  -0.43427
 Alpha  occ. eigenvalues --   -0.43409  -0.43215  -0.43050  -0.43010  -0.42886
 Alpha  occ. eigenvalues --   -0.42649  -0.42593  -0.42377  -0.42363  -0.42082
 Alpha  occ. eigenvalues --   -0.41921  -0.41777  -0.41745  -0.41447  -0.41313
 Alpha  occ. eigenvalues --   -0.41244  -0.40875  -0.40802  -0.40672  -0.40507
 Alpha  occ. eigenvalues --   -0.40273  -0.39618  -0.39557  -0.39260  -0.39145
 Alpha  occ. eigenvalues --   -0.38679  -0.37906  -0.37676  -0.37456  -0.37316
 Alpha  occ. eigenvalues --   -0.37091  -0.37060  -0.36928  -0.36585  -0.36460
 Alpha  occ. eigenvalues --   -0.36307  -0.36112  -0.34801  -0.34090  -0.34088
 Alpha  occ. eigenvalues --   -0.33960  -0.32914  -0.32661  -0.31959  -0.31642
 Alpha  occ. eigenvalues --   -0.31163  -0.30957  -0.30800  -0.30440  -0.30265
 Alpha  occ. eigenvalues --   -0.30112  -0.29581  -0.28517  -0.24077  -0.23763
 Alpha  occ. eigenvalues --   -0.21781  -0.20972
 Alpha virt. eigenvalues --   -0.09381  -0.08545  -0.01336  -0.01298  -0.00038
 Alpha virt. eigenvalues --    0.00564   0.01787   0.02485   0.02493   0.02567
 Alpha virt. eigenvalues --    0.04434   0.04536   0.04648   0.05672   0.06130

 Mulliken charges:
               1
     1  Mg  12.000360
     2  C    5.998655
     3  C    6.000542
     4  C    6.001364
     5  C    5.999731
     6  N    6.999107
     7  C    6.001985
     8  C    5.999487
     9  C    6.000486
    10  C    5.998158
    11  C    6.000104
    12  C    5.999836
    13  C    6.000124
    14  H    0.999929
    15  N    7.000529
    16  C    5.997884
    17  C    5.999197
    18  C    5.998994
    19  C    5.998179
    20  C    6.000312
    21  C    5.999458
    22  O    7.998285
    23  C    6.000338
    24  N    7.000366
    25  C    5.998422
    26  C    6.000244
    27  C    5.999372
    28  C    6.001511
    29  C    6.000133
    30  C    5.999463
    31  C    5.999846
    32  N    6.999720
    33  C    6.001803
    34  C    6.001536
    35  C    5.999952
    36  C    6.001967
    37  C    5.999910
    38  C    6.000700
    39  O    8.001346
    40  C    6.000326
    41  C    6.000285
    42  O    8.000019
    43  O    8.000135
    44  C    5.999894
    45  H    0.999470
    46  H    0.999877
    47  H    1.000760
    48  H    0.999864
    49  H    0.999879
    50  H    0.999200
    51  H    0.999967
    52  H    1.000014
    53  H    1.000381
    54  H    0.999676
    55  H    1.000086
    56  H    1.000300
    57  H    0.999089
    58  H    0.998947
    59  H    0.999023
    60  H    0.999574
    61  H    0.999177
    62  H    0.999580
    63  H    1.000087
    64  H    1.000121
    65  H    1.000274
    66  H    0.999422
    67  H    0.999947
    68  H    1.000576
    69  H    0.999957
    70  H    1.000777
    71  H    1.000327
    72  H    0.999825
    73  H    1.001151
    74  H    1.001015
    75  H    1.000841
    76  H    1.000320
    77  H    1.000216
    78  H    1.000007
    79  H    1.000280
    80  Mg  11.997241
    81  C    6.022920
    82  C    5.982177
    83  C    5.973798
    84  C    6.002666
    85  N    7.006593
    86  C    5.967792
    87  C    6.010108
    88  C    5.991006
    89  C    6.030234
    90  C    5.996229
    91  C    6.004410
    92  C    6.002369
    93  H    0.995611
    94  N    6.991671
    95  C    6.051911
    96  C    6.015236
    97  C    6.017707
    98  C    6.044762
    99  C    5.996605
   100  C    6.012967
   101  O    8.030561
   102  C    5.993695
   103  N    6.989844
   104  C    6.036074
   105  C    5.991047
   106  C    6.011263
   107  C    5.975191
   108  C    5.995469
   109  C    6.007244
   110  C    5.995828
   111  N    7.008039
   112  C    5.962954
   113  C    5.969163
   114  C    5.999750
   115  C    5.962988
   116  C    6.000642
   117  C    5.983325
   118  O    7.971394
   119  C    5.998015
   120  C    5.998230
   121  O    7.990472
   122  O    8.000913
   123  C    6.005489
   124  H    1.011267
   125  H    1.004044
   126  H    0.987460
   127  H    0.999343
   128  H    1.000129
   129  H    0.995969
   130  H    1.005025
   131  H    1.013645
   132  H    0.987382
   133  H    1.004136
   134  H    0.995474
   135  H    1.003571
   136  H    1.017029
   137  H    1.018937
   138  H    1.018469
   139  H    1.008566
   140  H    1.015547
   141  H    1.007643
   142  H    0.998912
   143  H    0.996163
   144  H    0.991398
   145  H    1.012415
   146  H    1.005126
   147  H    0.990233
   148  H    1.006241
   149  H    0.991267
   150  H    1.001237
   151  H    0.998249
   152  H    0.979824
   153  H    0.982772
   154  H    0.985477
   155  H    0.989008
   156  H    0.997219
   157  H    0.996916
   158  H    0.992300
 Sum of Mulliken charges = 624.00000

 Dipole moment (field-independent basis, Debye):
    X=            -10.9520    Y=             -1.7770    Z=              1.1032  Tot=             11.1500
 Quadrupole moment (field-independent basis, Debye-Ang):
   XX=            437.7408   YY=             -0.2300   ZZ=             -1.1233
   XY=             45.3708   XZ=            -44.8968   YZ=             -1.5394

 Normal termination of Gaussian 16 at Wed Sep 22 05:08:59 2021.
