 Gaussian 16, Revision A.03,
 Gaussian 16:  ES64L-G16RevA.03 25-Dec-2016

 -----------------------------------
 #p cam-b3lyp/Def2SVP td=(nstates=5)
 -----------------------------------

 --------------------------------
 TDDFT excited states in gaussian
 --------------------------------
 Symbolic Z-matrix:
 Charge =  0 Multiplicity = 1

                         Standard orientation:
 ---------------------------------------------------------------------
 Center     Atomic      Atomic             Coordinates (Angstroms)
 Number     Number       Type             X           Y           Z
 ---------------------------------------------------------------------
      1         12           0       -9.037059   -1.203552    0.386645
      2          6           0      -10.433839    1.969224   -0.077506
      3          6           0       -7.936551   -0.051510    3.468800
      4          6           0       -7.375354   -3.985670    0.650893
      5          6           0      -10.083039   -2.038299   -2.892501
      6          7           0       -8.827072    0.910664    1.414680
      7          6           0       -9.606795    1.948726    1.095491
      8          6           0       -9.445529    2.982276    2.159643
      9          6           0       -8.291357    2.464439    3.052561
     10          6           0       -8.347702    0.999878    2.665658
     11          6           0       -6.893731    3.071906    2.919944
     12          6           0      -10.761356    3.191222    2.974383
     13          6           0      -11.288469    4.644639    3.203102
     14          1           0      -10.266499    5.821639    3.278246
     15          7           0       -7.918206   -1.996074    1.956306
     16          6           0       -7.762872   -1.404344    3.202856
     17          6           0       -7.056542   -2.343293    4.012208
     18          6           0       -6.750172   -3.485857    3.169458
     19          6           0       -7.347286   -3.221178    1.868964
     20          6           0       -6.602178   -2.082862    5.465077
     21          6           0       -5.901169   -4.752484    3.478287
     22          8           0       -5.693526   -5.630452    2.702096
     23          6           0       -5.373751   -4.868655    4.894874
     24          7           0       -8.802778   -2.760157   -0.944074
     25          6           0       -7.995041   -3.792684   -0.614182
     26          6           0       -7.890482   -4.887062   -1.711897
     27          6           0       -8.989900   -4.357220   -2.729478
     28          6           0       -9.356860   -2.985274   -2.176356
     29          6           0       -6.362580   -4.981179   -2.289208
     30          6           0      -10.161734   -5.360751   -2.967248
     31          6           0      -11.447273   -5.148627   -2.187926
     32          7           0      -10.094929   -0.292450   -1.219044
     33          6           0      -10.510971   -0.780932   -2.428114
     34          6           0      -11.305973    0.294464   -3.118634
     35          6           0      -11.289286    1.379597   -2.213416
     36          6           0      -10.504654    1.011905   -1.070541
     37          6           0      -11.828541    0.292202   -4.529561
     38          6           0      -11.738682    2.752240   -1.994430
     39          8           0      -12.405091    3.462996   -2.752255
     40          6           0      -11.338114    3.092884   -0.562103
     41          6           0      -10.631112    4.415578   -0.641454
     42          8           0       -9.482598    4.575991   -1.011854
     43          8           0      -11.558102    5.333153   -0.420602
     44          6           0      -11.282932    6.701509   -0.829768
     45          1           0       -7.467451    0.346955    4.370293
     46          1           0       -6.979409   -4.993762    0.788033
     47          1           0      -10.418081   -2.302642   -3.897959
     48          1           0       -9.194854    3.931182    1.686533
     49          1           0       -8.584632    2.686374    4.078721
     50          1           0       -6.788071    3.894314    2.212203
     51          1           0       -6.173225    2.302189    2.641938
     52          1           0       -6.631341    3.439019    3.911908
     53          1           0      -10.769759    2.666241    3.929365
     54          1           0      -11.450182    2.649352    2.326459
     55          1           0      -11.805630    4.576164    4.160990
     56          1           0      -12.007759    4.879622    2.418975
     57          1           0       -5.537710   -2.257896    5.621500
     58          1           0       -7.045803   -2.786350    6.169806
     59          1           0       -6.842134   -1.087805    5.842081
     60          1           0       -6.150538   -4.733667    5.647808
     61          1           0       -4.551942   -4.161116    5.005664
     62          1           0       -4.848752   -5.814705    5.026904
     63          1           0       -8.154647   -5.877464   -1.341598
     64          1           0       -8.606841   -4.226189   -3.741406
     65          1           0       -6.427100   -4.553924   -3.289994
     66          1           0       -6.030624   -6.002799   -2.475462
     67          1           0       -5.644441   -4.361310   -1.751234
     68          1           0       -9.776991   -6.303404   -2.577794
     69          1           0      -10.388947   -5.495021   -4.024617
     70          1           0      -11.106509   -4.918726   -1.177673
     71          1           0      -11.915630   -6.127862   -2.284337
     72          1           0      -12.113299   -4.318905   -2.423325
     73          1           0      -11.567016   -0.540056   -5.183124
     74          1           0      -11.475130    1.186621   -5.042802
     75          1           0      -12.906092    0.419569   -4.430716
     76          1           0      -12.170509    3.325832    0.102233
     77          1           0      -10.377769    6.932781   -1.390367
     78          1           0      -11.155244    7.211515    0.125551
     79          1           0      -12.232906    7.182595   -1.062918
     80         12           0        9.398200   -0.513196   -0.122099
     81          6           0        7.811106    2.836071   -0.399698
     82          6           0       12.131226    1.226115    0.841893
     83          6           0       10.729769   -3.388704   -0.199568
     84          6           0        6.587118   -1.729834   -1.936355
     85          7           0        9.886475    1.755353    0.122353
     86          6           0        9.050362    2.858975    0.132576
     87          6           0        9.677439    4.129630    0.717584
     88          6           0       11.174842    3.694845    0.671846
     89          6           0       11.105533    2.124952    0.531694
     90          6           0       11.984438    4.310617   -0.425553
     91          6           0        9.148213    4.613668    2.109177
     92          6           0        9.167841    6.077596    2.397711
     93          1           0        9.507089    6.454374    3.836378
     94          7           0       11.223399   -1.057069    0.321224
     95          6           0       12.248579   -0.199966    0.773109
     96          6           0       13.351241   -1.019829    1.185210
     97          6           0       12.853602   -2.384681    1.017275
     98          6           0       11.589160   -2.290378    0.381570
     99          6           0       14.677737   -0.488047    1.843588
    100          6           0       13.577554   -3.626408    1.439560
    101          8           0       13.122656   -4.773459    1.209897
    102          6           0       14.852346   -3.605936    2.201193
    103          7           0        8.876793   -2.282400   -1.064478
    104          6           0        9.603387   -3.393992   -0.932673
    105          6           0        8.969243   -4.649972   -1.611966
    106          6           0        7.486159   -4.134835   -1.726254
    107          6           0        7.645805   -2.594013   -1.612619
    108          6           0        9.589469   -4.938929   -3.016823
    109          6           0        6.568135   -4.674664   -0.550446
    110          6           0        6.495071   -6.192436   -0.281325
    111          7           0        7.549351    0.329314   -0.960166
    112          6           0        6.505920   -0.330651   -1.599250
    113          6           0        5.491684    0.623171   -1.983003
    114          6           0        5.942527    1.858871   -1.501556
    115          6           0        7.241764    1.662817   -0.957934
    116          6           0        4.172698    0.323495   -2.612131
    117          6           0        5.593658    3.269209   -1.391393
    118          8           0        4.606767    3.926693   -1.694242
    119          6           0        6.826567    3.900907   -0.559353
    120          6           0        7.258855    5.059682   -1.321640
    121          8           0        7.727314    5.063254   -2.470906
    122          8           0        6.672679    6.162018   -0.768675
    123          6           0        6.880046    7.440814   -1.368793
    124          1           0       12.923025    1.834517    1.284286
    125          1           0       11.148607   -4.396043   -0.243441
    126          1           0        5.743315   -2.165114   -2.476494
    127          1           0        9.519747    4.927150   -0.008811
    128          1           0       11.644579    3.838580    1.644426
    129          1           0       12.153968    3.532245   -1.169555
    130          1           0       12.964696    4.594837   -0.043183
    131          1           0       11.556551    5.170268   -0.940944
    132          1           0        9.792987    4.163845    2.863639
    133          1           0        8.153487    4.189036    2.241806
    134          1           0        8.147645    6.392255    2.178881
    135          1           0        9.707310    6.646963    1.640688
    136          1           0       14.774820   -0.665035    2.914325
    137          1           0       14.840955    0.564574    1.613954
    138          1           0       15.428682   -1.052195    1.289095
    139          1           0       15.655895   -3.339623    1.514067
    140          1           0       14.987396   -4.622044    2.572849
    141          1           0       14.701094   -2.924241    3.037501
    142          1           0        9.138974   -5.477282   -0.922048
    143          1           0        6.985154   -4.343537   -2.671039
    144          1           0       10.138028   -5.876473   -2.922919
    145          1           0       10.208421   -4.146600   -3.436540
    146          1           0        8.693994   -5.095862   -3.619827
    147          1           0        5.535549   -4.403448   -0.768946
    148          1           0        6.847333   -4.103093    0.334507
    149          1           0        6.823127   -6.303915    0.752032
    150          1           0        7.244268   -6.615880   -0.950893
    151          1           0        5.487207   -6.591052   -0.396173
    152          1           0        4.064179   -0.756112   -2.505820
    153          1           0        4.270473    0.602980   -3.661106
    154          1           0        3.342008    0.895869   -2.199321
    155          1           0        6.483988    4.193870    0.432907
    156          1           0        7.547527    7.380867   -2.228713
    157          1           0        7.377721    8.034189   -0.601667
    158          1           0        5.934338    7.944098   -1.564794
 ---------------------------------------------------------------------

 SCF Done:  E(RCAM-B3LYP) =  -4069.80475830     A.U. after   18 cycles

 Excitation energies and oscillator strengths:

 Excited State   1:      Singlet-A      1.6590 eV  747.36 nm  f=0.4127  <S**2>=0.000
     309 -> 316       -0.15603
     311 -> 313        0.69142
     309 <- 316       -0.10427
 This state for optimization and/or second-order correction.
 Total Energy, E(TD-HF/TD-DFT) =  -4069.74379246
 Copying the excited state density for this state as the 1-particle RhoCI density.

 Excited State   2:      Singlet-A      1.7296 eV  716.85 nm  f=0.3772  <S**2>=0.000
     310 -> 315       -0.18701
     312 -> 314        0.68350
     310 <- 315       -0.10964

 Excited State   3:      Singlet-A      2.1782 eV  569.21 nm  f=0.1980  <S**2>=0.000
     309 -> 313        0.66690
     311 -> 316        0.21685

 Excited State   4:      Singlet-A      2.2140 eV  559.99 nm  f=0.1100  <S**2>=0.000
     310 -> 314        0.64187
     312 -> 315        0.28191

 Excited State   5:      Singlet-A      2.5992 eV  477.01 nm  f=0.0000  <S**2>=0.000
     312 -> 313        0.70700

 The electronic state is 1-A.
 Alpha  occ. eigenvalues --  -46.88835 -46.88762 -19.26206 -19.24755 -19.19823
 Alpha  occ. eigenvalues --  -19.19589 -19.19378 -19.19361 -19.18620 -19.17380
 Alpha  occ. eigenvalues --  -14.42245 -14.41755 -14.41564 -14.41370 -14.39644
 Alpha  occ. eigenvalues --  -14.39508 -14.39284 -14.38712 -10.39101 -10.39086
 Alpha  occ. eigenvalues --  -10.35910 -10.35428 -10.34492 -10.33938 -10.31999
 Alpha  occ. eigenvalues --  -10.31345 -10.31233 -10.31071 -10.31048 -10.30765
 Alpha  occ. eigenvalues --  -10.30740 -10.30678 -10.30633 -10.30614 -10.30386
 Alpha  occ. eigenvalues --  -10.30303 -10.29786 -10.29701 -10.29535 -10.29443
 Alpha  occ. eigenvalues --  -10.29353 -10.29227 -10.29014 -10.28994 -10.28946
 Alpha  occ. eigenvalues --  -10.28924 -10.28363 -10.28262 -10.28241 -10.28175
 Alpha  occ. eigenvalues --  -10.28050 -10.28047 -10.28043 -10.28027 -10.27964
 Alpha  occ. eigenvalues --  -10.27941 -10.27860 -10.27718 -10.27546 -10.27361
 Alpha  occ. eigenvalues --  -10.27321 -10.27109 -10.27080 -10.27011 -10.26965
 Alpha  occ. eigenvalues --  -10.26679 -10.26660 -10.26653 -10.26573 -10.26455
 Alpha  occ. eigenvalues --  -10.26327 -10.26302 -10.26283 -10.26097 -10.25943
 Alpha  occ. eigenvalues --  -10.25880 -10.25878 -10.25764 -10.25685 -10.25536
 Alpha  occ. eigenvalues --  -10.25526 -10.25490 -10.25476 -10.25321 -10.25217
 Alpha  occ. eigenvalues --  -10.25062  -3.17497  -3.17219  -1.92366  -1.92127
 Alpha  occ. eigenvalues --   -1.91949  -1.91819  -1.91709  -1.91479  -1.18282
 Alpha  occ. eigenvalues --   -1.16481  -1.11364  -1.10156  -1.09575  -1.08618
 Alpha  occ. eigenvalues --   -1.07413  -1.06963  -1.04982  -1.04852  -1.03974
 Alpha  occ. eigenvalues --   -1.03750  -1.03598  -1.02573  -1.02472  -1.01835
 Alpha  occ. eigenvalues --   -0.93643  -0.93319  -0.89507  -0.88728  -0.88700
 Alpha  occ. eigenvalues --   -0.88576  -0.87994  -0.87981  -0.87399  -0.87071
 Alpha  occ. eigenvalues --   -0.86772  -0.86207  -0.86179  -0.85510  -0.84694
 Alpha  occ. eigenvalues --   -0.84409  -0.83979  -0.83694  -0.83076  -0.82597
 Alpha  occ. eigenvalues --   -0.82012  -0.81381  -0.81005  -0.80799  -0.80769
 Alpha  occ. eigenvalues --   -0.80007  -0.78509  -0.77882  -0.77432  -0.77307
 Alpha  occ. eigenvalues --   -0.77221  -0.76976  -0.76283  -0.76169  -0.75383
 Alpha  occ. eigenvalues --   -0.75091  -0.73291  -0.72648  -0.71680  -0.70884
 Alpha  occ. eigenvalues --   -0.69510  -0.69227  -0.68862  -0.68586  -0.68119
 Alpha  occ. eigenvalues --   -0.68006  -0.66887  -0.66077  -0.65648  -0.65228
 Alpha  occ. eigenvalues --   -0.65066  -0.64947  -0.64844  -0.64619  -0.64416
 Alpha  occ. eigenvalues --   -0.64308  -0.62768  -0.61999  -0.60692  -0.59823
 Alpha  occ. eigenvalues --   -0.59719  -0.59629  -0.59467  -0.59176  -0.58805
 Alpha  occ. eigenvalues --   -0.58432  -0.58335  -0.58060  -0.57618  -0.57280
 Alpha  occ. eigenvalues --   -0.56836  -0.55973  -0.55849  -0.55572  -0.54930
 Alpha  occ. eigenvalues --   -0.54831  -0.54772  -0.54647  -0.54568  -0.54121
 Alpha  occ. eigenvalues --   -0.53646  -0.53558  -0.53217  -0.53176  -0.52903
 Alpha  occ. eigenvalues --   -0.52827  -0.52513  -0.52495  -0.52357  -0.52019
 Alpha  occ. eigenvalues --   -0.51697  -0.51681  -0.51366  -0.51305  -0.51215
 Alpha  occ. eigenvalues --   -0.51156  -0.51010  -0.50953  -0.50239  -0.50093
 Alpha  occ. eigenvalues --   -0.49855  -0.49783  -0.49660  -0.49660  -0.49429
 Alpha  occ. eigenvalues --   -0.49376  -0.49180  -0.49154  -0.48818  -0.48668
 Alpha  occ. eigenvalues --   -0.48635  -0.48342  -0.48275  -0.48095  -0.48080
 Alpha  occ. eigenvalues --   -0.47945  -0.47804  -0.47516  -0.47280  -0.47195
 Alpha  occ. eigenvalues --   -0.46871  -0.46478  -0.46388  -0.46314  -0.46122
 Alpha  occ. eigenvalues --   -0.45988  -0.45893  -0.45875  -0.45844  -0.45622
 Alpha  occ. eigenvalues --   -0.45557  -0.45341  -0.45313  -0.45059  -0.44966
 Alpha  occ. eigenvalues --   -0.44922  -0.44804  -0.44793  -0.44415  -0.44292
 Alpha  occ. eigenvalues --   -0.43890  -0.43720  -0.43643  -0.43302  -0.43246
 Alpha  occ. eigenvalues --   -0.43214  -0.43029  -0.43027  -0.42912  -0.42788
 Alpha  occ. eigenvalues --   -0.42680  -0.42622  -0.42146  -0.42055  -0.41955
 Alpha  occ. eigenvalues --   -0.41727  -0.41619  -0.41580  -0.41282  -0.41177
 Alpha  occ. eigenvalues --   -0.40985  -0.40698  -0.40616  -0.40583  -0.40235
 Alpha  occ. eigenvalues --   -0.39746  -0.39576  -0.39429  -0.39273  -0.39222
 Alpha  occ. eigenvalues --   -0.38506  -0.38374  -0.38193  -0.37703  -0.37129
 Alpha  occ. eigenvalues --   -0.37119  -0.37074  -0.36678  -0.36347  -0.36343
 Alpha  occ. eigenvalues --   -0.36183  -0.35771  -0.34554  -0.34347  -0.34257
 Alpha  occ. eigenvalues --   -0.34028  -0.33118  -0.33075  -0.31506  -0.31368
 Alpha  occ. eigenvalues --   -0.31331  -0.30749  -0.30373  -0.30075  -0.29888
 Alpha  occ. eigenvalues --   -0.29828  -0.29751  -0.28926  -0.24210  -0.23759
 Alpha  occ. eigenvalues --   -0.21667  -0.21041
 Alpha virt. eigenvalues --   -0.09596  -0.08452  -0.01486  -0.00716   0.00231
 Alpha virt. eigenvalues --    0.00353   0.01799   0.02312   0.02848   0.02901
 Alpha virt. eigenvalues --    0.03980   0.05009   0.05113   0.05646   0.05947

 Mulliken charges:
               1
     1  Mg   0.807380
     2  C    0.010191
     3  C   -0.042635
     4  C   -0.040394
     5  C   -0.078386
     6  N   -0.216995
     7  C   -0.013835
     8  C   -0.051649
     9  C   -0.035737
    10  C   -0.040967
    11  C    0.091844
    12  C    0.029485
    13  C   -0.055173
    14  H    0.020948
    15  N   -0.403132
    16  C    0.176068
    17  C   -0.142576
    18  C   -0.065209
    19  C    0.100929
    20  C    0.112312
    21  C    0.005992
    22  O   -0.163912
    23  C    0.039010
    24  N   -0.314231
    25  C    0.051196
    26  C   -0.056775
    27  C   -0.004318
    28  C    0.059470
    29  C    0.060101
    30  C    0.013094
    31  C    0.020714
    32  N   -0.344818
    33  C    0.108730
    34  C   -0.166435
    35  C    0.012442
    36  C    0.108882
    37  C    0.113948
    38  C    0.067968
    39  O   -0.178221
    40  C   -0.028148
    41  C    0.157561
    42  O   -0.218327
    43  O   -0.295504
    44  C    0.187403
    45  H   -0.031067
    46  H   -0.002117
    47  H   -0.034060
    48  H    0.016412
    49  H   -0.005454
    50  H    0.025165
    51  H    0.019873
    52  H    0.007925
    53  H    0.014460
    54  H    0.002715
    55  H    0.029550
    56  H    0.038910
    57  H    0.016146
    58  H    0.018398
    59  H    0.011149
    60  H    0.037339
    61  H    0.030584
    62  H    0.012670
    63  H    0.024657
    64  H    0.004453
    65  H   -0.001373
    66  H    0.023278
    67  H    0.037491
    68  H   -0.001930
    69  H    0.004087
    70  H    0.009627
    71  H    0.020877
    72  H    0.020016
    73  H    0.016247
    74  H    0.039252
    75  H    0.036278
    76  H    0.044822
    77  H    0.067721
    78  H    0.009482
    79  H    0.038122
    80  Mg   0.846746
    81  C    0.005285
    82  C   -0.055241
    83  C   -0.031275
    84  C   -0.072426
    85  N   -0.231534
    86  C   -0.075663
    87  C   -0.050063
    88  C   -0.049642
    89  C   -0.041768
    90  C    0.095521
    91  C    0.083172
    92  C   -0.057935
    93  H    0.036933
    94  N   -0.406833
    95  C    0.180096
    96  C   -0.159397
    97  C   -0.027532
    98  C    0.117425
    99  C    0.116960
   100  C   -0.040771
   101  O   -0.244848
   102  C    0.073589
   103  N   -0.319982
   104  C    0.020681
   105  C   -0.057300
   106  C   -0.052550
   107  C    0.068201
   108  C    0.098052
   109  C    0.007810
   110  C    0.024820
   111  N   -0.315247
   112  C    0.105954
   113  C   -0.190102
   114  C    0.005602
   115  C    0.086780
   116  C    0.131651
   117  C    0.080019
   118  O   -0.155370
   119  C    0.008029
   120  C    0.184155
   121  O   -0.240398
   122  O   -0.318940
   123  C    0.170307
   124  H   -0.033680
   125  H   -0.013487
   126  H   -0.020511
   127  H    0.010306
   128  H   -0.000458
   129  H    0.022630
   130  H    0.011565
   131  H    0.026462
   132  H    0.008077
   133  H    0.007378
   134  H    0.024559
   135  H    0.021028
   136  H    0.046157
   137  H    0.016969
   138  H    0.021888
   139  H    0.041733
   140  H    0.028459
   141  H    0.024998
   142  H    0.021980
   143  H   -0.000077
   144  H    0.023590
   145  H    0.037921
   146  H    0.007232
   147  H    0.000191
   148  H    0.009337
   149  H    0.020058
   150  H    0.016399
   151  H    0.026074
   152  H    0.010838
   153  H    0.036232
   154  H    0.041936
   155  H    0.041832
   156  H    0.049449
   157  H    0.015829
   158  H    0.044134
 Sum of Mulliken charges =  -0.00000

 Dipole moment (field-independent basis, Debye):
    X=              0.3325    Y=              1.0225    Z=              5.0201  Tot=              5.1340
 Quadrupole moment (field-independent basis, Debye-Ang):
   XX=           -463.7561   YY=           -506.2274   ZZ=           -493.7181
   XY=             38.0937   XZ=              6.7173   YZ=             44.7102

 Normal termination of Gaussian 16 at Thu Sep 16 13:15:24 2021.
