 Gaussian 16, Revision A.03,
 Gaussian 16:  ES64L-G16RevA.03 25-Dec-2016

 -----------------------------------
 #p cam-b3lyp/Def2SVP td=(nstates=5)
 -----------------------------------

 --------------------------------
 TDDFT excited states in gaussian
 --------------------------------
 Symbolic Z-matrix:
 Charge =  0 Multiplicity = 1

                         Standard orientation:
 ---------------------------------------------------------------------
 Center     Atomic      Atomic             Coordinates (Angstroms)
 Number     Number       Type             X           Y           Z
 ---------------------------------------------------------------------
      1         12           0       -8.982568    0.548502    0.094558
      2          6           0       -6.818375   -1.844870    1.338581
      3          6           0       -6.756060    3.052043    1.264074
      4          6           0      -10.753612    2.945371   -1.596768
      5          6           0      -10.885190   -1.886849   -1.447552
      6          7           0       -7.091231    0.550112    1.285847
      7          6           0       -6.345762   -0.569959    1.588307
      8          6           0       -4.910811   -0.248991    2.151812
      9          6           0       -5.067047    1.307694    2.493107
     10          6           0       -6.415414    1.725051    1.680455
     11          6           0       -5.125441    1.764440    4.000547
     12          6           0       -3.786033   -0.512596    1.213571
     13          6           0       -2.706455   -1.520080    1.559505
     14          1           0       -1.319961   -1.259237    0.949299
     15          7           0       -8.831904    2.731486   -0.057025
     16          6           0       -7.849894    3.523217    0.567635
     17          6           0       -8.126738    4.904529    0.331887
     18          6           0       -9.233862    4.895546   -0.660039
     19          6           0       -9.671535    3.476842   -0.841414
     20          6           0       -7.229628    6.053792    0.803175
     21          6           0       -9.757780    6.200223   -1.285184
     22          8           0       -9.343372    7.338621   -1.086590
     23          6           0      -10.635203    6.071310   -2.479679
     24          7           0      -10.550458    0.535051   -1.527591
     25          6           0      -11.193984    1.658327   -1.873665
     26          6           0      -12.086582    1.298975   -3.060627
     27          6           0      -12.245421   -0.292159   -3.010865
     28          6           0      -11.163920   -0.613827   -1.885351
     29          6           0      -13.502579    1.949726   -2.871300
     30          6           0      -12.010875   -1.148979   -4.322118
     31          6           0      -13.159713   -1.914366   -4.961626
     32          7           0       -8.941652   -1.513054    0.016982
     33          6           0       -9.811395   -2.397904   -0.628048
     34          6           0       -9.358905   -3.743613   -0.449047
     35          6           0       -8.163575   -3.611368    0.323137
     36          6           0       -8.014425   -2.197239    0.603589
     37          6           0       -9.966192   -5.008689   -0.968195
     38          6           0       -7.119434   -4.279106    0.984271
     39          8           0       -6.914816   -5.475089    1.042207
     40          6           0       -6.164169   -3.182311    1.595840
     41          6           0       -5.820738   -3.574262    2.971736
     42          8           0       -4.730838   -4.038252    3.287106
     43          8           0       -6.903340   -3.364656    3.812888
     44          6           0       -6.640818   -3.780820    5.208920
     45          1           0       -6.173463    3.907390    1.611281
     46          1           0      -11.314201    3.777691   -2.028330
     47          1           0      -11.473747   -2.638593   -1.977351
     48          1           0       -4.750943   -0.808294    3.072961
     49          1           0       -4.258494    1.819548    1.970004
     50          1           0       -4.808267    0.913887    4.603840
     51          1           0       -6.102860    2.115850    4.331366
     52          1           0       -4.454474    2.617048    4.098386
     53          1           0       -3.241450    0.427919    1.117474
     54          1           0       -4.174319   -0.858425    0.256187
     55          1           0       -3.005617   -2.480739    1.141309
     56          1           0       -2.509316   -1.591857    2.628881
     57          1           0       -6.284499    5.864307    1.311534
     58          1           0       -7.922052    6.648701    1.398258
     59          1           0       -7.142529    6.677826   -0.085688
     60          1           0      -11.714295    5.998690   -2.351036
     61          1           0      -10.290018    5.295281   -3.163019
     62          1           0      -10.537535    7.011955   -3.022940
     63          1           0      -11.667948    1.614728   -4.016486
     64          1           0      -13.193979   -0.560075   -2.546821
     65          1           0      -13.737705    2.464084   -3.803090
     66          1           0      -13.594494    2.639781   -2.031615
     67          1           0      -14.287370    1.220405   -2.669250
     68          1           0      -11.220119   -1.843768   -4.040006
     69          1           0      -11.703324   -0.426003   -5.078917
     70          1           0      -12.683640   -2.715744   -5.527209
     71          1           0      -13.663850   -1.262039   -5.674998
     72          1           0      -13.908249   -2.398896   -4.335599
     73          1           0       -9.325905   -5.815012   -0.609499
     74          1           0      -10.013783   -4.921339   -2.053223
     75          1           0      -10.971110   -5.225073   -0.605230
     76          1           0       -5.257427   -3.272822    0.996785
     77          1           0       -6.922336   -4.824596    5.347729
     78          1           0       -7.166037   -3.061217    5.836909
     79          1           0       -5.592506   -3.656291    5.478785
     80         12           0        9.090294    0.169213   -0.022948
     81          6           0        6.322191   -1.997116    0.377766
     82          6           0        7.365893    2.593178    1.727055
     83          6           0       11.629618    2.316809   -0.672014
     84          6           0       10.712984   -2.248069   -1.975646
     85          7           0        7.039960    0.220935    0.811000
     86          6           0        6.165541   -0.834247    1.060045
     87          6           0        4.933866   -0.369242    1.939909
     88          6           0        5.205524    1.151557    2.087853
     89          6           0        6.600729    1.380961    1.464815
     90          6           0        4.154705    2.155630    1.482254
     91          6           0        4.644923   -1.202252    3.255321
     92          6           0        3.294354   -1.849123    3.317661
     93          1           0        2.607667   -1.886391    4.740181
     94          7           0        9.389551    2.129194    0.464815
     95          6           0        8.617518    2.964242    1.246740
     96          6           0        9.244545    4.274646    1.320061
     97          6           0       10.494004    4.248172    0.638191
     98          6           0       10.573220    2.835874    0.112024
     99          6           0        8.703429    5.444046    2.167036
    100          6           0       11.553772    5.334350    0.484537
    101          8           0       12.627952    5.159523   -0.053001
    102          6           0       11.433215    6.789520    1.097668
    103          7           0       10.889230    0.071892   -1.259026
    104          6           0       11.752214    1.075342   -1.349742
    105          6           0       12.991781    0.707721   -2.241057
    106          6           0       12.779019   -0.836855   -2.496490
    107          6           0       11.376289   -1.050962   -1.851672
    108          6           0       13.115169    1.639451   -3.481260
    109          6           0       13.909183   -1.671836   -1.927745
    110          6           0       14.361875   -2.811387   -2.838910
    111          7           0        8.645690   -1.698018   -0.832327
    112          6           0        9.424109   -2.608617   -1.520822
    113          6           0        8.599258   -3.741191   -1.809624
    114          6           0        7.399941   -3.595809   -1.069200
    115          6           0        7.447276   -2.306597   -0.469145
    116          6           0        8.976041   -4.901896   -2.649970
    117          6           0        6.159751   -4.274923   -0.655160
    118          8           0        5.628954   -5.325978   -1.002196
    119          6           0        5.406278   -3.160212    0.407551
    120          6           0        4.094688   -2.851413   -0.070224
    121          8           0        3.786156   -1.815088   -0.617588
    122          8           0        3.198595   -3.831044    0.293522
    123          6           0        1.832804   -3.580523   -0.230458
    124          1           0        6.911446    3.343565    2.377616
    125          1           0       12.450326    2.979495   -0.952548
    126          1           0       11.324311   -2.973630   -2.517494
    127          1           0        4.092898   -0.388751    1.247569
    128          1           0        5.291481    1.426105    3.139245
    129          1           0        4.056874    2.971578    2.199005
    130          1           0        3.215784    1.622949    1.333331
    131          1           0        4.443718    2.584577    0.522583
    132          1           0        4.806734   -0.512606    4.083873
    133          1           0        5.377803   -2.008843    3.281589
    134          1           0        3.369777   -2.888354    2.994957
    135          1           0        2.707283   -1.276550    2.600157
    136          1           0        9.437903    5.579150    2.960217
    137          1           0        7.803129    5.116896    2.687706
    138          1           0        8.586957    6.395215    1.646117
    139          1           0       11.281211    6.687880    2.172763
    140          1           0       10.772908    7.438112    0.521213
    141          1           0       12.365708    7.277995    0.816503
    142          1           0       13.943038    0.782504   -1.714544
    143          1           0       12.658970   -0.944515   -3.574677
    144          1           0       13.223469    1.015124   -4.368614
    145          1           0       13.906319    2.383677   -3.386663
    146          1           0       12.200371    2.218820   -3.594808
    147          1           0       13.662765   -2.086562   -0.950858
    148          1           0       14.804052   -1.101150   -1.674683
    149          1           0       13.678524   -2.947133   -3.677247
    150          1           0       14.332592   -3.715987   -2.230854
    151          1           0       15.403935   -2.712934   -3.143490
    152          1           0        9.964723   -4.889164   -3.108609
    153          1           0        8.112498   -5.107883   -3.283546
    154          1           0        9.177481   -5.676087   -1.909211
    155          1           0        5.340127   -3.607459    1.399775
    156          1           0        1.857142   -3.535638   -1.319486
    157          1           0        1.482734   -2.675143    0.265296
    158          1           0        1.134948   -4.383967    0.002038
 ---------------------------------------------------------------------

 SCF Done:  E(RCAM-B3LYP) =  -4069.79664721     A.U. after   18 cycles

 Excitation energies and oscillator strengths:

 Excited State   1:      Singlet-A      1.7121 eV  724.15 nm  f=0.3095  <S**2>=0.000
     309 -> 315        0.17364
     311 -> 313        0.68400
     309 <- 315        0.10463
 This state for optimization and/or second-order correction.
 Total Energy, E(TD-HF/TD-DFT) =  -4069.73372745
 Copying the excited state density for this state as the 1-particle RhoCI density.

 Excited State   2:      Singlet-A      1.7815 eV  695.94 nm  f=0.4224  <S**2>=0.000
     310 -> 316        0.17615
     312 -> 314        0.68282
     310 <- 316        0.10127

 Excited State   3:      Singlet-A      2.1717 eV  570.92 nm  f=0.1703  <S**2>=0.000
     309 -> 313        0.65160
     311 -> 315       -0.25338

 Excited State   4:      Singlet-A      2.2577 eV  549.17 nm  f=0.1164  <S**2>=0.000
     310 -> 314        0.63924
     312 -> 316       -0.28409

 Excited State   5:      Singlet-A      2.5838 eV  479.85 nm  f=0.0000  <S**2>=0.000
     312 -> 313        0.70693

 The electronic state is 1-A.
 Alpha  occ. eigenvalues --  -46.90537 -46.88137 -19.25181 -19.24045 -19.19892
 Alpha  occ. eigenvalues --  -19.19810 -19.19234 -19.19162 -19.19005 -19.18351
 Alpha  occ. eigenvalues --  -14.43548 -14.42176 -14.42045 -14.41670 -14.40250
 Alpha  occ. eigenvalues --  -14.40102 -14.39926 -14.38616 -10.39189 -10.38098
 Alpha  occ. eigenvalues --  -10.36329 -10.35840 -10.35325 -10.34241 -10.33171
 Alpha  occ. eigenvalues --  -10.32415 -10.32122 -10.31880 -10.31741 -10.31729
 Alpha  occ. eigenvalues --  -10.31562 -10.31173 -10.31029 -10.30874 -10.30874
 Alpha  occ. eigenvalues --  -10.30472 -10.30180 -10.30097 -10.30062 -10.29884
 Alpha  occ. eigenvalues --  -10.29721 -10.29518 -10.29150 -10.28814 -10.28776
 Alpha  occ. eigenvalues --  -10.28709 -10.28569 -10.28546 -10.28509 -10.28498
 Alpha  occ. eigenvalues --  -10.28493 -10.28402 -10.28342 -10.28301 -10.28255
 Alpha  occ. eigenvalues --  -10.27962 -10.27943 -10.27935 -10.27721 -10.27665
 Alpha  occ. eigenvalues --  -10.27527 -10.27514 -10.27496 -10.27385 -10.27283
 Alpha  occ. eigenvalues --  -10.27088 -10.27053 -10.27012 -10.26897 -10.26806
 Alpha  occ. eigenvalues --  -10.26663 -10.26634 -10.26404 -10.26388 -10.26244
 Alpha  occ. eigenvalues --  -10.26211 -10.26207 -10.26080 -10.25914 -10.25902
 Alpha  occ. eigenvalues --  -10.25747 -10.25458 -10.25213 -10.25034 -10.24963
 Alpha  occ. eigenvalues --  -10.24764  -3.18747  -3.16667  -1.93675  -1.93178
 Alpha  occ. eigenvalues --   -1.93049  -1.91575  -1.91117  -1.90974  -1.15620
 Alpha  occ. eigenvalues --   -1.15597  -1.11442  -1.10109  -1.09818  -1.09108
 Alpha  occ. eigenvalues --   -1.07542  -1.07182  -1.04872  -1.04106  -1.03996
 Alpha  occ. eigenvalues --   -1.02629  -1.02374  -1.01863  -1.01797  -1.00842
 Alpha  occ. eigenvalues --   -0.92648  -0.91719  -0.89576  -0.89475  -0.89055
 Alpha  occ. eigenvalues --   -0.88323  -0.88228  -0.87952  -0.87748  -0.87223
 Alpha  occ. eigenvalues --   -0.87137  -0.86800  -0.85875  -0.85506  -0.84591
 Alpha  occ. eigenvalues --   -0.84267  -0.83882  -0.83537  -0.82974  -0.82375
 Alpha  occ. eigenvalues --   -0.82284  -0.80951  -0.80941  -0.80817  -0.80573
 Alpha  occ. eigenvalues --   -0.79997  -0.78357  -0.77884  -0.77244  -0.77074
 Alpha  occ. eigenvalues --   -0.76830  -0.76331  -0.76297  -0.75577  -0.75569
 Alpha  occ. eigenvalues --   -0.74630  -0.73559  -0.72341  -0.72147  -0.71194
 Alpha  occ. eigenvalues --   -0.69436  -0.69052  -0.68968  -0.68759  -0.68076
 Alpha  occ. eigenvalues --   -0.67322  -0.67237  -0.67092  -0.65671  -0.65552
 Alpha  occ. eigenvalues --   -0.65543  -0.65304  -0.64884  -0.64687  -0.64492
 Alpha  occ. eigenvalues --   -0.64216  -0.63064  -0.60942  -0.60304  -0.59955
 Alpha  occ. eigenvalues --   -0.59807  -0.59528  -0.59133  -0.59068  -0.58683
 Alpha  occ. eigenvalues --   -0.57864  -0.57841  -0.57674  -0.57044  -0.56898
 Alpha  occ. eigenvalues --   -0.56604  -0.56033  -0.55835  -0.55601  -0.55508
 Alpha  occ. eigenvalues --   -0.54859  -0.54635  -0.54066  -0.53889  -0.53583
 Alpha  occ. eigenvalues --   -0.53556  -0.53322  -0.53173  -0.53109  -0.52925
 Alpha  occ. eigenvalues --   -0.52891  -0.52821  -0.52610  -0.52421  -0.52169
 Alpha  occ. eigenvalues --   -0.51997  -0.51896  -0.51573  -0.51378  -0.51312
 Alpha  occ. eigenvalues --   -0.50977  -0.50952  -0.50799  -0.50463  -0.50439
 Alpha  occ. eigenvalues --   -0.50279  -0.50047  -0.49768  -0.49555  -0.49483
 Alpha  occ. eigenvalues --   -0.49396  -0.49314  -0.49196  -0.48922  -0.48687
 Alpha  occ. eigenvalues --   -0.48533  -0.48469  -0.48380  -0.48006  -0.47935
 Alpha  occ. eigenvalues --   -0.47862  -0.47848  -0.47631  -0.47412  -0.47226
 Alpha  occ. eigenvalues --   -0.47058  -0.46759  -0.46696  -0.46654  -0.46313
 Alpha  occ. eigenvalues --   -0.46210  -0.46111  -0.46050  -0.45895  -0.45888
 Alpha  occ. eigenvalues --   -0.45758  -0.45419  -0.45360  -0.45240  -0.45044
 Alpha  occ. eigenvalues --   -0.44757  -0.44703  -0.44584  -0.44576  -0.44361
 Alpha  occ. eigenvalues --   -0.44167  -0.43871  -0.43821  -0.43780  -0.43702
 Alpha  occ. eigenvalues --   -0.43466  -0.43203  -0.43097  -0.43034  -0.42891
 Alpha  occ. eigenvalues --   -0.42813  -0.42464  -0.42290  -0.42277  -0.42212
 Alpha  occ. eigenvalues --   -0.41894  -0.41655  -0.41563  -0.41326  -0.41235
 Alpha  occ. eigenvalues --   -0.41053  -0.40570  -0.40450  -0.40202  -0.40025
 Alpha  occ. eigenvalues --   -0.39900  -0.39772  -0.39597  -0.39585  -0.39319
 Alpha  occ. eigenvalues --   -0.38601  -0.38390  -0.37890  -0.37553  -0.37465
 Alpha  occ. eigenvalues --   -0.37339  -0.37059  -0.36842  -0.36741  -0.36069
 Alpha  occ. eigenvalues --   -0.35962  -0.35777  -0.34551  -0.34372  -0.34095
 Alpha  occ. eigenvalues --   -0.33728  -0.33383  -0.32986  -0.31818  -0.31571
 Alpha  occ. eigenvalues --   -0.31414  -0.31271  -0.30576  -0.30553  -0.30237
 Alpha  occ. eigenvalues --   -0.30077  -0.29631  -0.28551  -0.24666  -0.23967
 Alpha  occ. eigenvalues --   -0.22205  -0.21216
 Alpha virt. eigenvalues --   -0.09777  -0.08428  -0.02388  -0.01687  -0.00033
 Alpha virt. eigenvalues --    0.00141   0.02161   0.02219   0.02287   0.03054
 Alpha virt. eigenvalues --    0.04336   0.04685   0.05018   0.05218   0.05632

 Mulliken charges:
               1
     1  Mg   0.797136
     2  C    0.074250
     3  C   -0.043133
     4  C   -0.054611
     5  C   -0.052214
     6  N   -0.300161
     7  C   -0.059996
     8  C   -0.023000
     9  C   -0.080427
    10  C    0.067056
    11  C    0.078485
    12  C    0.079217
    13  C   -0.094607
    14  H    0.006335
    15  N   -0.374597
    16  C    0.119203
    17  C   -0.139383
    18  C   -0.092262
    19  C    0.150463
    20  C    0.136744
    21  C    0.043163
    22  O   -0.209417
    23  C    0.005453
    24  N   -0.267795
    25  C    0.091518
    26  C   -0.078111
    27  C   -0.006929
    28  C   -0.004227
    29  C    0.048993
    30  C    0.036038
    31  C    0.003059
    32  N   -0.332701
    33  C    0.107788
    34  C   -0.158715
    35  C    0.031532
    36  C    0.039624
    37  C    0.122478
    38  C   -0.007770
    39  O   -0.164234
    40  C    0.008932
    41  C    0.181858
    42  O   -0.214981
    43  O   -0.355641
    44  C    0.174491
    45  H   -0.038856
    46  H   -0.042360
    47  H   -0.028346
    48  H    0.010003
    49  H    0.015404
    50  H    0.021402
    51  H    0.027041
    52  H    0.020835
    53  H    0.016955
    54  H    0.018875
    55  H    0.046755
    56  H    0.037787
    57  H    0.033793
    58  H    0.033066
    59  H    0.040616
    60  H    0.045934
    61  H    0.034813
    62  H    0.021687
    63  H    0.028850
    64  H    0.005475
    65  H    0.013940
    66  H    0.019533
    67  H    0.009878
    68  H    0.018971
    69  H    0.003823
    70  H    0.014800
    71  H    0.016024
    72  H    0.017379
    73  H    0.039239
    74  H    0.024099
    75  H    0.024214
    76  H    0.036197
    77  H    0.051615
    78  H    0.034107
    79  H    0.038527
    80  Mg   0.816154
    81  C    0.026011
    82  C   -0.086950
    83  C   -0.055960
    84  C   -0.058748
    85  N   -0.312652
    86  C   -0.055508
    87  C   -0.012426
    88  C   -0.109260
    89  C    0.087755
    90  C    0.070599
    91  C    0.093586
    92  C   -0.080120
    93  H    0.012695
    94  N   -0.426119
    95  C    0.166908
    96  C   -0.153307
    97  C   -0.008034
    98  C    0.162481
    99  C    0.112476
   100  C   -0.007748
   101  O   -0.188255
   102  C    0.041593
   103  N   -0.245120
   104  C    0.014557
   105  C   -0.074965
   106  C   -0.009827
   107  C   -0.002055
   108  C    0.065650
   109  C    0.045661
   110  C    0.000087
   111  N   -0.378512
   112  C    0.150716
   113  C   -0.188271
   114  C    0.002135
   115  C    0.131714
   116  C    0.134314
   117  C    0.077358
   118  O   -0.162458
   119  C   -0.091303
   120  C    0.202839
   121  O   -0.222788
   122  O   -0.341758
   123  C    0.190625
   124  H   -0.034953
   125  H   -0.007269
   126  H   -0.044546
   127  H    0.031091
   128  H    0.006046
   129  H    0.014308
   130  H    0.020891
   131  H    0.028626
   132  H    0.013636
   133  H    0.009715
   134  H    0.045340
   135  H    0.030113
   136  H    0.030326
   137  H    0.009346
   138  H    0.043338
   139  H    0.040969
   140  H    0.032813
   141  H    0.021093
   142  H    0.013946
   143  H    0.009755
   144  H    0.012982
   145  H    0.028691
   146  H    0.019914
   147  H    0.006142
   148  H    0.003915
   149  H    0.022197
   150  H    0.008884
   151  H    0.018002
   152  H   -0.003273
   153  H    0.048001
   154  H    0.022518
   155  H    0.052205
   156  H    0.041244
   157  H    0.031804
   158  H    0.037447
 Sum of Mulliken charges =  -0.00000

 Dipole moment (field-independent basis, Debye):
    X=             -2.3274    Y=              6.0034    Z=              2.0750  Tot=              6.7648
 Quadrupole moment (field-independent basis, Debye-Ang):
   XX=           -416.2892   YY=           -574.8757   ZZ=           -481.0370
   XY=             13.8533   XZ=             26.5097   YZ=             18.4529

 Normal termination of Gaussian 16 at Thu Sep 16 04:40:44 2021.
