 Gaussian 16, Revision A.03,
 Gaussian 16:  ES64L-G16RevA.03 25-Dec-2016

 -----------------------------------
 #p cam-b3lyp/Def2SVP td=(nstates=5)
 -----------------------------------

 --------------------------------
 TDDFT excited states in gaussian
 --------------------------------
 Symbolic Z-matrix:
 Charge =  0 Multiplicity = 1

                         Standard orientation:
 ---------------------------------------------------------------------
 Center     Atomic      Atomic             Coordinates (Angstroms)
 Number     Number       Type             X           Y           Z
 ---------------------------------------------------------------------
      1         12           0      -13.010299   -0.563902    0.350460
      2          6           0      -13.498898    2.470433   -1.261513
      3          6           0      -11.952153    1.055944    3.112805
      4          6           0      -12.411641   -3.552536    1.734136
      5          6           0      -13.969441   -2.156003   -2.617239
      6          7           0      -12.807108    1.565355    0.809216
      7          6           0      -13.134490    2.606739    0.082173
      8          6           0      -12.867399    3.912340    0.963956
      9          6           0      -11.759999    3.358061    1.835104
     10          6           0      -12.207503    1.869076    1.983397
     11          6           0      -10.386631    3.594868    1.170654
     12          6           0      -14.224526    4.455072    1.587578
     13          6           0      -14.179896    5.919216    2.035530
     14          1           0      -12.839081    6.631788    2.076063
     15          7           0      -12.461470   -1.159731    2.204462
     16          6           0      -12.132961   -0.305950    3.254831
     17          6           0      -12.008316   -1.138660    4.488611
     18          6           0      -12.078411   -2.538594    4.081435
     19          6           0      -12.246921   -2.415302    2.609079
     20          6           0      -11.778732   -0.543574    5.857696
     21          6           0      -12.046252   -3.889627    4.934632
     22          8           0      -12.193896   -5.014129    4.444141
     23          6           0      -11.839667   -3.739792    6.427442
     24          7           0      -13.055350   -2.509683   -0.352221
     25          6           0      -12.756345   -3.573817    0.388020
     26          6           0      -12.785747   -4.904243   -0.425867
     27          6           0      -13.510203   -4.427173   -1.692795
     28          6           0      -13.583959   -2.939241   -1.551717
     29          6           0      -11.390672   -5.539705   -0.682080
     30          6           0      -14.858229   -5.162503   -2.118172
     31          6           0      -16.144240   -4.453112   -1.847658
     32          7           0      -13.417644   -0.020053   -1.626256
     33          6           0      -13.847242   -0.743071   -2.687670
     34          6           0      -14.096407    0.048396   -3.839379
     35          6           0      -13.974981    1.376105   -3.321164
     36          6           0      -13.579502    1.222789   -2.011961
     37          6           0      -14.422524   -0.264593   -5.276704
     38          6           0      -14.076582    2.780571   -3.584900
     39          8           0      -14.363414    3.398982   -4.587188
     40          6           0      -13.930956    3.568121   -2.243847
     41          6           0      -12.947682    4.642721   -2.409766
     42          8           0      -11.779486    4.423767   -2.692173
     43          8           0      -13.511709    5.944028   -2.393855
     44          6           0      -12.585624    7.052503   -2.673967
     45          1           0      -11.553898    1.614031    3.961426
     46          1           0      -12.166173   -4.508223    2.200326
     47          1           0      -14.215099   -2.687578   -3.538567
     48          1           0      -12.536604    4.728133    0.322596
     49          1           0      -11.750899    3.747479    2.852819
     50          1           0       -9.925124    4.311431    1.850938
     51          1           0      -10.465519    4.016068    0.167558
     52          1           0       -9.844678    2.654034    1.264096
     53          1           0      -14.498754    3.862294    2.460682
     54          1           0      -14.945270    4.406743    0.770976
     55          1           0      -14.631793    5.953680    3.026366
     56          1           0      -14.849648    6.469368    1.375025
     57          1           0      -12.274480    0.422371    5.960600
     58          1           0      -10.744953   -0.416568    6.177413
     59          1           0      -12.266028   -1.182064    6.594412
     60          1           0      -10.949380   -3.115272    6.497470
     61          1           0      -11.607987   -4.667744    6.949450
     62          1           0      -12.735897   -3.319318    6.883889
     63          1           0      -13.368014   -5.670260    0.086039
     64          1           0      -12.773798   -4.507292   -2.491579
     65          1           0      -11.415167   -5.862368   -1.723223
     66          1           0      -11.097305   -6.365170   -0.035362
     67          1           0      -10.637851   -4.775859   -0.487211
     68          1           0      -14.844941   -6.170107   -1.702491
     69          1           0      -14.880840   -5.254680   -3.203794
     70          1           0      -16.572775   -4.179153   -2.812005
     71          1           0      -16.062447   -3.461283   -1.401332
     72          1           0      -16.895291   -5.055630   -1.336663
     73          1           0      -14.389860   -1.334157   -5.487208
     74          1           0      -13.788383    0.342701   -5.923236
     75          1           0      -15.445452   -0.066616   -5.597620
     76          1           0      -14.875609    4.011567   -1.930181
     77          1           0      -12.988450    8.047893   -2.488428
     78          1           0      -12.360404    6.921552   -3.732725
     79          1           0      -11.685435    6.825458   -2.104029
     80         12           0       12.657289   -0.696722   -0.441952
     81          6           0       14.614088    2.137271    0.015554
     82          6           0        9.922475    1.335519    0.206477
     83          6           0       10.773381   -3.527425   -0.376729
     84          6           0       15.528842   -2.570183   -0.889416
     85          7           0       12.322309    1.479023    0.108628
     86          6           0       13.272618    2.483917    0.207191
     87          6           0       12.681544    3.879059    0.652256
     88          6           0       11.206303    3.444794    1.005461
     89          6           0       11.128663    1.976467    0.446144
     90          6           0       10.704440    3.454745    2.452368
     91          6           0       12.836799    4.923957   -0.467885
     92          6           0       13.868825    6.001497   -0.262980
     93          1           0       13.515579    7.407447   -0.779785
     94          7           0       10.621685   -1.073531   -0.328110
     95          6           0        9.709112   -0.082386   -0.142312
     96          6           0        8.398800   -0.759764   -0.091002
     97          6           0        8.604673   -2.146887   -0.151809
     98          6           0        9.996165   -2.328969   -0.301605
     99          6           0        7.143542    0.014463   -0.107891
    100          6           0        7.621585   -3.276198   -0.051156
    101          8           0        7.930999   -4.486377   -0.233752
    102          6           0        6.244909   -3.106796    0.293128
    103          7           0       13.063248   -2.694645   -0.683516
    104          6           0       12.126244   -3.681167   -0.646874
    105          6           0       12.686458   -5.037056   -0.826812
    106          6           0       14.213969   -4.750507   -1.055781
    107          6           0       14.271845   -3.290433   -0.805480
    108          6           0       12.481638   -6.188738    0.200908
    109          6           0       14.811522   -5.269240   -2.455882
    110          6           0       14.718468   -4.448529   -3.776455
    111          7           0       14.666277   -0.375284   -0.411455
    112          6           0       15.715612   -1.216392   -0.646335
    113          6           0       16.903045   -0.487103   -0.752879
    114          6           0       16.491361    0.855438   -0.399499
    115          6           0       15.120803    0.859988   -0.232942
    116          6           0       18.286475   -0.995498   -1.154237
    117          6           0       16.999289    2.194868   -0.319334
    118          8           0       18.071301    2.715774   -0.551264
    119          6           0       15.793784    3.057513    0.194693
    120          6           0       16.013158    3.436805    1.604541
    121          8           0       15.351798    3.045243    2.591220
    122          8           0       17.056900    4.270959    1.804178
    123          6           0       17.243896    4.920036    3.146575
    124          1           0        9.073028    1.966387    0.474108
    125          1           0       10.230382   -4.473883   -0.329852
    126          1           0       16.458229   -3.058632   -1.191263
    127          1           0       13.017469    4.168284    1.648600
    128          1           0       10.563894    4.080960    0.396684
    129          1           0       10.556619    2.434081    2.806006
    130          1           0        9.686072    3.838716    2.414645
    131          1           0       11.324413    4.003931    3.161820
    132          1           0       11.875509    5.437507   -0.508670
    133          1           0       12.959386    4.392930   -1.411856
    134          1           0       14.777268    5.683485   -0.775223
    135          1           0       14.198683    6.147953    0.765632
    136          1           0        6.647008   -0.282861   -1.030653
    137          1           0        7.180137    1.103771   -0.065015
    138          1           0        6.517112   -0.289370    0.730743
    139          1           0        6.244488   -2.411168    1.131885
    140          1           0        5.747013   -4.071188    0.385229
    141          1           0        5.715003   -2.541371   -0.473462
    142          1           0       12.189363   -5.304754   -1.758737
    143          1           0       14.789849   -5.209873   -0.253247
    144          1           0       11.882346   -7.001660   -0.209197
    145          1           0       11.939400   -5.840067    1.080485
    146          1           0       13.415536   -6.585626    0.598759
    147          1           0       14.223773   -6.170795   -2.629962
    148          1           0       15.827896   -5.522393   -2.153849
    149          1           0       14.361133   -3.424973   -3.666554
    150          1           0       14.239677   -4.948765   -4.618733
    151          1           0       15.750291   -4.413750   -4.123602
    152          1           0       19.036560   -0.779614   -0.392683
    153          1           0       18.594124   -0.440248   -2.040175
    154          1           0       18.317118   -2.046086   -1.444270
    155          1           0       15.838754    4.016007   -0.322669
    156          1           0       17.952885    5.682370    2.823342
    157          1           0       17.638270    4.267394    3.924745
    158          1           0       16.293971    5.328812    3.492415
 ---------------------------------------------------------------------

 SCF Done:  E(RCAM-B3LYP) =  -4069.82498242     A.U. after   19 cycles

 Excitation energies and oscillator strengths:

 Excited State   1:      Singlet-A      1.7034 eV  727.85 nm  f=0.3953  <S**2>=0.000
     310 -> 316        0.17708
     312 -> 314        0.68421
     310 <- 316        0.10745
 This state for optimization and/or second-order correction.
 Total Energy, E(TD-HF/TD-DFT) =  -4069.76238293
 Copying the excited state density for this state as the 1-particle RhoCI density.

 Excited State   2:      Singlet-A      1.7356 eV  714.37 nm  f=0.3859  <S**2>=0.000
     309 -> 315        0.17770
     311 -> 313        0.68591
     309 <- 315        0.10684

 Excited State   3:      Singlet-A      2.2075 eV  561.66 nm  f=0.1178  <S**2>=0.000
     310 -> 314        0.64895
     312 -> 316       -0.26035

 Excited State   4:      Singlet-A      2.2153 eV  559.68 nm  f=0.1710  <S**2>=0.000
     309 -> 313        0.65296
     311 -> 315       -0.25671

 Excited State   5:      Singlet-A      2.9595 eV  418.94 nm  f=0.0000  <S**2>=0.000
     312 -> 313        0.70708

 The electronic state is 1-A.
 Alpha  occ. eigenvalues --  -46.87818 -46.87524 -19.24065 -19.23973 -19.20526
 Alpha  occ. eigenvalues --  -19.19548 -19.18259 -19.18220 -19.17956 -19.17945
 Alpha  occ. eigenvalues --  -14.42067 -14.41997 -14.41855 -14.41512 -14.40163
 Alpha  occ. eigenvalues --  -14.39526 -14.38686 -14.38354 -10.38933 -10.38538
 Alpha  occ. eigenvalues --  -10.37284 -10.34511 -10.34174 -10.34160 -10.32016
 Alpha  occ. eigenvalues --  -10.31386 -10.31190 -10.31126 -10.31051 -10.30953
 Alpha  occ. eigenvalues --  -10.30798 -10.30643 -10.30588 -10.30511 -10.30462
 Alpha  occ. eigenvalues --  -10.30359 -10.30118 -10.30019 -10.29902 -10.29066
 Alpha  occ. eigenvalues --  -10.28899 -10.28874 -10.28727 -10.28551 -10.28359
 Alpha  occ. eigenvalues --  -10.28287 -10.28174 -10.28150 -10.28144 -10.28012
 Alpha  occ. eigenvalues --  -10.28007 -10.27835 -10.27726 -10.27684 -10.27659
 Alpha  occ. eigenvalues --  -10.27644 -10.27610 -10.27371 -10.27346 -10.27289
 Alpha  occ. eigenvalues --  -10.27251 -10.27247 -10.27209 -10.27135 -10.27118
 Alpha  occ. eigenvalues --  -10.27086 -10.26899 -10.26872 -10.26810 -10.26743
 Alpha  occ. eigenvalues --  -10.26690 -10.26374 -10.26310 -10.26002 -10.25945
 Alpha  occ. eigenvalues --  -10.25910 -10.25884 -10.25813 -10.25790 -10.25740
 Alpha  occ. eigenvalues --  -10.25709 -10.25659 -10.25632 -10.24604 -10.24563
 Alpha  occ. eigenvalues --  -10.24236  -3.16583  -3.16239  -1.91494  -1.91149
 Alpha  occ. eigenvalues --   -1.91003  -1.90930  -1.90698  -1.90543  -1.15134
 Alpha  occ. eigenvalues --   -1.14558  -1.10532  -1.09629  -1.09521  -1.07943
 Alpha  occ. eigenvalues --   -1.06803  -1.05639  -1.05128  -1.04835  -1.04782
 Alpha  occ. eigenvalues --   -1.04200  -1.04080  -1.03233  -1.03215  -1.02221
 Alpha  occ. eigenvalues --   -0.93077  -0.92186  -0.89258  -0.89031  -0.88639
 Alpha  occ. eigenvalues --   -0.88441  -0.88338  -0.88292  -0.87569  -0.87348
 Alpha  occ. eigenvalues --   -0.87171  -0.87003  -0.86314  -0.86091  -0.84390
 Alpha  occ. eigenvalues --   -0.84374  -0.83713  -0.83640  -0.82816  -0.82800
 Alpha  occ. eigenvalues --   -0.82616  -0.82455  -0.81007  -0.80981  -0.80540
 Alpha  occ. eigenvalues --   -0.80125  -0.78639  -0.78548  -0.77503  -0.77293
 Alpha  occ. eigenvalues --   -0.76864  -0.76720  -0.76206  -0.75919  -0.75290
 Alpha  occ. eigenvalues --   -0.75124  -0.73105  -0.72871  -0.71328  -0.71231
 Alpha  occ. eigenvalues --   -0.70096  -0.69298  -0.68807  -0.68769  -0.67995
 Alpha  occ. eigenvalues --   -0.67986  -0.67093  -0.66669  -0.65193  -0.65107
 Alpha  occ. eigenvalues --   -0.65081  -0.64716  -0.64605  -0.64360  -0.64245
 Alpha  occ. eigenvalues --   -0.64058  -0.61488  -0.61307  -0.60687  -0.59952
 Alpha  occ. eigenvalues --   -0.59643  -0.59638  -0.59183  -0.59142  -0.58587
 Alpha  occ. eigenvalues --   -0.58072  -0.58034  -0.57790  -0.57674  -0.57298
 Alpha  occ. eigenvalues --   -0.56162  -0.55852  -0.55725  -0.55631  -0.55491
 Alpha  occ. eigenvalues --   -0.54889  -0.54840  -0.54437  -0.54047  -0.53823
 Alpha  occ. eigenvalues --   -0.53746  -0.53408  -0.53242  -0.53051  -0.52902
 Alpha  occ. eigenvalues --   -0.52710  -0.52521  -0.52433  -0.52384  -0.52191
 Alpha  occ. eigenvalues --   -0.52068  -0.51878  -0.51856  -0.51265  -0.51064
 Alpha  occ. eigenvalues --   -0.50833  -0.50776  -0.50746  -0.50399  -0.50346
 Alpha  occ. eigenvalues --   -0.50157  -0.49950  -0.49755  -0.49630  -0.49553
 Alpha  occ. eigenvalues --   -0.49419  -0.49290  -0.49058  -0.48934  -0.48862
 Alpha  occ. eigenvalues --   -0.48798  -0.48594  -0.48551  -0.48474  -0.48181
 Alpha  occ. eigenvalues --   -0.47924  -0.47809  -0.47757  -0.47434  -0.47220
 Alpha  occ. eigenvalues --   -0.46930  -0.46747  -0.46507  -0.46488  -0.46343
 Alpha  occ. eigenvalues --   -0.46243  -0.46076  -0.45984  -0.45837  -0.45699
 Alpha  occ. eigenvalues --   -0.45624  -0.45395  -0.45259  -0.45164  -0.45002
 Alpha  occ. eigenvalues --   -0.44796  -0.44696  -0.44378  -0.44244  -0.44060
 Alpha  occ. eigenvalues --   -0.43997  -0.43973  -0.43812  -0.43787  -0.43496
 Alpha  occ. eigenvalues --   -0.43409  -0.43372  -0.43275  -0.43030  -0.42887
 Alpha  occ. eigenvalues --   -0.42752  -0.42530  -0.42446  -0.42122  -0.41854
 Alpha  occ. eigenvalues --   -0.41595  -0.41477  -0.41458  -0.41118  -0.41081
 Alpha  occ. eigenvalues --   -0.41026  -0.40786  -0.40573  -0.40326  -0.40273
 Alpha  occ. eigenvalues --   -0.40022  -0.39972  -0.39696  -0.39241  -0.38919
 Alpha  occ. eigenvalues --   -0.38248  -0.38197  -0.38108  -0.37811  -0.37615
 Alpha  occ. eigenvalues --   -0.36905  -0.36676  -0.36497  -0.36382  -0.36202
 Alpha  occ. eigenvalues --   -0.35684  -0.35601  -0.34493  -0.34300  -0.33996
 Alpha  occ. eigenvalues --   -0.33304  -0.33182  -0.32879  -0.32241  -0.31204
 Alpha  occ. eigenvalues --   -0.30986  -0.30606  -0.30558  -0.30234  -0.30026
 Alpha  occ. eigenvalues --   -0.29888  -0.29613  -0.29311  -0.23948  -0.23634
 Alpha  occ. eigenvalues --   -0.21444  -0.21103
 Alpha virt. eigenvalues --   -0.08888  -0.08682  -0.01308  -0.01301  -0.00067
 Alpha virt. eigenvalues --    0.00693   0.02369   0.02422   0.03453   0.03577
 Alpha virt. eigenvalues --    0.04738   0.05053   0.05268   0.05648   0.05779

 Mulliken charges:
               1
     1  Mg   0.842507
     2  C   -0.021710
     3  C   -0.078686
     4  C   -0.075075
     5  C   -0.111234
     6  N   -0.243042
     7  C   -0.062027
     8  C   -0.047402
     9  C   -0.052437
    10  C    0.015735
    11  C    0.105870
    12  C    0.057327
    13  C   -0.053874
    14  H    0.023424
    15  N   -0.393544
    16  C    0.179580
    17  C   -0.141595
    18  C   -0.075127
    19  C    0.104553
    20  C    0.096174
    21  C    0.057905
    22  O   -0.196745
    23  C    0.033354
    24  N   -0.301832
    25  C    0.062648
    26  C   -0.047745
    27  C    0.014834
    28  C    0.029761
    29  C    0.068819
    30  C    0.044646
    31  C    0.006220
    32  N   -0.283346
    33  C    0.112466
    34  C   -0.165598
    35  C    0.022730
    36  C    0.067170
    37  C    0.123685
    38  C    0.018805
    39  O   -0.167189
    40  C    0.053353
    41  C    0.179870
    42  O   -0.224512
    43  O   -0.371033
    44  C    0.187079
    45  H   -0.022601
    46  H   -0.009302
    47  H   -0.031965
    48  H   -0.002192
    49  H   -0.022986
    50  H    0.012442
    51  H    0.048770
    52  H    0.014297
    53  H    0.011172
    54  H    0.016599
    55  H    0.022798
    56  H    0.030225
    57  H    0.017743
    58  H    0.041949
    59  H    0.008779
    60  H    0.038296
    61  H    0.029275
    62  H    0.060290
    63  H    0.009324
    64  H    0.004398
    65  H    0.017397
    66  H    0.022941
    67  H    0.019339
    68  H    0.008954
    69  H    0.003249
    70  H   -0.003627
    71  H    0.027767
    72  H    0.017161
    73  H   -0.005889
    74  H    0.043944
    75  H    0.023795
    76  H    0.037153
    77  H    0.045036
    78  H    0.038806
    79  H    0.031901
    80  Mg   0.842016
    81  C   -0.018340
    82  C   -0.053863
    83  C   -0.067847
    84  C   -0.096680
    85  N   -0.267820
    86  C   -0.058722
    87  C   -0.002160
    88  C   -0.086423
    89  C    0.002179
    90  C    0.086103
    91  C    0.098646
    92  C   -0.086502
    93  H    0.020523
    94  N   -0.397034
    95  C    0.159513
    96  C   -0.172409
    97  C    0.028794
    98  C    0.105238
    99  C    0.105029
   100  C   -0.012471
   101  O   -0.250248
   102  C    0.087485
   103  N   -0.298734
   104  C    0.055506
   105  C   -0.041443
   106  C   -0.007402
   107  C    0.040333
   108  C    0.076572
   109  C    0.015287
   110  C    0.012077
   111  N   -0.356427
   112  C    0.119031
   113  C   -0.160406
   114  C   -0.009454
   115  C    0.183558
   116  C    0.132497
   117  C    0.018592
   118  O   -0.153174
   119  C   -0.051996
   120  C    0.191717
   121  O   -0.263492
   122  O   -0.324245
   123  C    0.186517
   124  H   -0.034033
   125  H   -0.005138
   126  H   -0.038786
   127  H    0.013721
   128  H    0.000905
   129  H    0.026140
   130  H    0.010453
   131  H    0.029860
   132  H    0.011991
   133  H    0.021713
   134  H    0.043735
   135  H    0.030099
   136  H    0.035075
   137  H    0.019963
   138  H    0.013820
   139  H    0.022366
   140  H    0.040303
   141  H    0.021584
   142  H    0.020306
   143  H    0.009362
   144  H    0.022378
   145  H    0.017692
   146  H    0.015143
   147  H    0.010532
   148  H    0.016427
   149  H    0.036116
   150  H    0.017650
   151  H    0.007438
   152  H    0.037928
   153  H    0.031064
   154  H    0.003130
   155  H    0.027434
   156  H    0.047680
   157  H    0.049046
   158  H    0.036981
 Sum of Mulliken charges =  -0.00000

 Dipole moment (field-independent basis, Debye):
    X=             -2.7770    Y=              0.0254    Z=              5.4447  Tot=              6.1120
 Quadrupole moment (field-independent basis, Debye-Ang):
   XX=           -585.2692   YY=           -492.8007   ZZ=           -500.8827
   XY=             -9.7813   XZ=            -68.3639   YZ=             42.0765

 Normal termination of Gaussian 16 at Thu Sep 16 13:34:02 2021.
