 Gaussian 16, Revision A.03,
 Gaussian 16:  ES64L-G16RevA.03 25-Dec-2016

 -----------------------------------------------------------
 #p cam-b3lyp/Def2SVP td=(nstates=5, root=1) density=current
 -----------------------------------------------------------

 --------------------------------
 TDDFT excited states in gaussian
 --------------------------------
 Symbolic Z-matrix:
 Charge =  0 Multiplicity = 1

                         Standard orientation:
 ---------------------------------------------------------------------
 Center     Atomic      Atomic             Coordinates (Angstroms)
 Number     Number       Type             X           Y           Z
 ---------------------------------------------------------------------
      1         12           0       -0.620606    0.037434   -0.381047
      2          6           0        2.798559    0.046990    0.137388
      3          6           0       -0.591678   -3.486459    0.036274
      4          6           0       -4.046190   -0.004190   -0.304848
      5          6           0       -0.701978    3.489542   -0.307985
      6          7           0        0.969454   -1.506895   -0.092808
      7          6           0        2.291035   -1.237633    0.194748
      8          6           0        3.112261   -2.497202    0.662417
      9          6           0        2.115656   -3.676238    0.237195
     10          6           0        0.710186   -2.892321   -0.013429
     11          6           0        2.494395   -4.605010   -0.978675
     12          6           0        3.447678   -2.534801    2.111896
     13          6           0        4.892020   -2.549336    2.574332
     14          1           0        5.163395   -3.246946    3.916887
     15          7           0       -2.122854   -1.555956   -0.256720
     16          6           0       -1.841491   -2.930533   -0.143782
     17          6           0       -3.059604   -3.674746   -0.194645
     18          6           0       -4.126712   -2.641499   -0.136320
     19          6           0       -3.467989   -1.301143   -0.218202
     20          6           0       -3.145142   -5.195940   -0.032233
     21          6           0       -5.612281   -3.030905   -0.041825
     22          8           0       -6.081298   -4.163559    0.023324
     23          6           0       -6.570442   -1.953092    0.323622
     24          7           0       -2.236045    1.592333   -0.131100
     25          6           0       -3.526018    1.282770   -0.320261
     26          6           0       -4.329288    2.531930    0.039045
     27          6           0       -3.289950    3.745827   -0.036077
     28          6           0       -1.943517    2.909113   -0.200162
     29          6           0       -5.449946    2.765016   -1.035276
     30          6           0       -3.202650    4.783575    1.157235
     31          6           0       -3.599125    6.237464    0.948356
     32          7           0        0.790294    1.533575   -0.211844
     33          6           0        0.623928    2.921853   -0.233799
     34          6           0        1.884553    3.567233   -0.028781
     35          6           0        2.807977    2.488526    0.133233
     36          6           0        2.044952    1.269200   -0.044801
     37          6           0        2.183051    5.032005    0.035004
     38          6           0        4.150043    2.116529    0.316750
     39          8           0        5.115438    2.841517    0.450941
     40          6           0        4.199661    0.542274    0.410375
     41          6           0        5.318331    0.058681   -0.413866
     42          8           0        6.377494   -0.340558    0.056675
     43          8           0        4.996190    0.152617   -1.759563
     44          6           0        6.097791   -0.277302   -2.649878
     45          1           0       -0.702817   -4.570167    0.105668
     46          1           0       -5.131438   -0.113950   -0.363593
     47          1           0       -0.753678    4.578370   -0.244840
     48          1           0        4.028921   -2.568257    0.077970
     49          1           0        1.944463   -4.272311    1.134291
     50          1           0        3.544052   -4.419719   -1.206468
     51          1           0        1.884895   -4.457493   -1.870317
     52          1           0        2.312563   -5.631016   -0.660938
     53          1           0        3.043628   -3.473150    2.494804
     54          1           0        3.016904   -1.669957    2.615312
     55          1           0        5.194277   -1.516400    2.744439
     56          1           0        5.562842   -3.054548    1.879824
     57          1           0       -2.260798   -5.794044    0.186420
     58          1           0       -3.642511   -5.492016   -0.955518
     59          1           0       -3.958193   -5.321395    0.682113
     60          1           0       -7.038661   -1.359039   -0.460044
     61          1           0       -6.177056   -1.297796    1.100901
     62          1           0       -7.430374   -2.457464    0.765904
     63          1           0       -4.783003    2.473804    1.028683
     64          1           0       -3.391278    4.268066   -0.986801
     65          1           0       -6.381118    2.914471   -0.488775
     66          1           0       -5.572310    1.966387   -1.768020
     67          1           0       -5.270174    3.639294   -1.661336
     68          1           0       -2.160738    4.729774    1.472098
     69          1           0       -3.901958    4.409767    1.906409
     70          1           0       -3.061075    6.789442    1.719432
     71          1           0       -4.665233    6.344404    1.149758
     72          1           0       -3.364975    6.737579    0.009184
     73          1           0        3.258082    5.109570    0.199560
     74          1           0        1.574355    5.450006    0.836220
     75          1           0        1.967065    5.590562   -0.875924
     76          1           0        4.461435    0.358091    1.452869
     77          1           0        6.735354    0.572391   -2.893855
     78          1           0        5.619941   -0.769352   -3.496990
     79          1           0        6.705506   -1.058791   -2.194630
 ---------------------------------------------------------------------

 SCF Done:  E(RCAM-B3LYP) =  -2034.89059185     A.U. after   19 cycles

 Excitation energies and oscillator strengths:

 Excited State   1:      Singlet-A      1.7132 eV  723.72 nm  f=0.3804  <S**2>=0.000
     155 ->158        -0.17433
     156 ->157         0.68635
     155 <-158        -0.10494
 This state for optimization and/or second-order correction.
 Total Energy, E(TD-HF/TD-DFT) =  -2034.82763469
 Copying the excited state density for this state as the 1-particle RhoCI density.

 Excited State   2:      Singlet-A      2.1719 eV  570.87 nm  f=0.1595  <S**2>=0.000
     155 ->157         0.65190
     156 ->158         0.25369

 Excited State   3:      Singlet-A      3.0436 eV  407.37 nm  f=0.0087  <S**2>=0.000
     154 ->157         0.68944

 Excited State   4:      Singlet-A      3.3767 eV  367.17 nm  f=0.0001  <S**2>=0.000
     152 ->157         0.52661
     152 ->159         0.21244
     152 ->160        -0.19355
     153 ->157         0.33044

 Excited State   5:      Singlet-A      3.4494 eV  359.43 nm  f=0.0001  <S**2>=0.000
     151 ->157         0.54284
     151 ->158         0.14366
     151 ->159        -0.28659
     151 ->160        -0.15571
     152 ->157        -0.13847
     153 ->157         0.16642

 The electronic state is 1-A.
 Alpha  occ. eigenvalues --  -46.90510 -19.25151 -19.19856 -19.19137 -19.18329
 Alpha  occ. eigenvalues --  -14.43515 -14.42020 -14.40077 -14.39900 -10.39154
 Alpha  occ. eigenvalues --  -10.35302 -10.34217 -10.33136 -10.32101 -10.31711
 Alpha  occ. eigenvalues --  -10.31699 -10.31541 -10.30853 -10.30446 -10.30154
 Alpha  occ. eigenvalues --  -10.29860 -10.29451 -10.29120 -10.28737 -10.28699
 Alpha  occ. eigenvalues --  -10.28544 -10.28464 -10.28318 -10.28293 -10.28290
 Alpha  occ. eigenvalues --  -10.28224 -10.27923 -10.27489 -10.27362 -10.27055
 Alpha  occ. eigenvalues --  -10.27013 -10.26858 -10.26275 -10.26203 -10.26078
 Alpha  occ. eigenvalues --  -10.25924 -10.25441 -10.24937  -3.18721  -1.93649
 Alpha  occ. eigenvalues --   -1.93152  -1.93023  -1.15565  -1.10085  -1.09797
 Alpha  occ. eigenvalues --   -1.07509  -1.04847  -1.04084  -1.02598  -1.01765
 Alpha  occ. eigenvalues --   -0.92615  -0.89530  -0.89408  -0.88220  -0.87723
 Alpha  occ. eigenvalues --   -0.87202  -0.85845  -0.84544  -0.83870  -0.82924
 Alpha  occ. eigenvalues --   -0.82256  -0.80916  -0.80780  -0.77863  -0.77215
 Alpha  occ. eigenvalues --   -0.77016  -0.76249  -0.75554  -0.73531  -0.72312
 Alpha  occ. eigenvalues --   -0.69421  -0.69022  -0.68021  -0.67160  -0.65661
 Alpha  occ. eigenvalues --   -0.65501  -0.65277  -0.64837  -0.63035  -0.60279
 Alpha  occ. eigenvalues --   -0.59778  -0.59487  -0.59095  -0.57820  -0.57015
 Alpha  occ. eigenvalues --   -0.56580  -0.56003  -0.55475  -0.54837  -0.53873
 Alpha  occ. eigenvalues --   -0.53550  -0.53262  -0.52854  -0.52810  -0.52511
 Alpha  occ. eigenvalues --   -0.52122  -0.51873  -0.51354  -0.50961  -0.50404
 Alpha  occ. eigenvalues --   -0.50237  -0.49739  -0.49522  -0.49171  -0.48898
 Alpha  occ. eigenvalues --   -0.48673  -0.48337  -0.47975  -0.47823  -0.47199
 Alpha  occ. eigenvalues --   -0.47038  -0.46733  -0.46610  -0.46154  -0.46017
 Alpha  occ. eigenvalues --   -0.45862  -0.45713  -0.45336  -0.45214  -0.44699
 Alpha  occ. eigenvalues --   -0.44549  -0.44145  -0.43752  -0.43660  -0.43005
 Alpha  occ. eigenvalues --   -0.42782  -0.42452  -0.42255  -0.41620  -0.41526
 Alpha  occ. eigenvalues --   -0.41300  -0.40510  -0.39993  -0.39737  -0.39490
 Alpha  occ. eigenvalues --   -0.38374  -0.37841  -0.37436  -0.37240  -0.36809
 Alpha  occ. eigenvalues --   -0.35920  -0.34515  -0.34342  -0.33358  -0.31787
 Alpha  occ. eigenvalues --   -0.31247  -0.30553  -0.30215  -0.29606  -0.24639
 Alpha  occ. eigenvalues --   -0.22179
 Alpha virt. eigenvalues --   -0.09751  -0.02362  -0.00003   0.02191   0.02313
 Alpha virt. eigenvalues --    0.04485   0.05244   0.05818   0.06082   0.07342
 Alpha virt. eigenvalues --    0.08376   0.08958   0.09142   0.09742   0.10184

 Mulliken charges:
               1
     1  Mg   0.785331
     2  C    0.057649
     3  C   -0.046940
     4  C   -0.059315
     5  C   -0.061781
     6  N   -0.314721
     7  C   -0.041964
     8  C   -0.026364
     9  C   -0.081522
    10  C    0.075871
    11  C    0.079219
    12  C    0.079377
    13  C   -0.094347
    14  H    0.009455
    15  N   -0.373726
    16  C    0.118507
    17  C   -0.145556
    18  C   -0.093445
    19  C    0.149512
    20  C    0.137335
    21  C    0.038705
    22  O   -0.215186
    23  C    0.007933
    24  N   -0.280199
    25  C    0.100422
    26  C   -0.079018
    27  C   -0.010879
    28  C    0.015048
    29  C    0.048797
    30  C    0.035193
    31  C    0.002596
    32  N   -0.334947
    33  C    0.122162
    34  C   -0.156292
    35  C    0.034148
    36  C    0.052441
    37  C    0.123162
    38  C   -0.011602
    39  O   -0.164497
    40  C    0.011792
    41  C    0.181452
    42  O   -0.214777
    43  O   -0.355876
    44  C    0.174338
    45  H   -0.040334
    46  H   -0.044500
    47  H   -0.027538
    48  H    0.012263
    49  H    0.017815
    50  H    0.020686
    51  H    0.028317
    52  H    0.022677
    53  H    0.018352
    54  H    0.019146
    55  H    0.047088
    56  H    0.036926
    57  H    0.029856
    58  H    0.029761
    59  H    0.037615
    60  H    0.042269
    61  H    0.031808
    62  H    0.018832
    63  H    0.032559
    64  H    0.009133
    65  H    0.015367
    66  H    0.022605
    67  H    0.009613
    68  H    0.019144
    69  H    0.007095
    70  H    0.015731
    71  H    0.017647
    72  H    0.018310
    73  H    0.041554
    74  H    0.025496
    75  H    0.026332
    76  H    0.036710
    77  H    0.051112
    78  H    0.034384
    79  H    0.038677
 Sum of Mulliken charges =  -0.00000

 Dipole moment (field-independent basis, Debye):
    X=             -2.7563    Y=              1.7417    Z=             -1.8138  Tot=              3.7311
 Quadrupole moment (field-independent basis, Debye-Ang):
   XX=           -296.2384   YY=           -247.2208   ZZ=           -252.4040
   XY=            -47.5626   XZ=            -14.6909   YZ=              1.0690

 Normal termination of Gaussian 16 at Tue Oct 12 15:55:26 2021.
