 Gaussian 16, Revision A.03,
 Gaussian 16:  ES64L-G16RevA.03 25-Dec-2016

 -----------------------------------
 #p cam-b3lyp/Def2SVP td=(nstates=5)
 -----------------------------------

 --------------------------------
 TDDFT excited states in gaussian
 --------------------------------
 Symbolic Z-matrix:
 Charge =  0 Multiplicity = 1

                         Standard orientation:
 ---------------------------------------------------------------------
 Center     Atomic      Atomic             Coordinates (Angstroms)
 Number     Number       Type             X           Y           Z
 ---------------------------------------------------------------------
      1         12           0       11.295844   -0.369199   -0.105798
      2          6           0        9.692404    2.668906    0.075221
      3          6           0       14.358276    1.101465    0.325549
      4          6           0       12.882955   -3.492087   -0.097914
      5          6           0        8.284005   -2.007236    0.308781
      6          7           0       11.851842    1.669005    0.381928
      7          6           0       11.082026    2.826283    0.236393
      8          6           0       11.901861    4.084752    0.532033
      9          6           0       13.328593    3.491465    0.411765
     10          6           0       13.210349    1.954238    0.457346
     11          6           0       14.122796    4.060545   -0.784259
     12          6           0       11.583980    4.676036    1.919727
     13          6           0       11.462601    6.236264    2.012972
     14          1           0       11.867678    6.846872    3.297494
     15          7           0       13.298814   -1.056363    0.030640
     16          6           0       14.417487   -0.300210    0.112032
     17          6           0       15.617601   -1.053320   -0.097642
     18          6           0       15.220897   -2.374778   -0.360681
     19          6           0       13.711149   -2.359426   -0.172653
     20          6           0       17.017745   -0.442364   -0.183395
     21          6           0       16.151855   -3.595897   -0.695993
     22          8           0       17.397385   -3.426211   -0.656434
     23          6           0       15.611861   -5.014951   -1.165375
     24          7           0       10.693687   -2.449489    0.380606
     25          6           0       11.495381   -3.520785    0.165381
     26          6           0       10.745822   -4.828244    0.181409
     27          6           0        9.276815   -4.387612    0.359290
     28          6           0        9.398621   -2.862458    0.309763
     29          6           0       11.019550   -5.753875   -1.050145
     30          6           0        8.579645   -5.017018    1.657932
     31          6           0        7.584664   -6.146245    1.366060
     32          7           0        9.361898    0.170548    0.087117
     33          6           0        8.180393   -0.591430    0.221276
     34          6           0        7.015743    0.289283    0.061652
     35          6           0        7.587432    1.547022   -0.071041
     36          6           0        8.976981    1.407320    0.079029
     37          6           0        5.563665   -0.030199    0.067882
     38          6           0        7.267169    2.971780   -0.238325
     39          8           0        6.216653    3.551276   -0.559651
     40          6           0        8.635441    3.763254   -0.194778
     41          6           0        8.890253    4.503625   -1.500851
     42          8           0        8.750703    4.074767   -2.650629
     43          8           0        9.235847    5.757526   -1.092458
     44          6           0        9.374164    6.763476   -2.132203
     45          1           0       15.341007    1.559069    0.456357
     46          1           0       13.251863   -4.516703   -0.179355
     47          1           0        7.298789   -2.462328    0.428579
     48          1           0       11.677268    4.849828   -0.211890
     49          1           0       13.818738    3.837025    1.321903
     50          1           0       13.827419    5.015019   -1.219904
     51          1           0       13.981525    3.344270   -1.593498
     52          1           0       15.183704    4.169103   -0.560114
     53          1           0       12.263815    4.324790    2.695493
     54          1           0       10.668891    4.173299    2.233654
     55          1           0       10.430803    6.522832    1.809752
     56          1           0       12.132607    6.678026    1.274059
     57          1           0       17.407302   -0.742021   -1.156041
     58          1           0       17.573630   -0.668542    0.726597
     59          1           0       16.839388    0.630990   -0.247588
     60          1           0       15.379196   -5.564320   -0.253900
     61          1           0       16.439105   -5.495143   -1.687525
     62          1           0       14.858111   -4.816445   -1.927798
     63          1           0       11.070109   -5.388901    1.058203
     64          1           0        8.618160   -4.539477   -0.495500
     65          1           0       10.095411   -6.162556   -1.457934
     66          1           0       11.672603   -6.592105   -0.807946
     67          1           0       11.586868   -5.195935   -1.793953
     68          1           0        7.982553   -4.287536    2.204989
     69          1           0        9.339328   -5.332128    2.373172
     70          1           0        7.677211   -6.922375    2.125974
     71          1           0        7.795283   -6.577975    0.387855
     72          1           0        6.543862   -5.823813    1.343025
     73          1           0        5.469476   -1.115338    0.109634
     74          1           0        5.054178    0.539166   -0.709769
     75          1           0        5.192082    0.295737    1.039964
     76          1           0        8.689486    4.454080    0.647034
     77          1           0        9.926252    6.421009   -3.008349
     78          1           0        9.815386    7.717535   -1.843828
     79          1           0        8.387054    7.067528   -2.481376
     80         12           0      -10.824883   -0.808122   -0.399704
     81          6           0      -11.746237    2.579872   -0.248690
     82          6           0       -7.646412    0.089092    0.556580
     83          6           0      -10.264977   -4.019397    0.165775
     84          6           0      -14.205402   -1.621759   -1.126289
     85          7           0       -9.906187    1.062735    0.332140
     86          6           0      -10.468152    2.365321    0.308293
     87          6           0       -9.456191    3.427443    0.441920
     88          6           0       -8.112808    2.593085    0.603075
     89          6           0       -8.561102    1.147724    0.454602
     90          6           0       -6.991715    3.082745   -0.345294
     91          6           0       -9.601346    4.280626    1.665004
     92          6           0      -10.060695    3.574974    2.949611
     93          1           0       -9.515718    4.008471    4.366039
     94          7           0       -9.162078   -1.876067    0.242159
     95          6           0       -7.952444   -1.323034    0.453350
     96          6           0       -7.002898   -2.381667    0.689189
     97          6           0       -7.710224   -3.596117    0.510726
     98          6           0       -9.110746   -3.219277    0.260567
     99          6           0       -5.560449   -2.203360    1.080103
    100          6           0       -7.106112   -4.998241    0.582164
    101          8           0       -5.925081   -5.160807    0.819236
    102          6           0       -7.831408   -6.308692    0.499742
    103          7           0      -12.098934   -2.536844   -0.217063
    104          6           0      -11.603589   -3.798251   -0.019976
    105          6           0      -12.674511   -4.891148   -0.344314
    106          6           0      -13.980466   -4.046250   -0.445636
    107          6           0      -13.407188   -2.657699   -0.625864
    108          6           0      -12.435998   -5.690696   -1.647981
    109          6           0      -14.860358   -3.948288    0.888756
    110          6           0      -16.323942   -4.159705    0.744295
    111          7           0      -12.558614    0.176784   -0.738494
    112          6           0      -13.737655   -0.271772   -1.190022
    113          6           0      -14.537962    0.869979   -1.773793
    114          6           0      -13.722484    1.999968   -1.447349
    115          6           0      -12.607102    1.538570   -0.692559
    116          6           0      -15.884584    0.873569   -2.482922
    117          6           0      -13.724775    3.434437   -1.448532
    118          8           0      -14.558628    4.227835   -1.855661
    119          6           0      -12.406360    3.862937   -0.686393
    120          6           0      -12.839932    4.543298    0.595497
    121          8           0      -13.366992    4.049086    1.536747
    122          8           0      -12.412892    5.853178    0.544739
    123          6           0      -12.507389    6.554002    1.829355
    124          1           0       -6.603836    0.394910    0.664220
    125          1           0      -10.059098   -5.091041    0.174311
    126          1           0      -15.184633   -1.950586   -1.480423
    127          1           0       -9.519318    4.056189   -0.446214
    128          1           0       -7.700547    2.539731    1.610642
    129          1           0       -6.160416    3.156267    0.356099
    130          1           0       -7.316852    4.039904   -0.753169
    131          1           0       -6.726881    2.349646   -1.107480
    132          1           0      -10.142005    5.211720    1.493076
    133          1           0       -8.677810    4.748206    2.007107
    134          1           0       -9.845058    2.519744    2.778610
    135          1           0      -11.144030    3.680440    2.889016
    136          1           0       -5.293822   -2.864425    1.905393
    137          1           0       -5.362170   -1.152910    1.292686
    138          1           0       -5.008117   -2.501762    0.188721
    139          1           0       -8.515122   -6.518551    1.321667
    140          1           0       -7.012304   -7.008925    0.664265
    141          1           0       -8.174141   -6.547420   -0.507624
    142          1           0      -12.683674   -5.600561    0.483083
    143          1           0      -14.606953   -4.316905   -1.295947
    144          1           0      -13.213972   -5.425339   -2.363606
    145          1           0      -12.235722   -6.742959   -1.446819
    146          1           0      -11.501608   -5.351755   -2.093911
    147          1           0      -14.683175   -3.005641    1.406049
    148          1           0      -14.451368   -4.733468    1.524848
    149          1           0      -16.704733   -4.956431    1.382965
    150          1           0      -16.636967   -4.352909   -0.282019
    151          1           0      -16.891408   -3.282480    1.053858
    152          1           0      -16.537466    1.521322   -1.897867
    153          1           0      -16.173656   -0.164590   -2.651102
    154          1           0      -15.717170    1.406734   -3.418680
    155          1           0      -11.769791    4.508306   -1.291272
    156          1           0      -12.392763    5.890544    2.686442
    157          1           0      -13.510246    6.980740    1.810105
    158          1           0      -11.833481    7.406572    1.749748
 ---------------------------------------------------------------------

 SCF Done:  E(RCAM-B3LYP) =  -4069.81782087     A.U. after   19 cycles

 Excitation energies and oscillator strengths:

 Excited State   1:      Singlet-A      1.6642 eV  745.01 nm  f=0.4590  <S**2>=0.000
     309 -> 316        0.17121
     312 -> 313        0.68336
     309 <- 316        0.10708
 This state for optimization and/or second-order correction.
 Total Energy, E(TD-HF/TD-DFT) =  -4069.75666288
 Copying the excited state density for this state as the 1-particle RhoCI density.

 Excited State   2:      Singlet-A      1.7089 eV  725.50 nm  f=0.2950  <S**2>=0.000
     310 -> 315        0.17341
     311 -> 314        0.68157
     310 <- 315        0.10453

 Excited State   3:      Singlet-A      2.2476 eV  551.62 nm  f=0.0869  <S**2>=0.000
     310 -> 314        0.62526
     311 -> 315       -0.31532

 Excited State   4:      Singlet-A      2.2661 eV  547.13 nm  f=0.1047  <S**2>=0.000
     309 -> 313        0.62906
     312 -> 316       -0.30992

 Excited State   5:      Singlet-A      2.9191 eV  424.73 nm  f=0.0000  <S**2>=0.000
     311 -> 313        0.70699

 The electronic state is 1-A.
 Alpha  occ. eigenvalues --  -46.89168 -46.88516 -19.26378 -19.24533 -19.20359
 Alpha  occ. eigenvalues --  -19.20279 -19.19679 -19.19059 -19.18454 -19.18208
 Alpha  occ. eigenvalues --  -14.42402 -14.42305 -14.42163 -14.41824 -14.40222
 Alpha  occ. eigenvalues --  -14.39530 -14.39471 -14.39104 -10.39969 -10.39175
 Alpha  occ. eigenvalues --  -10.36670 -10.34927 -10.34759 -10.34565 -10.32196
 Alpha  occ. eigenvalues --  -10.32072 -10.31585 -10.31365 -10.31174 -10.31138
 Alpha  occ. eigenvalues --  -10.31091 -10.30888 -10.30741 -10.30598 -10.30520
 Alpha  occ. eigenvalues --  -10.30466 -10.30409 -10.30394 -10.29882 -10.29667
 Alpha  occ. eigenvalues --  -10.29251 -10.28824 -10.28651 -10.28487 -10.28475
 Alpha  occ. eigenvalues --  -10.28470 -10.28436 -10.28344 -10.28267 -10.28207
 Alpha  occ. eigenvalues --  -10.28137 -10.28035 -10.28013 -10.28000 -10.27993
 Alpha  occ. eigenvalues --  -10.27979 -10.27917 -10.27737 -10.27722 -10.27712
 Alpha  occ. eigenvalues --  -10.27684 -10.27605 -10.27464 -10.27362 -10.27287
 Alpha  occ. eigenvalues --  -10.26979 -10.26975 -10.26874 -10.26715 -10.26693
 Alpha  occ. eigenvalues --  -10.26575 -10.26564 -10.26521 -10.26449 -10.26359
 Alpha  occ. eigenvalues --  -10.26347 -10.26277 -10.26057 -10.25961 -10.25912
 Alpha  occ. eigenvalues --  -10.25705 -10.25462 -10.25443 -10.25332 -10.25065
 Alpha  occ. eigenvalues --  -10.24584  -3.17700  -3.17161  -1.92567  -1.92143
 Alpha  occ. eigenvalues --   -1.92031  -1.92022  -1.91621  -1.91479  -1.17196
 Alpha  occ. eigenvalues --   -1.16853  -1.10370  -1.09886  -1.08891  -1.08612
 Alpha  occ. eigenvalues --   -1.08371  -1.07764  -1.04666  -1.04520  -1.03997
 Alpha  occ. eigenvalues --   -1.03931  -1.03512  -1.03272  -1.02560  -1.02147
 Alpha  occ. eigenvalues --   -0.93115  -0.91420  -0.89781  -0.89378  -0.88856
 Alpha  occ. eigenvalues --   -0.88823  -0.88697  -0.88331  -0.87451  -0.87272
 Alpha  occ. eigenvalues --   -0.86978  -0.86387  -0.86273  -0.85743  -0.84680
 Alpha  occ. eigenvalues --   -0.84310  -0.84115  -0.83876  -0.82637  -0.82500
 Alpha  occ. eigenvalues --   -0.81636  -0.81635  -0.81119  -0.80821  -0.80453
 Alpha  occ. eigenvalues --   -0.80186  -0.77921  -0.77892  -0.77468  -0.77448
 Alpha  occ. eigenvalues --   -0.76769  -0.76744  -0.75979  -0.75889  -0.75286
 Alpha  occ. eigenvalues --   -0.75066  -0.72699  -0.72639  -0.71719  -0.71616
 Alpha  occ. eigenvalues --   -0.69557  -0.69169  -0.68960  -0.68744  -0.68638
 Alpha  occ. eigenvalues --   -0.67887  -0.67246  -0.67028  -0.66111  -0.65814
 Alpha  occ. eigenvalues --   -0.65077  -0.65012  -0.64995  -0.64551  -0.64464
 Alpha  occ. eigenvalues --   -0.64312  -0.62688  -0.62033  -0.59948  -0.59937
 Alpha  occ. eigenvalues --   -0.59592  -0.59355  -0.58998  -0.58916  -0.58880
 Alpha  occ. eigenvalues --   -0.58596  -0.58062  -0.57732  -0.57318  -0.57235
 Alpha  occ. eigenvalues --   -0.56497  -0.56035  -0.55955  -0.55765  -0.55356
 Alpha  occ. eigenvalues --   -0.55344  -0.55035  -0.55012  -0.54540  -0.54014
 Alpha  occ. eigenvalues --   -0.53752  -0.53369  -0.53131  -0.52979  -0.52794
 Alpha  occ. eigenvalues --   -0.52787  -0.52584  -0.52332  -0.52207  -0.52078
 Alpha  occ. eigenvalues --   -0.51986  -0.51587  -0.51561  -0.51355  -0.51354
 Alpha  occ. eigenvalues --   -0.51176  -0.51111  -0.51098  -0.50862  -0.50860
 Alpha  occ. eigenvalues --   -0.50075  -0.49922  -0.49541  -0.49454  -0.49336
 Alpha  occ. eigenvalues --   -0.49330  -0.49182  -0.49049  -0.48851  -0.48711
 Alpha  occ. eigenvalues --   -0.48556  -0.48497  -0.48291  -0.48261  -0.48148
 Alpha  occ. eigenvalues --   -0.47846  -0.47677  -0.47488  -0.47452  -0.47172
 Alpha  occ. eigenvalues --   -0.47126  -0.47048  -0.46856  -0.46843  -0.46715
 Alpha  occ. eigenvalues --   -0.46578  -0.46383  -0.46316  -0.45993  -0.45940
 Alpha  occ. eigenvalues --   -0.45816  -0.45562  -0.45445  -0.45250  -0.45159
 Alpha  occ. eigenvalues --   -0.44754  -0.44622  -0.44435  -0.44312  -0.44116
 Alpha  occ. eigenvalues --   -0.43981  -0.43827  -0.43784  -0.43770  -0.43532
 Alpha  occ. eigenvalues --   -0.43474  -0.43267  -0.43165  -0.42935  -0.42734
 Alpha  occ. eigenvalues --   -0.42464  -0.42459  -0.42445  -0.42328  -0.42147
 Alpha  occ. eigenvalues --   -0.42116  -0.42053  -0.41951  -0.41857  -0.41583
 Alpha  occ. eigenvalues --   -0.41142  -0.41057  -0.40773  -0.40715  -0.40585
 Alpha  occ. eigenvalues --   -0.40320  -0.39773  -0.39699  -0.39342  -0.39099
 Alpha  occ. eigenvalues --   -0.38686  -0.38382  -0.38371  -0.38151  -0.37812
 Alpha  occ. eigenvalues --   -0.37392  -0.37260  -0.36971  -0.36851  -0.36406
 Alpha  occ. eigenvalues --   -0.36376  -0.35690  -0.35036  -0.34871  -0.34797
 Alpha  occ. eigenvalues --   -0.34159  -0.33026  -0.32961  -0.31576  -0.31313
 Alpha  occ. eigenvalues --   -0.31193  -0.31036  -0.30497  -0.30488  -0.30459
 Alpha  occ. eigenvalues --   -0.29845  -0.29832  -0.29592  -0.24245  -0.24194
 Alpha  occ. eigenvalues --   -0.21075  -0.20983
 Alpha virt. eigenvalues --   -0.08717  -0.08575  -0.02014  -0.01723   0.00174
 Alpha virt. eigenvalues --    0.00277   0.01450   0.01644   0.01982   0.02579
 Alpha virt. eigenvalues --    0.04978   0.05052   0.05135   0.05497   0.05959

 Mulliken charges:
               1
     1  Mg   0.836086
     2  C   -0.066032
     3  C   -0.099915
     4  C   -0.076361
     5  C   -0.074223
     6  N   -0.335353
     7  C   -0.053026
     8  C   -0.007746
     9  C   -0.038848
    10  C    0.100372
    11  C    0.060706
    12  C    0.062733
    13  C   -0.070232
    14  H    0.025924
    15  N   -0.347173
    16  C    0.138467
    17  C   -0.175769
    18  C   -0.042911
    19  C    0.173846
    20  C    0.164812
    21  C    0.001192
    22  O   -0.229665
    23  C    0.054738
    24  N   -0.257142
    25  C   -0.006398
    26  C   -0.021880
    27  C   -0.004527
    28  C    0.016283
    29  C    0.057133
    30  C    0.038468
    31  C   -0.002816
    32  N   -0.349120
    33  C    0.091979
    34  C   -0.191197
    35  C    0.000838
    36  C    0.118629
    37  C    0.151178
    38  C    0.079048
    39  O   -0.194997
    40  C    0.005637
    41  C    0.224897
    42  O   -0.217147
    43  O   -0.326154
    44  C    0.174596
    45  H   -0.017200
    46  H   -0.042427
    47  H   -0.036176
    48  H    0.000531
    49  H    0.005421
    50  H    0.014574
    51  H    0.013585
    52  H    0.016649
    53  H    0.006733
    54  H    0.005814
    55  H    0.043282
    56  H    0.028555
    57  H    0.042036
    58  H    0.047485
    59  H   -0.009989
    60  H    0.058803
    61  H    0.031661
    62  H    0.040089
    63  H    0.020179
    64  H    0.008956
    65  H    0.024765
    66  H    0.011781
    67  H    0.017488
    68  H    0.008375
    69  H    0.004596
    70  H    0.016593
    71  H    0.008664
    72  H    0.020118
    73  H   -0.000256
    74  H    0.052178
    75  H    0.027016
    76  H    0.034402
    77  H    0.037799
    78  H    0.033763
    79  H    0.035227
    80  Mg   0.832797
    81  C   -0.065476
    82  C   -0.081848
    83  C   -0.051985
    84  C   -0.084300
    85  N   -0.298317
    86  C   -0.025795
    87  C    0.018477
    88  C   -0.084406
    89  C    0.035775
    90  C    0.085076
    91  C    0.007913
    92  C   -0.055298
    93  H    0.025504
    94  N   -0.351559
    95  C    0.137498
    96  C   -0.183461
    97  C   -0.001363
    98  C    0.138348
    99  C    0.160181
   100  C   -0.032192
   101  O   -0.208292
   102  C    0.058087
   103  N   -0.289677
   104  C    0.015906
   105  C   -0.027185
   106  C   -0.062450
   107  C    0.016136
   108  C    0.089672
   109  C    0.056758
   110  C    0.010199
   111  N   -0.344941
   112  C    0.137389
   113  C   -0.195420
   114  C   -0.004377
   115  C    0.133790
   116  C    0.146211
   117  C    0.051131
   118  O   -0.169784
   119  C    0.007146
   120  C    0.187062
   121  O   -0.181150
   122  O   -0.345603
   123  C    0.175667
   124  H   -0.026116
   125  H   -0.056050
   126  H   -0.024964
   127  H    0.014796
   128  H    0.028575
   129  H    0.016727
   130  H    0.023646
   131  H    0.024514
   132  H   -0.006926
   133  H   -0.000746
   134  H    0.031041
   135  H    0.037393
   136  H    0.041787
   137  H   -0.000646
   138  H    0.032176
   139  H    0.043640
   140  H    0.017822
   141  H    0.031532
   142  H    0.006749
   143  H    0.007186
   144  H    0.018841
   145  H    0.023504
   146  H    0.006614
   147  H    0.033414
   148  H   -0.000529
   149  H    0.015968
   150  H    0.005025
   151  H    0.013754
   152  H    0.046383
   153  H    0.016072
   154  H    0.034346
   155  H    0.034316
   156  H    0.056339
   157  H    0.035291
   158  H    0.036685
 Sum of Mulliken charges =  -0.00000

 Dipole moment (field-independent basis, Debye):
    X=              1.5651    Y=             -3.4999    Z=             -0.7208  Tot=              3.9010
 Quadrupole moment (field-independent basis, Debye-Ang):
   XX=           -538.0332   YY=           -463.1028   ZZ=           -519.0166
   XY=             71.6597   XZ=             10.3954   YZ=             14.0415

 Normal termination of Gaussian 16 at Thu Sep 16 10:35:06 2021.
