 Gaussian 16, Revision A.03,
 Gaussian 16:  ES64L-G16RevA.03 25-Dec-2016

 ----------------------------------------------------------
 #p cam-b3lyp/Def2SVP td=(nstates=5) density=(transition=1)
 ----------------------------------------------------------

 --------------------------------
 TDDFT excited states in gaussian
 --------------------------------
 Symbolic Z-matrix:
 Charge =  0 Multiplicity = 1

                         Standard orientation:
 ---------------------------------------------------------------------
 Center     Atomic      Atomic             Coordinates (Angstroms)
 Number     Number       Type             X           Y           Z
 ---------------------------------------------------------------------
      1         12           0       29.205381    0.183447    0.094979
      2          6           0       26.125085   -1.293216   -0.311359
      3          6           0       27.917941    3.291677   -0.544405
      4          6           0       32.311697    1.683028    0.706101
      5          6           0       30.416209   -2.697748    1.564271
      6          7           0       27.162839    0.864838   -0.160003
      7          6           0       26.037986    0.101249   -0.483618
      8          6           0       24.815817    0.986298   -0.741038
      9          6           0       25.528917    2.344376   -0.962692
     10          6           0       26.975511    2.212767   -0.443875
     11          6           0       25.387557    2.874655   -2.406267
     12          6           0       23.831339    0.981688    0.445192
     13          6           0       22.304483    0.909218    0.097053
     14          1           0       21.387634    1.589145    1.037273
     15          7           0       29.980437    2.157596    0.026230
     16          6           0       29.322612    3.280430   -0.343002
     17          6           0       30.196052    4.395382   -0.556059
     18          6           0       31.502360    3.929561   -0.333830
     19          6           0       31.315700    2.495132    0.137871
     20          6           0       29.746585    5.755081   -1.094784
     21          6           0       32.837577    4.746931   -0.472936
     22          8           0       32.761981    5.974909   -0.733815
     23          6           0       34.284556    4.095488   -0.386320
     24          7           0       31.007552   -0.335972    1.282064
     25          6           0       32.155320    0.383257    1.236811
     26          6           0       33.341206   -0.367492    1.785988
     27          6           0       32.754270   -1.757143    2.114861
     28          6           0       31.320613   -1.623098    1.595202
     29          6           0       34.597296   -0.378327    0.852949
     30          6           0       32.931713   -2.171762    3.652805
     31          6           0       34.015569   -3.224927    3.910545
     32          7           0       28.482963   -1.655505    0.501249
     33          6           0       29.080135   -2.793839    1.086177
     34          6           0       28.192551   -3.950771    0.909416
     35          6           0       27.073379   -3.399492    0.301232
     36          6           0       27.273292   -2.012456    0.206093
     37          6           0       28.382044   -5.373266    1.298313
     38          6           0       25.734424   -3.724083   -0.210949
     39          8           0       25.189591   -4.809074   -0.472869
     40          6           0       25.073206   -2.364909   -0.675632
     41          6           0       24.757116   -2.382125   -2.165161
     42          8           0       25.482839   -2.770881   -3.085802
     43          8           0       23.470021   -1.936364   -2.221460
     44          6           0       22.815300   -2.006113   -3.517073
     45          1           0       27.520661    4.287240   -0.752476
     46          1           0       33.342848    2.008810    0.858284
     47          1           0       30.739644   -3.642246    2.006340
     48          1           0       24.278655    0.621090   -1.616986
     49          1           0       24.978446    3.023098   -0.311290
     50          1           0       24.576218    2.509235   -3.035751
     51          1           0       26.290954    2.552023   -2.923623
     52          1           0       25.303394    3.960629   -2.439868
     53          1           0       23.999770    1.805340    1.138437
     54          1           0       24.150610    0.146298    1.068788
     55          1           0       22.007436   -0.137218    0.028063
     56          1           0       22.145062    1.413533   -0.857047
     57          1           0       30.340034    5.923132   -1.993208
     58          1           0       29.747619    6.488383   -0.288238
     59          1           0       28.725232    5.585194   -1.435367
     60          1           0       34.532069    4.053386    0.673723
     61          1           0       34.956787    4.784143   -0.897608
     62          1           0       34.252472    3.199911   -1.007404
     63          1           0       33.653094    0.126875    2.706093
     64          1           0       33.090697   -2.585413    1.491691
     65          1           0       35.031182   -1.374909    0.776057
     66          1           0       35.380645    0.297181    1.196202
     67          1           0       34.320196    0.026585   -0.119502
     68          1           0       32.032271   -2.626093    4.068160
     69          1           0       33.089094   -1.282412    4.262944
     70          1           0       34.548380   -2.985483    4.830975
     71          1           0       34.722747   -3.235075    3.081430
     72          1           0       33.632317   -4.241126    4.001207
     73          1           0       29.399640   -5.474599    1.675633
     74          1           0       28.019108   -6.027252    0.505171
     75          1           0       27.765057   -5.523437    2.184894
     76          1           0       24.178017   -2.120962   -0.102975
     77          1           0       23.434979   -1.659432   -4.345039
     78          1           0       21.856338   -1.497573   -3.616289
     79          1           0       22.546552   -3.039733   -3.736528
     80         12           0      -29.025185    0.483896    0.439131
     81          6           0      -27.421416   -2.052269   -1.374860
     82          6           0      -28.292072    2.650560   -2.134256
     83          6           0      -30.512470    2.861129    2.179367
     84          6           0      -29.543534   -1.831732    3.029860
     85          7           0      -28.051497    0.238347   -1.535475
     86          6           0      -27.433076   -0.876834   -2.101109
     87          6           0      -27.115132   -0.701968   -3.637987
     88          6           0      -27.271291    0.803240   -3.736310
     89          6           0      -27.927840    1.287171   -2.377819
     90          6           0      -25.844850    1.513710   -3.844733
     91          6           0      -28.323030   -1.440871   -4.368072
     92          6           0      -27.967379   -2.325529   -5.642824
     93          1           0      -26.805902   -1.709316   -6.379925
     94          7           0      -29.212680    2.453278    0.135280
     95          6           0      -28.863051    3.163757   -0.933404
     96          6           0      -29.239210    4.548513   -0.825551
     97          6           0      -30.044933    4.618281    0.328192
     98          6           0      -29.904588    3.266488    0.989486
     99          6           0      -28.908026    5.623971   -1.794267
    100          6           0      -30.959878    5.719374    0.823305
    101          8           0      -31.798372    5.545327    1.714954
    102          6           0      -30.793997    7.146017    0.292488
    103          7           0      -29.866969    0.498208    2.386781
    104          6           0      -30.484800    1.654692    2.800646
    105          6           0      -31.220531    1.367465    4.107770
    106          6           0      -31.016128   -0.207503    4.346525
    107          6           0      -30.145718   -0.584970    3.176805
    108          6           0      -30.718985    2.346552    5.227352
    109          6           0      -32.273169   -1.050380    4.494227
    110          6           0      -32.284231   -1.943659    5.774111
    111          7           0      -28.558099   -1.515768    0.775362
    112          6           0      -28.821219   -2.341669    1.913031
    113          6           0      -28.282929   -3.640066    1.715822
    114          6           0      -27.729278   -3.552294    0.427414
    115          6           0      -27.886703   -2.236179   -0.054355
    116          6           0      -28.313423   -4.852757    2.589258
    117          6           0      -27.046756   -4.275610   -0.597254
    118          8           0      -26.626465   -5.406868   -0.663251
    119          6           0      -26.929714   -3.343623   -1.836396
    120          6           0      -25.534821   -3.392023   -2.345208
    121          8           0      -24.529322   -2.919375   -1.822705
    122          8           0      -25.577223   -4.008177   -3.530513
    123          6           0      -24.333764   -4.100983   -4.266417
    124          1           0      -28.248019    3.403388   -2.923878
    125          1           0      -30.981320    3.694402    2.708765
    126          1           0      -29.736678   -2.599733    3.781828
    127          1           0      -26.178924   -1.237596   -3.792145
    128          1           0      -27.927269    1.060113   -4.567388
    129          1           0      -25.020913    0.801102   -3.802212
    130          1           0      -25.749625    2.216312   -3.017079
    131          1           0      -25.886799    2.043118   -4.796673
    132          1           0      -29.090474   -0.757362   -4.730111
    133          1           0      -28.810808   -2.047320   -3.604477
    134          1           0      -28.751363   -2.244534   -6.395848
    135          1           0      -27.974959   -3.389831   -5.406236
    136          1           0      -29.847563    5.915906   -2.265437
    137          1           0      -28.243174    5.263465   -2.577957
    138          1           0      -28.453401    6.499010   -1.330757
    139          1           0      -31.304325    7.693406    1.084639
    140          1           0      -31.223858    7.303531   -0.697413
    141          1           0      -29.789102    7.567800    0.297537
    142          1           0      -32.295860    1.544861    4.093104
    143          1           0      -30.419358   -0.341187    5.248890
    144          1           0      -31.619154    2.710564    5.722748
    145          1           0      -30.088623    3.155849    4.858729
    146          1           0      -30.280838    1.799764    6.063142
    147          1           0      -32.486782   -1.690485    3.638803
    148          1           0      -33.054162   -0.318888    4.706523
    149          1           0      -31.427621   -1.717778    6.409376
    150          1           0      -32.094617   -2.990138    5.536164
    151          1           0      -33.199803   -1.801840    6.348690
    152          1           0      -29.348828   -5.172747    2.469221
    153          1           0      -28.001972   -4.527757    3.581725
    154          1           0      -27.685557   -5.657201    2.208761
    155          1           0      -27.533819   -3.855500   -2.586675
    156          1           0      -23.564744   -4.556287   -3.641765
    157          1           0      -23.872757   -3.161444   -4.572976
    158          1           0      -24.540347   -4.735874   -5.128196
 ---------------------------------------------------------------------

 SCF Done:  E(RCAM-B3LYP) =  -4069.85321547     A.U. after   19 cycles

 Excitation energies and oscillator strengths:

 Excited State   1:      Singlet-A      1.7088 eV  725.58 nm  f=0.3558  <S**2>=0.000
     309 -> 315        0.17445
     311 -> 313        0.68606
     309 <- 315        0.10518
 This state for optimization and/or second-order correction.
 Total Energy, E(TD-HF/TD-DFT) =  -4069.79041970
 Copying the excited state density for this state as the 1-particle RhoCI density.

 Excited State   2:      Singlet-A      1.7258 eV  718.40 nm  f=0.3901  <S**2>=0.000
     310 -> 316       -0.16127
     312 -> 314        0.68774

 Excited State   3:      Singlet-A      2.2475 eV  551.64 nm  f=0.0933  <S**2>=0.000
     309 -> 313        0.62547
     311 -> 315       -0.31551

 Excited State   4:      Singlet-A      2.2841 eV  542.81 nm  f=0.1220  <S**2>=0.000
     310 -> 314        0.63702
     312 -> 316        0.28302

 Excited State   5:      Singlet-A      3.2327 eV  383.53 nm  f=0.0000  <S**2>=0.000
     312 -> 313        0.70711

 The electronic state is 1-A.
 Alpha  occ. eigenvalues --  -46.89172 -46.87760 -19.26358 -19.25250 -19.20261
 Alpha  occ. eigenvalues --  -19.19911 -19.19683 -19.18784 -19.18443 -19.17396
 Alpha  occ. eigenvalues --  -14.42405 -14.42232 -14.42171 -14.41612 -14.40226
 Alpha  occ. eigenvalues --  -14.40214 -14.39106 -14.38460 -10.39952 -10.38304
 Alpha  occ. eigenvalues --  -10.36675 -10.36228 -10.34749 -10.33145 -10.32197
 Alpha  occ. eigenvalues --  -10.32046 -10.31896 -10.31590 -10.31356 -10.31182
 Alpha  occ. eigenvalues --  -10.31091 -10.31005 -10.30672 -10.30619 -10.30477
 Alpha  occ. eigenvalues --  -10.30440 -10.30397 -10.30107 -10.29672 -10.29057
 Alpha  occ. eigenvalues --  -10.28999 -10.28904 -10.28809 -10.28491 -10.28476
 Alpha  occ. eigenvalues --  -10.28430 -10.28348 -10.28330 -10.28156 -10.28018
 Alpha  occ. eigenvalues --  -10.28012 -10.27970 -10.27968 -10.27911 -10.27820
 Alpha  occ. eigenvalues --  -10.27740 -10.27708 -10.27608 -10.27542 -10.27520
 Alpha  occ. eigenvalues --  -10.27516 -10.27470 -10.27293 -10.27136 -10.27087
 Alpha  occ. eigenvalues --  -10.27066 -10.26986 -10.26912 -10.26733 -10.26687
 Alpha  occ. eigenvalues --  -10.26623 -10.26566 -10.26525 -10.26279 -10.26216
 Alpha  occ. eigenvalues --  -10.26153 -10.26052 -10.26022 -10.25969 -10.25879
 Alpha  occ. eigenvalues --  -10.25790 -10.25760 -10.25701 -10.25416 -10.24584
 Alpha  occ. eigenvalues --  -10.23575  -3.17704  -3.16469  -1.92570  -1.92147
 Alpha  occ. eigenvalues --   -1.92034  -1.91379  -1.90905  -1.90801  -1.17091
 Alpha  occ. eigenvalues --   -1.16833  -1.10348  -1.09360  -1.08616  -1.08356
 Alpha  occ. eigenvalues --   -1.07748  -1.07075  -1.04976  -1.04672  -1.04001
 Alpha  occ. eigenvalues --   -1.03905  -1.03517  -1.02913  -1.02336  -1.02148
 Alpha  occ. eigenvalues --   -0.92642  -0.91416  -0.89635  -0.88874  -0.88835
 Alpha  occ. eigenvalues --   -0.88692  -0.88474  -0.88413  -0.87968  -0.87276
 Alpha  occ. eigenvalues --   -0.87024  -0.86984  -0.86627  -0.86390  -0.84310
 Alpha  occ. eigenvalues --   -0.83946  -0.83893  -0.83518  -0.82504  -0.82345
 Alpha  occ. eigenvalues --   -0.81835  -0.81636  -0.81263  -0.81118  -0.80370
 Alpha  occ. eigenvalues --   -0.80188  -0.78898  -0.77935  -0.77475  -0.77416
 Alpha  occ. eigenvalues --   -0.76756  -0.76742  -0.75885  -0.75592  -0.75291
 Alpha  occ. eigenvalues --   -0.74970  -0.73094  -0.72704  -0.71722  -0.71396
 Alpha  occ. eigenvalues --   -0.69194  -0.69178  -0.68966  -0.68862  -0.67882
 Alpha  occ. eigenvalues --   -0.67599  -0.67381  -0.67249  -0.66127  -0.65405
 Alpha  occ. eigenvalues --   -0.65235  -0.65075  -0.65006  -0.64990  -0.64554
 Alpha  occ. eigenvalues --   -0.64496  -0.62684  -0.62465  -0.60780  -0.59943
 Alpha  occ. eigenvalues --   -0.59592  -0.59585  -0.59131  -0.58919  -0.58620
 Alpha  occ. eigenvalues --   -0.58604  -0.57756  -0.57725  -0.57292  -0.57232
 Alpha  occ. eigenvalues --   -0.56633  -0.55964  -0.55754  -0.55654  -0.55341
 Alpha  occ. eigenvalues --   -0.55320  -0.55013  -0.54451  -0.53816  -0.53763
 Alpha  occ. eigenvalues --   -0.53529  -0.53367  -0.53156  -0.53136  -0.52792
 Alpha  occ. eigenvalues --   -0.52595  -0.52586  -0.52533  -0.52147  -0.52011
 Alpha  occ. eigenvalues --   -0.51763  -0.51583  -0.51352  -0.51306  -0.51178
 Alpha  occ. eigenvalues --   -0.51096  -0.51026  -0.50867  -0.50726  -0.50404
 Alpha  occ. eigenvalues --   -0.50291  -0.49973  -0.49940  -0.49629  -0.49459
 Alpha  occ. eigenvalues --   -0.49325  -0.49252  -0.49052  -0.48625  -0.48513
 Alpha  occ. eigenvalues --   -0.48507  -0.48408  -0.48264  -0.48142  -0.47889
 Alpha  occ. eigenvalues --   -0.47843  -0.47681  -0.47667  -0.47531  -0.47472
 Alpha  occ. eigenvalues --   -0.47176  -0.47169  -0.46859  -0.46732  -0.46574
 Alpha  occ. eigenvalues --   -0.46553  -0.46386  -0.46382  -0.46069  -0.46001
 Alpha  occ. eigenvalues --   -0.45565  -0.45265  -0.45248  -0.45054  -0.44771
 Alpha  occ. eigenvalues --   -0.44698  -0.44545  -0.44440  -0.44430  -0.44281
 Alpha  occ. eigenvalues --   -0.44117  -0.43787  -0.43767  -0.43684  -0.43652
 Alpha  occ. eigenvalues --   -0.43478  -0.43276  -0.43072  -0.42940  -0.42841
 Alpha  occ. eigenvalues --   -0.42604  -0.42468  -0.42450  -0.42337  -0.42116
 Alpha  occ. eigenvalues --   -0.41955  -0.41929  -0.41576  -0.41564  -0.41146
 Alpha  occ. eigenvalues --   -0.41107  -0.40806  -0.40794  -0.40601  -0.40369
 Alpha  occ. eigenvalues --   -0.40055  -0.39725  -0.39711  -0.39357  -0.38801
 Alpha  occ. eigenvalues --   -0.38677  -0.38381  -0.38267  -0.38152  -0.37619
 Alpha  occ. eigenvalues --   -0.37407  -0.37377  -0.36901  -0.36850  -0.36458
 Alpha  occ. eigenvalues --   -0.36412  -0.36301  -0.34866  -0.34791  -0.34230
 Alpha  occ. eigenvalues --   -0.33835  -0.33030  -0.32799  -0.32257  -0.31580
 Alpha  occ. eigenvalues --   -0.31382  -0.31196  -0.30890  -0.30491  -0.30448
 Alpha  occ. eigenvalues --   -0.29832  -0.29675  -0.29256  -0.24197  -0.24113
 Alpha  occ. eigenvalues --   -0.21080  -0.21048
 Alpha virt. eigenvalues --   -0.08578  -0.08574  -0.02020  -0.01689   0.00174
 Alpha virt. eigenvalues --    0.00530   0.01641   0.01982   0.02823   0.03422
 Alpha virt. eigenvalues --    0.04991   0.05051   0.05576   0.05892   0.06418

 Mulliken charges:
               1
     1  Mg  12.002037
     2  C    5.967247
     3  C    6.018425
     4  C    6.032191
     5  C    5.994938
     6  N    6.983789
     7  C    6.038681
     8  C    5.992292
     9  C    6.009498
    10  C    5.965661
    11  C    6.003176
    12  C    6.000319
    13  C    5.998564
    14  H    1.004123
    15  N    7.009773
    16  C    5.958187
    17  C    5.980615
    18  C    5.986709
    19  C    5.951996
    20  C    6.003254
    21  C    5.990224
    22  O    7.979546
    23  C    5.998680
    24  N    7.007857
    25  C    5.959130
    26  C    6.013499
    27  C    5.991145
    28  C    6.032595
    29  C    6.000614
    30  C    5.996541
    31  C    5.999124
    32  N    6.997618
    33  C    6.043565
    34  C    6.023507
    35  C    6.005530
    36  C    6.031154
    37  C    5.996291
    38  C    6.015923
    39  O    8.031982
    40  C    6.001560
    41  C    6.005281
    42  O    8.002140
    43  O    8.001702
    44  C    5.997877
    45  H    0.989821
    46  H    0.994595
    47  H    1.013918
    48  H    0.998268
    49  H    0.994041
    50  H    0.985994
    51  H    0.999104
    52  H    1.000566
    53  H    1.009426
    54  H    0.992124
    55  H    0.995014
    56  H    1.004336
    57  H    0.984485
    58  H    0.982015
    59  H    0.983208
    60  H    0.989748
    61  H    0.988664
    62  H    0.991649
    63  H    0.997815
    64  H    0.996768
    65  H    0.988903
    66  H    1.001742
    67  H    1.003143
    68  H    0.996302
    69  H    1.012113
    70  H    1.005629
    71  H    1.005799
    72  H    0.997594
    73  H    1.016660
    74  H    1.016981
    75  H    1.020396
    76  H    1.007629
    77  H    1.005122
    78  H    1.005453
    79  H    1.000416
    80  Mg  11.999971
    81  C    6.000395
    82  C    5.999954
    83  C    5.999621
    84  C    6.000080
    85  N    7.000257
    86  C    5.999526
    87  C    6.000049
    88  C    5.999968
    89  C    6.000210
    90  C    5.999953
    91  C    6.000014
    92  C    6.000030
    93  H    0.999924
    94  N    6.999857
    95  C    6.000425
    96  C    6.000255
    97  C    6.000150
    98  C    6.000523
    99  C    5.999914
   100  C    6.000122
   101  O    8.000319
   102  C    5.999920
   103  N    6.999895
   104  C    6.000466
   105  C    5.999854
   106  C    6.000116
   107  C    5.999701
   108  C    5.999939
   109  C    6.000087
   110  C    6.000016
   111  N    6.999998
   112  C    5.999534
   113  C    5.999692
   114  C    5.999933
   115  C    5.999583
   116  C    6.000032
   117  C    5.999839
   118  O    7.999607
   119  C    5.999924
   120  C    5.999955
   121  O    7.999938
   122  O    7.999991
   123  C    6.000041
   124  H    1.000166
   125  H    1.000046
   126  H    0.999814
   127  H    1.000031
   128  H    1.000045
   129  H    1.000151
   130  H    0.999950
   131  H    1.000059
   132  H    0.999881
   133  H    1.000077
   134  H    0.999969
   135  H    1.000039
   136  H    1.000242
   137  H    1.000199
   138  H    1.000238
   139  H    1.000168
   140  H    1.000105
   141  H    1.000093
   142  H    1.000039
   143  H    0.999960
   144  H    1.000047
   145  H    0.999938
   146  H    1.000115
   147  H    1.000014
   148  H    0.999860
   149  H    0.999968
   150  H    1.000033
   151  H    0.999931
   152  H    0.999810
   153  H    0.999814
   154  H    0.999824
   155  H    0.999950
   156  H    0.999969
   157  H    0.999925
   158  H    0.999951
 Sum of Mulliken charges = 624.00000

 Dipole moment (field-independent basis, Debye):
    X=             -3.3667    Y=             -9.7928    Z=              1.6077  Tot=             10.4794
 Quadrupole moment (field-independent basis, Debye-Ang):
   XX=           -194.1596   YY=             -3.7838   ZZ=              2.2801
   XY=           -293.9449   XZ=             50.7554   YZ=             -0.5493

 Normal termination of Gaussian 16 at Thu Sep 23 12:32:59 2021.
