 Gaussian 16, Revision A.03,
 Gaussian 16:  ES64L-G16RevA.03 25-Dec-2016

 -----------------------------------
 #p cam-b3lyp/Def2SVP td=(nstates=5)
 -----------------------------------

 --------------------------------
 TDDFT excited states in gaussian
 --------------------------------
 Symbolic Z-matrix:
 Charge =  0 Multiplicity = 1

                         Standard orientation:
 ---------------------------------------------------------------------
 Center     Atomic      Atomic             Coordinates (Angstroms)
 Number     Number       Type             X           Y           Z
 ---------------------------------------------------------------------
      1         12           0       31.349264    0.310605   -0.164144
      2          6           0       28.190983   -1.186669    0.022154
      3          6           0       29.655363    3.301545   -0.545780
      4          6           0       34.295054    1.872187   -0.003560
      5          6           0       32.791030   -2.628868    1.061089
      6          7           0       29.019459    0.978641   -0.047275
      7          6           0       27.954908    0.154768   -0.090154
      8          6           0       26.632756    0.879686   -0.167819
      9          6           0       27.214537    2.264819   -0.644754
     10          6           0       28.714566    2.252070   -0.368916
     11          6           0       26.998082    2.432363   -2.172455
     12          6           0       25.861817    0.778864    1.154477
     13          6           0       26.618812    0.887082    2.494524
     14          1           0       26.028173    1.849725    3.517924
     15          7           0       31.901074    2.277609   -0.269760
     16          6           0       31.058847    3.321288   -0.548158
     17          6           0       31.853547    4.456061   -1.035876
     18          6           0       33.241581    4.142534   -0.746187
     19          6           0       33.174854    2.707106   -0.334453
     20          6           0       31.215524    5.850424   -1.402455
     21          6           0       34.440295    5.087952   -0.857273
     22          8           0       34.315805    6.177464   -1.343300
     23          6           0       35.797311    4.637479   -0.398953
     24          7           0       33.260142   -0.297062    0.675400
     25          6           0       34.409156    0.502081    0.528826
     26          6           0       35.734681   -0.224290    1.013239
     27          6           0       35.194282   -1.707741    1.288803
     28          6           0       33.640610   -1.561382    0.948786
     29          6           0       37.065121   -0.178426    0.107901
     30          6           0       35.474728   -2.338113    2.728582
     31          6           0       35.698438   -3.926634    2.616498
     32          7           0       30.694971   -1.594308    0.393227
     33          6           0       31.413479   -2.706252    0.782997
     34          6           0       30.507847   -3.842271    0.903685
     35          6           0       29.216099   -3.366611    0.560046
     36          6           0       29.371367   -1.952097    0.329431
     37          6           0       30.895322   -5.276674    1.151134
     38          6           0       27.747071   -3.640996    0.439664
     39          8           0       27.112754   -4.636814    0.708159
     40          6           0       27.097176   -2.248816    0.039199
     41          6           0       26.457309   -2.445949   -1.307564
     42          8           0       25.363095   -3.037369   -1.485669
     43          8           0       27.178019   -1.754820   -2.270727
     44          6           0       26.559935   -1.663763   -3.551232
     45          1           0       29.126454    4.233129   -0.757994
     46          1           0       35.325919    2.216439   -0.111804
     47          1           0       33.283160   -3.585505    1.249145
     48          1           0       26.024719    0.522484   -0.998749
     49          1           0       26.820436    3.169559   -0.183888
     50          1           0       27.855549    3.001161   -2.532882
     51          1           0       26.021180    2.869090   -2.375038
     52          1           0       27.078641    1.558573   -2.819825
     53          1           0       25.449573   -0.229486    1.175369
     54          1           0       25.055279    1.511816    1.131571
     55          1           0       27.626415    1.254158    2.300917
     56          1           0       26.607709   -0.094077    2.968314
     57          1           0       30.940803    6.471566   -0.549488
     58          1           0       30.335841    5.694937   -2.027109
     59          1           0       31.804864    6.488475   -2.059986
     60          1           0       36.518217    5.455657   -0.392269
     61          1           0       36.208729    3.829711   -1.004548
     62          1           0       35.610939    4.409458    0.650846
     63          1           0       35.899584    0.314815    1.945367
     64          1           0       35.592288   -2.410304    0.557184
     65          1           0       37.631134    0.699568    0.416935
     66          1           0       36.824878   -0.129839   -0.953823
     67          1           0       37.624866   -1.099298    0.272824
     68          1           0       34.592544   -2.268771    3.364913
     69          1           0       36.302495   -1.831245    3.225169
     70          1           0       34.941607   -4.468631    3.183696
     71          1           0       36.679005   -4.182680    3.016715
     72          1           0       35.585019   -4.409781    1.646644
     73          1           0       31.425736   -5.329466    2.101308
     74          1           0       31.564430   -5.616011    0.360117
     75          1           0       30.028730   -5.932110    1.236300
     76          1           0       26.274600   -2.133889    0.744724
     77          1           0       27.162139   -1.023066   -4.194997
     78          1           0       25.511228   -1.378975   -3.464574
     79          1           0       26.600391   -2.608563   -4.093215
     80         12           0      -31.443726    0.202900    0.378002
     81          6           0      -28.797622   -1.789406   -0.810200
     82          6           0      -32.177551    0.965759   -2.934118
     83          6           0      -33.713638    2.320767    1.556861
     84          6           0      -30.032046    0.011236    3.673592
     85          7           0      -30.583052   -0.321307   -1.610286
     86          6           0      -29.568404   -1.263717   -1.828972
     87          6           0      -29.625456   -1.730031   -3.271912
     88          6           0      -30.496046   -0.669282   -4.003756
     89          6           0      -31.134486    0.038121   -2.770542
     90          6           0      -29.756447    0.250955   -5.024979
     91          6           0      -30.113403   -3.207888   -3.463324
     92          6           0      -29.480767   -3.944905   -4.724792
     93          1           0      -28.535508   -3.141719   -5.622226
     94          7           0      -32.798523    1.328936   -0.535437
     95          6           0      -33.002053    1.456919   -1.898649
     96          6           0      -34.160707    2.259161   -2.166334
     97          6           0      -34.558260    2.775388   -0.891559
     98          6           0      -33.712734    2.116586    0.087969
     99          6           0      -34.672272    2.587064   -3.602294
    100          6           0      -35.619532    3.778714   -0.577891
    101          8           0      -35.751639    4.254426    0.575029
    102          6           0      -36.640835    4.460900   -1.535022
    103          7           0      -31.673908    1.270509    2.272531
    104          6           0      -32.767969    2.012799    2.527332
    105          6           0      -32.910298    2.264090    4.049586
    106          6           0      -31.733435    1.554278    4.728502
    107          6           0      -31.113783    0.840475    3.447247
    108          6           0      -33.128339    3.713923    4.358461
    109          6           0      -32.067090    0.580168    5.878772
    110          6           0      -33.001953   -0.595184    5.500934
    111          7           0      -29.716820   -0.642518    1.313201
    112          6           0      -29.405551   -0.755440    2.625505
    113          6           0      -28.326500   -1.737765    2.717079
    114          6           0      -28.031909   -2.225388    1.413089
    115          6           0      -28.884055   -1.482917    0.559864
    116          6           0      -27.712936   -2.268479    4.010053
    117          6           0      -27.216690   -3.114961    0.649207
    118          8           0      -26.410524   -3.994648    0.940092
    119          6           0      -27.659674   -2.808608   -0.926020
    120          6           0      -26.422014   -2.466615   -1.734030
    121          8           0      -25.898378   -1.369801   -1.730301
    122          8           0      -26.049919   -3.524516   -2.532066
    123          6           0      -24.700017   -3.550644   -3.085811
    124          1           0      -32.395439    1.033001   -4.001866
    125          1           0      -34.540234    2.950051    1.892464
    126          1           0      -29.745024   -0.102950    4.720703
    127          1           0      -28.622152   -1.707571   -3.697078
    128          1           0      -31.278760   -1.212845   -4.532120
    129          1           0      -29.991579    1.247157   -4.651792
    130          1           0      -30.217598    0.180180   -6.010819
    131          1           0      -28.674391    0.178187   -5.134090
    132          1           0      -31.183320   -3.250905   -3.664735
    133          1           0      -29.930309   -3.755579   -2.539764
    134          1           0      -30.298645   -4.176701   -5.407206
    135          1           0      -28.979195   -4.839687   -4.356962
    136          1           0      -35.012382    3.623361   -3.600061
    137          1           0      -35.525430    1.975087   -3.893105
    138          1           0      -34.027767    2.473039   -4.473780
    139          1           0      -37.223331    3.712028   -2.072415
    140          1           0      -36.165926    5.161738   -2.221547
    141          1           0      -37.504020    4.896444   -1.033115
    142          1           0      -33.887747    1.864873    4.317300
    143          1           0      -31.019430    2.350004    4.943825
    144          1           0      -34.169795    3.947430    4.580481
    145          1           0      -32.750174    4.328448    3.541325
    146          1           0      -32.551115    4.081733    5.207502
    147          1           0      -32.593613    1.213576    6.592974
    148          1           0      -31.148983    0.201854    6.329260
    149          1           0      -32.425242   -1.495908    5.710200
    150          1           0      -33.225110   -0.489552    4.439228
    151          1           0      -33.976447   -0.569301    5.988822
    152          1           0      -27.566004   -3.348008    3.992089
    153          1           0      -28.390007   -2.141799    4.854330
    154          1           0      -26.812736   -1.689745    4.218766
    155          1           0      -28.029460   -3.768042   -1.288645
    156          1           0      -24.468697   -2.527758   -3.384122
    157          1           0      -24.577846   -4.183357   -3.964998
    158          1           0      -24.071519   -3.965294   -2.297638
 ---------------------------------------------------------------------

 SCF Done:  E(RCAM-B3LYP) =  -4069.81050049     A.U. after   17 cycles

 Excitation energies and oscillator strengths:

 Excited State   1:      Singlet-A      1.6591 eV  747.31 nm  f=0.4024  <S**2>=0.000
     309 -> 316        0.16731
     312 -> 313        0.68827
     309 <- 316        0.10535
 This state for optimization and/or second-order correction.
 Total Energy, E(TD-HF/TD-DFT) =  -4069.74953037
 Copying the excited state density for this state as the 1-particle RhoCI density.

 Excited State   2:      Singlet-A      1.7468 eV  709.76 nm  f=0.3586  <S**2>=0.000
     310 -> 315       -0.19411
     311 -> 314        0.68069
     310 <- 315       -0.10946

 Excited State   3:      Singlet-A      2.1919 eV  565.65 nm  f=0.1546  <S**2>=0.000
     309 -> 313        0.65721
     312 -> 316       -0.24506

 Excited State   4:      Singlet-A      2.2374 eV  554.14 nm  f=0.1044  <S**2>=0.000
     310 -> 314        0.63526
     311 -> 315        0.29902

 Excited State   5:      Singlet-A      3.1604 eV  392.31 nm  f=0.0000  <S**2>=0.000
     311 -> 313        0.70711

 The electronic state is 1-A.
 Alpha  occ. eigenvalues --  -46.90389 -46.88887 -19.26032 -19.24233 -19.20005
 Alpha  occ. eigenvalues --  -19.19538 -19.19336 -19.19234 -19.19033 -19.18343
 Alpha  occ. eigenvalues --  -14.42529 -14.42254 -14.41805 -14.41411 -14.40517
 Alpha  occ. eigenvalues --  -14.40252 -14.39468 -14.39357 -10.39967 -10.39095
 Alpha  occ. eigenvalues --  -10.35780 -10.35566 -10.35457 -10.35299 -10.32825
 Alpha  occ. eigenvalues --  -10.31972 -10.31825 -10.31520 -10.31389 -10.31122
 Alpha  occ. eigenvalues --  -10.30915 -10.30843 -10.30778 -10.30710 -10.30580
 Alpha  occ. eigenvalues --  -10.30447 -10.30331 -10.30204 -10.29880 -10.29831
 Alpha  occ. eigenvalues --  -10.29575 -10.29543 -10.29495 -10.29270 -10.29258
 Alpha  occ. eigenvalues --  -10.29017 -10.28951 -10.28529 -10.28517 -10.28434
 Alpha  occ. eigenvalues --  -10.28385 -10.28222 -10.28180 -10.28133 -10.28059
 Alpha  occ. eigenvalues --  -10.27987 -10.27955 -10.27924 -10.27902 -10.27832
 Alpha  occ. eigenvalues --  -10.27787 -10.27781 -10.27741 -10.27715 -10.27502
 Alpha  occ. eigenvalues --  -10.27498 -10.27454 -10.27435 -10.26867 -10.26864
 Alpha  occ. eigenvalues --  -10.26705 -10.26570 -10.26422 -10.26313 -10.26287
 Alpha  occ. eigenvalues --  -10.26255 -10.26237 -10.26214 -10.26170 -10.26051
 Alpha  occ. eigenvalues --  -10.25939 -10.25880 -10.25596 -10.25578 -10.25272
 Alpha  occ. eigenvalues --  -10.24887  -3.18752  -3.17458  -1.93615  -1.93227
 Alpha  occ. eigenvalues --   -1.93042  -1.92328  -1.91914  -1.91772  -1.16449
 Alpha  occ. eigenvalues --   -1.15425  -1.11499  -1.10650  -1.09426  -1.08393
 Alpha  occ. eigenvalues --   -1.07432  -1.07042  -1.04779  -1.04308  -1.03881
 Alpha  occ. eigenvalues --   -1.03447  -1.03195  -1.02956  -1.02094  -1.01890
 Alpha  occ. eigenvalues --   -0.92506  -0.92166  -0.89190  -0.89012  -0.88529
 Alpha  occ. eigenvalues --   -0.88331  -0.88127  -0.87734  -0.87348  -0.87339
 Alpha  occ. eigenvalues --   -0.86781  -0.86042  -0.85659  -0.85294  -0.84844
 Alpha  occ. eigenvalues --   -0.83798  -0.83344  -0.83317  -0.82706  -0.82165
 Alpha  occ. eigenvalues --   -0.81876  -0.81045  -0.80801  -0.80606  -0.80361
 Alpha  occ. eigenvalues --   -0.80020  -0.78688  -0.77531  -0.77283  -0.76930
 Alpha  occ. eigenvalues --   -0.76752  -0.76700  -0.76414  -0.75816  -0.75317
 Alpha  occ. eigenvalues --   -0.74966  -0.72808  -0.72521  -0.72054  -0.71064
 Alpha  occ. eigenvalues --   -0.69927  -0.69906  -0.69398  -0.69116  -0.68314
 Alpha  occ. eigenvalues --   -0.68214  -0.67506  -0.67154  -0.65892  -0.65198
 Alpha  occ. eigenvalues --   -0.64893  -0.64888  -0.64833  -0.64623  -0.64132
 Alpha  occ. eigenvalues --   -0.64113  -0.63712  -0.61613  -0.60887  -0.60025
 Alpha  occ. eigenvalues --   -0.59469  -0.59268  -0.58952  -0.58774  -0.58173
 Alpha  occ. eigenvalues --   -0.58052  -0.57790  -0.57398  -0.57341  -0.56933
 Alpha  occ. eigenvalues --   -0.56289  -0.56086  -0.55879  -0.55743  -0.55485
 Alpha  occ. eigenvalues --   -0.55058  -0.54902  -0.54724  -0.54295  -0.53922
 Alpha  occ. eigenvalues --   -0.53659  -0.53455  -0.53210  -0.53057  -0.53029
 Alpha  occ. eigenvalues --   -0.52781  -0.52757  -0.52525  -0.52330  -0.51968
 Alpha  occ. eigenvalues --   -0.51923  -0.51632  -0.51436  -0.51300  -0.51082
 Alpha  occ. eigenvalues --   -0.51005  -0.50701  -0.50693  -0.50548  -0.50041
 Alpha  occ. eigenvalues --   -0.49998  -0.49935  -0.49712  -0.49547  -0.49496
 Alpha  occ. eigenvalues --   -0.49259  -0.49185  -0.49008  -0.48929  -0.48747
 Alpha  occ. eigenvalues --   -0.48686  -0.48585  -0.48371  -0.48169  -0.47854
 Alpha  occ. eigenvalues --   -0.47732  -0.47565  -0.47396  -0.47308  -0.47233
 Alpha  occ. eigenvalues --   -0.46944  -0.46667  -0.46662  -0.46355  -0.46311
 Alpha  occ. eigenvalues --   -0.46274  -0.46077  -0.45811  -0.45685  -0.45552
 Alpha  occ. eigenvalues --   -0.45443  -0.45320  -0.45200  -0.45183  -0.44878
 Alpha  occ. eigenvalues --   -0.44699  -0.44529  -0.44244  -0.44218  -0.44056
 Alpha  occ. eigenvalues --   -0.43978  -0.43950  -0.43852  -0.43632  -0.43382
 Alpha  occ. eigenvalues --   -0.43381  -0.43263  -0.43115  -0.43024  -0.42980
 Alpha  occ. eigenvalues --   -0.42779  -0.42619  -0.42394  -0.42220  -0.42208
 Alpha  occ. eigenvalues --   -0.41997  -0.41905  -0.41827  -0.41730  -0.41582
 Alpha  occ. eigenvalues --   -0.41512  -0.41230  -0.40714  -0.40584  -0.40370
 Alpha  occ. eigenvalues --   -0.40079  -0.39915  -0.39613  -0.39223  -0.39094
 Alpha  occ. eigenvalues --   -0.38940  -0.38660  -0.38117  -0.37782  -0.37614
 Alpha  occ. eigenvalues --   -0.37270  -0.37187  -0.36802  -0.36777  -0.36313
 Alpha  occ. eigenvalues --   -0.36290  -0.35945  -0.34683  -0.34388  -0.33991
 Alpha  occ. eigenvalues --   -0.33722  -0.33152  -0.33039  -0.31448  -0.31368
 Alpha  occ. eigenvalues --   -0.31201  -0.30898  -0.30773  -0.30717  -0.30604
 Alpha  occ. eigenvalues --   -0.30276  -0.29726  -0.29470  -0.24102  -0.24029
 Alpha  occ. eigenvalues --   -0.21389  -0.21363
 Alpha virt. eigenvalues --   -0.09224  -0.08630  -0.02074  -0.01391  -0.00030
 Alpha virt. eigenvalues --    0.00099   0.00772   0.01379   0.02012   0.02187
 Alpha virt. eigenvalues --    0.04441   0.05229   0.05407   0.05494   0.05919

 Mulliken charges:
               1
     1  Mg   0.821361
     2  C    0.141407
     3  C   -0.072429
     4  C   -0.088176
     5  C   -0.079392
     6  N   -0.220268
     7  C   -0.143096
     8  C    0.066467
     9  C   -0.054810
    10  C   -0.010654
    11  C    0.063590
    12  C    0.064044
    13  C   -0.078566
    14  H    0.015499
    15  N   -0.372573
    16  C    0.163226
    17  C   -0.137159
    18  C   -0.058534
    19  C    0.190588
    20  C    0.093531
    21  C   -0.010338
    22  O   -0.168291
    23  C    0.051846
    24  N   -0.300584
    25  C   -0.021034
    26  C   -0.011936
    27  C   -0.040251
    28  C    0.044991
    29  C    0.055020
    30  C    0.036443
    31  C   -0.036874
    32  N   -0.352634
    33  C    0.125097
    34  C   -0.196528
    35  C    0.022507
    36  C    0.045475
    37  C    0.117940
    38  C    0.064005
    39  O   -0.137409
    40  C   -0.139037
    41  C    0.228305
    42  O   -0.237477
    43  O   -0.322920
    44  C    0.183483
    45  H   -0.018131
    46  H   -0.048441
    47  H   -0.045701
    48  H    0.002313
    49  H   -0.000440
    50  H    0.003822
    51  H    0.026711
    52  H    0.004880
    53  H    0.013107
    54  H    0.020357
    55  H    0.050674
    56  H    0.037471
    57  H    0.040190
    58  H    0.005494
    59  H    0.031854
    60  H    0.019339
    61  H    0.059872
    62  H    0.032469
    63  H    0.026035
    64  H    0.015637
    65  H    0.028248
    66  H    0.025958
    67  H    0.028339
    68  H    0.025554
    69  H    0.018995
    70  H    0.017229
    71  H    0.020678
    72  H    0.021740
    73  H    0.015707
    74  H    0.029790
    75  H    0.034198
    76  H    0.055837
    77  H    0.031229
    78  H    0.037712
    79  H    0.027413
    80  Mg   0.835487
    81  C    0.031223
    82  C   -0.057081
    83  C   -0.053485
    84  C   -0.058916
    85  N   -0.269263
    86  C   -0.044959
    87  C    0.001990
    88  C   -0.047177
    89  C   -0.014824
    90  C    0.074625
    91  C    0.034740
    92  C   -0.076612
    93  H    0.020633
    94  N   -0.405717
    95  C    0.178230
    96  C   -0.125148
    97  C   -0.000863
    98  C    0.109729
    99  C    0.101758
   100  C   -0.004300
   101  O   -0.244050
   102  C    0.051040
   103  N   -0.270195
   104  C    0.053247
   105  C   -0.078197
   106  C    0.027898
   107  C   -0.007808
   108  C    0.069553
   109  C    0.031247
   110  C    0.009338
   111  N   -0.344258
   112  C    0.135708
   113  C   -0.189183
   114  C    0.048250
   115  C    0.088867
   116  C    0.113939
   117  C    0.043017
   118  O   -0.170929
   119  C   -0.068816
   120  C    0.209045
   121  O   -0.207537
   122  O   -0.347381
   123  C    0.172011
   124  H   -0.027412
   125  H   -0.004063
   126  H   -0.028293
   127  H    0.008163
   128  H    0.006971
   129  H    0.010113
   130  H    0.012671
   131  H    0.036579
   132  H    0.005603
   133  H    0.014513
   134  H    0.032432
   135  H    0.046730
   136  H    0.016010
   137  H    0.027832
   138  H    0.023618
   139  H    0.009454
   140  H    0.052509
   141  H    0.022981
   142  H    0.010395
   143  H    0.009999
   144  H    0.021265
   145  H    0.019814
   146  H   -0.000305
   147  H    0.007277
   148  H    0.015372
   149  H    0.024410
   150  H    0.019927
   151  H    0.019847
   152  H    0.034825
   153  H   -0.002153
   154  H    0.035985
   155  H    0.036134
   156  H    0.043649
   157  H    0.035902
   158  H    0.046368
 Sum of Mulliken charges =  -0.00000

 Dipole moment (field-independent basis, Debye):
    X=              0.7618    Y=              0.4789    Z=             -4.2144  Tot=              4.3094
 Quadrupole moment (field-independent basis, Debye-Ang):
   XX=             24.0636   YY=           -562.1592   ZZ=           -466.5356
   XY=             40.4460   XZ=             62.8537   YZ=              7.8793

 Normal termination of Gaussian 16 at Thu Sep  2 00:46:57 2021.
