 Gaussian 16, Revision A.03,
 Gaussian 16:  ES64L-G16RevA.03 25-Dec-2016

 -----------------------------------
 #p cam-b3lyp/Def2SVP td=(nstates=5)
 -----------------------------------

 --------------------------------
 TDDFT excited states in gaussian
 --------------------------------
 Symbolic Z-matrix:
 Charge =  0 Multiplicity = 1

                         Standard orientation:
 ---------------------------------------------------------------------
 Center     Atomic      Atomic             Coordinates (Angstroms)
 Number     Number       Type             X           Y           Z
 ---------------------------------------------------------------------
      1         12           0       16.984656    0.652558   -0.202484
      2          6           0       16.235318   -2.041070    1.909459
      3          6           0       13.857312    2.067077    0.666335
      4          6           0       17.522788    3.096863   -2.497102
      5          6           0       19.612361   -1.178338   -1.492450
      6          7           0       15.384575    0.132317    1.240085
      7          6           0       15.423086   -0.954286    2.118612
      8          6           0       14.382453   -0.720331    3.272308
      9          6           0       13.616042    0.514356    2.783948
     10          6           0       14.299878    0.921263    1.432191
     11          6           0       12.112847    0.177327    2.591466
     12          6           0       15.138942   -0.570098    4.586520
     13          6           0       14.429990   -0.972954    5.869206
     14          1           0       12.903089   -1.206223    5.818720
     15          7           0       15.890281    2.365554   -0.851663
     16          6           0       14.616537    2.751692   -0.392814
     17          6           0       14.161598    3.941822   -1.089967
     18          6           0       15.222516    4.346104   -1.992540
     19          6           0       16.263455    3.244167   -1.818760
     20          6           0       12.878565    4.708767   -0.745202
     21          6           0       15.339709    5.545083   -2.913927
     22          8           0       16.347547    5.709518   -3.588408
     23          6           0       14.317948    6.612507   -2.822435
     24          7           0       18.442435    0.923795   -1.734624
     25          6           0       18.497458    2.062844   -2.479573
     26          6           0       19.794388    2.069442   -3.330430
     27          6           0       20.520137    0.716045   -2.967719
     28          6           0       19.546477    0.127963   -1.913870
     29          6           0       19.453905    2.213173   -4.824595
     30          6           0       21.932922    0.877826   -2.346448
     31          6           0       22.985234    0.594367   -3.413971
     32          7           0       17.774620   -1.274028    0.002126
     33          6           0       18.786269   -1.934271   -0.611575
     34          6           0       18.717747   -3.350748   -0.177220
     35          6           0       17.834582   -3.421616    0.860060
     36          6           0       17.252952   -2.128521    0.894855
     37          6           0       19.677425   -4.395213   -0.722054
     38          6           0       17.245763   -4.259513    1.913231
     39          8           0       17.446828   -5.441511    2.164816
     40          6           0       16.278337   -3.354812    2.651727
     41          6           0       15.011097   -4.100218    2.711699
     42          8           0       14.144796   -4.277492    1.844616
     43          8           0       14.938349   -4.691117    3.956527
     44          6           0       13.792605   -5.537712    4.208874
     45          1           0       12.924854    2.511492    1.019920
     46          1           0       17.668501    3.973725   -3.131454
     47          1           0       20.403443   -1.721986   -2.013258
     48          1           0       13.800736   -1.640014    3.199143
     49          1           0       13.619738    1.214769    3.619062
     50          1           0       11.772660    0.169161    1.555804
     51          1           0       11.562361    1.048575    2.945291
     52          1           0       11.848443   -0.788182    3.022287
     53          1           0       15.466776    0.469878    4.586787
     54          1           0       16.078921   -1.115950    4.514431
     55          1           0       14.664060   -0.239612    6.639723
     56          1           0       14.961259   -1.891255    6.121818
     57          1           0       12.237545    4.198172   -0.026281
     58          1           0       12.289785    4.871026   -1.649025
     59          1           0       13.151515    5.713099   -0.423451
     60          1           0       14.389205    7.076825   -1.838537
     61          1           0       13.344381    6.253608   -3.156205
     62          1           0       14.537240    7.441449   -3.495460
     63          1           0       20.361229    2.958785   -3.055954
     64          1           0       20.474188    0.118262   -3.878957
     65          1           0       19.818539    1.427875   -5.486118
     66          1           0       20.017507    3.120519   -5.040743
     67          1           0       18.387537    2.225773   -5.048233
     68          1           0       22.138915    0.056274   -1.660126
     69          1           0       22.109563    1.858889   -1.905115
     70          1           0       23.684795    1.423584   -3.309669
     71          1           0       22.629915    0.716317   -4.436903
     72          1           0       23.503891   -0.360054   -3.319350
     73          1           0       20.246632   -4.092097   -1.601201
     74          1           0       19.181639   -5.334592   -0.963641
     75          1           0       20.482543   -4.525922    0.001855
     76          1           0       16.691908   -3.168026    3.642240
     77          1           0       13.719750   -6.246644    3.383729
     78          1           0       12.852861   -4.989539    4.279363
     79          1           0       14.124493   -6.219958    4.990756
     80         12           0      -16.731748    0.317313    0.633913
     81          6           0      -16.648556   -2.164781   -1.751159
     82          6           0      -13.367517   -0.081937    1.066161
     83          6           0      -16.673090    3.382834    1.863488
     84          6           0      -20.177174    0.621501    0.030596
     85          7           0      -15.158772   -0.688209   -0.622960
     86          6           0      -15.381674   -1.807420   -1.358959
     87          6           0      -14.115911   -2.529554   -1.715027
     88          6           0      -13.222817   -2.117792   -0.500169
     89          6           0      -13.988391   -0.934875    0.074023
     90          6           0      -12.964691   -3.288463    0.491248
     91          6           0      -13.491587   -2.014517   -3.107470
     92          6           0      -12.768313   -3.133936   -3.990800
     93          1           0      -11.326566   -2.726211   -4.167335
     94          7           0      -15.247538    1.397028    1.541978
     95          6           0      -13.918355    1.156194    1.570778
     96          6           0      -13.213083    2.239359    2.244227
     97          6           0      -14.171067    3.239103    2.510699
     98          6           0      -15.436973    2.683599    1.955024
     99          6           0      -11.683327    2.179227    2.473365
    100          6           0      -13.804733    4.606218    3.017338
    101          8           0      -12.658161    4.850043    3.289672
    102          6           0      -14.795090    5.775479    3.177395
    103          7           0      -18.240240    1.798999    1.050843
    104          6           0      -17.954365    2.929944    1.523125
    105          6           0      -19.104358    3.867548    1.549970
    106          6           0      -20.276440    2.983984    0.967313
    107          6           0      -19.560137    1.741462    0.659428
    108          6           0      -19.318776    4.481960    2.974519
    109          6           0      -20.942600    3.646504   -0.326120
    110          6           0      -22.369894    3.142947   -0.743952
    111          7           0      -18.179711   -0.598234   -0.516979
    112          6           0      -19.551485   -0.430472   -0.571772
    113          6           0      -20.154162   -1.454019   -1.379913
    114          6           0      -19.025323   -2.217260   -1.841997
    115          6           0      -17.879768   -1.597230   -1.381700
    116          6           0      -21.607047   -1.663852   -1.661772
    117          6           0      -18.658214   -3.360713   -2.603840
    118          8           0      -19.274485   -4.213753   -3.255443
    119          6           0      -17.102404   -3.264073   -2.738507
    120          6           0      -16.567910   -4.636792   -2.499462
    121          8           0      -16.318165   -5.463495   -3.387943
    122          8           0      -16.451665   -4.860323   -1.155278
    123          6           0      -15.963350   -6.250813   -0.936302
    124          1           0      -12.330452   -0.213442    1.383040
    125          1           0      -16.610817    4.412611    2.219891
    126          1           0      -21.215911    0.800766   -0.257262
    127          1           0      -14.390374   -3.582073   -1.656881
    128          1           0      -12.233685   -1.840537   -0.865027
    129          1           0      -11.900672   -3.523046    0.501346
    130          1           0      -13.462701   -4.168481    0.082924
    131          1           0      -13.389511   -3.002089    1.452830
    132          1           0      -12.842371   -1.140892   -3.051171
    133          1           0      -14.276716   -1.611962   -3.746679
    134          1           0      -13.254493   -3.057126   -4.963453
    135          1           0      -12.861135   -4.184646   -3.715801
    136          1           0      -11.118828    2.995379    2.022588
    137          1           0      -11.225460    1.236124    2.172950
    138          1           0      -11.528541    2.183119    3.551798
    139          1           0      -15.567410    5.586571    3.922289
    140          1           0      -15.261320    6.086343    2.242127
    141          1           0      -14.163710    6.638764    3.389825
    142          1           0      -18.819754    4.629673    0.824648
    143          1           0      -21.069261    2.662896    1.642488
    144          1           0      -19.238149    5.563314    2.865921
    145          1           0      -18.592718    4.104076    3.694567
    146          1           0      -20.345102    4.421845    3.336321
    147          1           0      -20.295842    3.505875   -1.192420
    148          1           0      -20.979607    4.713532   -0.111550
    149          1           0      -23.217390    3.826392   -0.788705
    150          1           0      -22.729018    2.390191   -0.043509
    151          1           0      -22.330293    2.674579   -1.727411
    152          1           0      -22.309170   -1.063675   -1.083389
    153          1           0      -21.673709   -2.728271   -1.440305
    154          1           0      -21.607299   -1.525019   -2.742971
    155          1           0      -16.757997   -2.884486   -3.701076
    156          1           0      -16.747705   -6.955677   -1.210234
    157          1           0      -15.838494   -6.492364    0.119261
    158          1           0      -15.033388   -6.364155   -1.493851
 ---------------------------------------------------------------------

 SCF Done:  E(RCAM-B3LYP) =  -4069.79391748     A.U. after   19 cycles

 Excitation energies and oscillator strengths:

 Excited State   1:      Singlet-A      1.6781 eV  738.84 nm  f=0.3954  <S**2>=0.000
     310 -> 316       -0.17221
     312 -> 314        0.68413
     310 <- 316       -0.10409
 This state for optimization and/or second-order correction.
 Total Energy, E(TD-HF/TD-DFT) =  -4069.73224834
 Copying the excited state density for this state as the 1-particle RhoCI density.

 Excited State   2:      Singlet-A      1.6888 eV  734.15 nm  f=0.3601  <S**2>=0.000
     309 -> 315       -0.16367
     311 -> 313        0.68493
     309 <- 315       -0.10130

 Excited State   3:      Singlet-A      2.1968 eV  564.39 nm  f=0.1215  <S**2>=0.000
     310 -> 314        0.64514
     312 -> 316        0.27391

 Excited State   4:      Singlet-A      2.2119 eV  560.52 nm  f=0.1062  <S**2>=0.000
     309 -> 313        0.64120
     311 -> 315        0.27958

 Excited State   5:      Singlet-A      3.0151 eV  411.21 nm  f=0.0000  <S**2>=0.000
     312 -> 313        0.70709

 The electronic state is 1-A.
 Alpha  occ. eigenvalues --  -46.89236 -46.89111 -19.25567 -19.24451 -19.19789
 Alpha  occ. eigenvalues --  -19.19543 -19.19291 -19.19199 -19.19048 -19.17910
 Alpha  occ. eigenvalues --  -14.42184 -14.42127 -14.41920 -14.41734 -14.40324
 Alpha  occ. eigenvalues --  -14.40113 -14.39196 -14.38602 -10.39357 -10.38668
 Alpha  occ. eigenvalues --  -10.35776 -10.35473 -10.35398 -10.34082 -10.32327
 Alpha  occ. eigenvalues --  -10.31987 -10.31723 -10.31717 -10.31199 -10.31150
 Alpha  occ. eigenvalues --  -10.30995 -10.30985 -10.30966 -10.30694 -10.30644
 Alpha  occ. eigenvalues --  -10.30267 -10.30078 -10.29981 -10.29532 -10.29388
 Alpha  occ. eigenvalues --  -10.29340 -10.29054 -10.28790 -10.28587 -10.28404
 Alpha  occ. eigenvalues --  -10.28403 -10.28399 -10.28224 -10.28175 -10.28164
 Alpha  occ. eigenvalues --  -10.28054 -10.28040 -10.27863 -10.27788 -10.27770
 Alpha  occ. eigenvalues --  -10.27765 -10.27698 -10.27663 -10.27608 -10.27598
 Alpha  occ. eigenvalues --  -10.27590 -10.27585 -10.27556 -10.27443 -10.27394
 Alpha  occ. eigenvalues --  -10.27270 -10.27182 -10.27010 -10.26791 -10.26683
 Alpha  occ. eigenvalues --  -10.26677 -10.26626 -10.26604 -10.26521 -10.26488
 Alpha  occ. eigenvalues --  -10.26291 -10.26285 -10.26231 -10.26227 -10.26222
 Alpha  occ. eigenvalues --  -10.25524 -10.25500 -10.25254 -10.25000 -10.24768
 Alpha  occ. eigenvalues --  -10.24445  -3.17809  -3.17509  -1.92696  -1.92422
 Alpha  occ. eigenvalues --   -1.92278  -1.92100  -1.91923  -1.91841  -1.15955
 Alpha  occ. eigenvalues --   -1.15789  -1.11977  -1.10452  -1.10004  -1.08116
 Alpha  occ. eigenvalues --   -1.07065  -1.06860  -1.06433  -1.04605  -1.04315
 Alpha  occ. eigenvalues --   -1.03949  -1.02841  -1.02782  -1.02632  -1.01621
 Alpha  occ. eigenvalues --   -0.93364  -0.92509  -0.89745  -0.89265  -0.88775
 Alpha  occ. eigenvalues --   -0.88703  -0.88270  -0.87959  -0.87313  -0.87102
 Alpha  occ. eigenvalues --   -0.86894  -0.86848  -0.86642  -0.85592  -0.84312
 Alpha  occ. eigenvalues --   -0.84304  -0.83876  -0.83817  -0.82722  -0.82377
 Alpha  occ. eigenvalues --   -0.82289  -0.81844  -0.80928  -0.80890  -0.80356
 Alpha  occ. eigenvalues --   -0.80015  -0.78438  -0.78091  -0.77858  -0.77255
 Alpha  occ. eigenvalues --   -0.76819  -0.76809  -0.75981  -0.75952  -0.75505
 Alpha  occ. eigenvalues --   -0.74530  -0.72703  -0.72530  -0.72235  -0.71001
 Alpha  occ. eigenvalues --   -0.70500  -0.69327  -0.69056  -0.68483  -0.68165
 Alpha  occ. eigenvalues --   -0.67919  -0.67759  -0.67066  -0.66836  -0.65418
 Alpha  occ. eigenvalues --   -0.65370  -0.64913  -0.64865  -0.64628  -0.64472
 Alpha  occ. eigenvalues --   -0.63891  -0.62428  -0.62123  -0.60531  -0.60117
 Alpha  occ. eigenvalues --   -0.59641  -0.59635  -0.59197  -0.59088  -0.58815
 Alpha  occ. eigenvalues --   -0.58789  -0.58345  -0.57991  -0.57633  -0.57010
 Alpha  occ. eigenvalues --   -0.56702  -0.56221  -0.55881  -0.55761  -0.55684
 Alpha  occ. eigenvalues --   -0.55083  -0.55052  -0.54768  -0.54153  -0.53625
 Alpha  occ. eigenvalues --   -0.53599  -0.53592  -0.53410  -0.53312  -0.52962
 Alpha  occ. eigenvalues --   -0.52905  -0.52812  -0.52676  -0.52402  -0.51989
 Alpha  occ. eigenvalues --   -0.51884  -0.51716  -0.51714  -0.51370  -0.51245
 Alpha  occ. eigenvalues --   -0.51199  -0.50766  -0.50661  -0.50426  -0.50326
 Alpha  occ. eigenvalues --   -0.50225  -0.49930  -0.49822  -0.49705  -0.49613
 Alpha  occ. eigenvalues --   -0.49299  -0.49245  -0.49153  -0.49018  -0.48953
 Alpha  occ. eigenvalues --   -0.48641  -0.48637  -0.48353  -0.48158  -0.47855
 Alpha  occ. eigenvalues --   -0.47783  -0.47688  -0.47419  -0.47392  -0.47125
 Alpha  occ. eigenvalues --   -0.46940  -0.46826  -0.46726  -0.46391  -0.46296
 Alpha  occ. eigenvalues --   -0.46236  -0.46027  -0.45880  -0.45842  -0.45823
 Alpha  occ. eigenvalues --   -0.45390  -0.45227  -0.45119  -0.44985  -0.44729
 Alpha  occ. eigenvalues --   -0.44676  -0.44444  -0.44426  -0.44384  -0.44312
 Alpha  occ. eigenvalues --   -0.44221  -0.44213  -0.43995  -0.43587  -0.43393
 Alpha  occ. eigenvalues --   -0.43387  -0.43177  -0.43171  -0.43032  -0.42934
 Alpha  occ. eigenvalues --   -0.42797  -0.42618  -0.42614  -0.42357  -0.42193
 Alpha  occ. eigenvalues --   -0.41974  -0.41908  -0.41872  -0.41523  -0.41465
 Alpha  occ. eigenvalues --   -0.41238  -0.41170  -0.41066  -0.40778  -0.40429
 Alpha  occ. eigenvalues --   -0.40081  -0.39972  -0.39632  -0.38924  -0.38630
 Alpha  occ. eigenvalues --   -0.38459  -0.38297  -0.38016  -0.37956  -0.37753
 Alpha  occ. eigenvalues --   -0.37718  -0.36820  -0.36716  -0.36496  -0.36442
 Alpha  occ. eigenvalues --   -0.36305  -0.35840  -0.34977  -0.34359  -0.34082
 Alpha  occ. eigenvalues --   -0.33607  -0.33392  -0.32612  -0.31927  -0.31569
 Alpha  occ. eigenvalues --   -0.31452  -0.31395  -0.31269  -0.30608  -0.30270
 Alpha  occ. eigenvalues --   -0.30061  -0.29978  -0.28969  -0.24195  -0.23798
 Alpha  occ. eigenvalues --   -0.21174  -0.20931
 Alpha virt. eigenvalues --   -0.08811  -0.08663  -0.01812  -0.01458   0.00190
 Alpha virt. eigenvalues --    0.00194   0.01651   0.01829   0.02348   0.02515
 Alpha virt. eigenvalues --    0.04613   0.05137   0.05209   0.05799   0.05876

 Mulliken charges:
               1
     1  Mg   0.819566
     2  C   -0.001572
     3  C   -0.062425
     4  C   -0.049447
     5  C   -0.063038
     6  N   -0.299494
     7  C   -0.121841
     8  C    0.023379
     9  C   -0.072143
    10  C    0.088167
    11  C    0.047574
    12  C    0.044030
    13  C   -0.030758
    14  H    0.030258
    15  N   -0.363609
    16  C    0.139383
    17  C   -0.154986
    18  C   -0.043585
    19  C    0.067678
    20  C    0.127891
    21  C    0.011815
    22  O   -0.199331
    23  C    0.049164
    24  N   -0.300407
    25  C    0.068918
    26  C   -0.058283
    27  C   -0.010002
    28  C    0.028443
    29  C    0.054653
    30  C    0.057279
    31  C   -0.011240
    32  N   -0.319235
    33  C    0.103417
    34  C   -0.191853
    35  C    0.027769
    36  C    0.105647
    37  C    0.107762
    38  C    0.039850
    39  O   -0.159279
    40  C    0.037432
    41  C    0.197726
    42  O   -0.232008
    43  O   -0.337878
    44  C    0.191722
    45  H   -0.027685
    46  H   -0.005017
    47  H   -0.030818
    48  H    0.010648
    49  H    0.014852
    50  H    0.011780
    51  H    0.006949
    52  H    0.029363
    53  H   -0.005470
    54  H    0.003368
    55  H    0.027371
    56  H    0.033816
    57  H    0.020954
    58  H    0.019244
    59  H    0.028873
    60  H    0.047463
    61  H    0.037056
    62  H    0.017625
    63  H    0.015752
    64  H    0.017518
    65  H    0.007145
    66  H    0.020791
    67  H    0.033866
    68  H    0.010935
    69  H    0.016083
    70  H    0.002403
    71  H    0.006573
    72  H    0.025378
    73  H   -0.003238
    74  H    0.037544
    75  H    0.027399
    76  H    0.052194
    77  H    0.027355
    78  H    0.040701
    79  H    0.034120
    80  Mg   0.827954
    81  C    0.029837
    82  C   -0.080508
    83  C   -0.070079
    84  C   -0.085099
    85  N   -0.279646
    86  C   -0.085623
    87  C    0.013173
    88  C   -0.095829
    89  C    0.097095
    90  C    0.091207
    91  C    0.062609
    92  C   -0.075215
    93  H    0.013443
    94  N   -0.375443
    95  C    0.100316
    96  C   -0.121995
    97  C   -0.020145
    98  C    0.147715
    99  C    0.133025
   100  C   -0.028666
   101  O   -0.181399
   102  C    0.044407
   103  N   -0.219549
   104  C   -0.003992
   105  C   -0.028894
   106  C    0.001895
   107  C   -0.020738
   108  C    0.065839
   109  C    0.026741
   110  C   -0.008608
   111  N   -0.362104
   112  C    0.142933
   113  C   -0.189872
   114  C    0.039484
   115  C    0.070828
   116  C    0.143852
   117  C    0.011214
   118  O   -0.189767
   119  C    0.005475
   120  C    0.179200
   121  O   -0.228151
   122  O   -0.342881
   123  C    0.180389
   124  H   -0.022481
   125  H   -0.067157
   126  H   -0.046982
   127  H    0.007671
   128  H    0.015457
   129  H    0.019130
   130  H    0.006692
   131  H    0.019666
   132  H    0.017281
   133  H    0.008052
   134  H    0.035259
   135  H    0.040903
   136  H    0.045923
   137  H   -0.003635
   138  H    0.028771
   139  H    0.045412
   140  H    0.039478
   141  H    0.024523
   142  H    0.019995
   143  H    0.015947
   144  H    0.008841
   145  H    0.036911
   146  H    0.015506
   147  H    0.016343
   148  H    0.011552
   149  H    0.016020
   150  H    0.015052
   151  H    0.022424
   152  H    0.021531
   153  H    0.042260
   154  H    0.041847
   155  H    0.048122
   156  H    0.046391
   157  H    0.028333
   158  H    0.044533
 Sum of Mulliken charges =  -0.00000

 Dipole moment (field-independent basis, Debye):
    X=             -1.2774    Y=              8.4423    Z=              6.2474  Tot=             10.5799
 Quadrupole moment (field-independent basis, Debye-Ang):
   XX=           -467.8938   YY=           -537.4342   ZZ=           -525.2448
   XY=            -40.0336   XZ=            -67.5326   YZ=            -19.0465

 Normal termination of Gaussian 16 at Wed Sep 15 22:21:48 2021.
