 Gaussian 16, Revision A.03,
 Gaussian 16:  ES64L-G16RevA.03 25-Dec-2016

 -----------------------------------
 #p cam-b3lyp/Def2SVP td=(nstates=5)
 -----------------------------------

 --------------------------------
 TDDFT excited states in gaussian
 --------------------------------
 Symbolic Z-matrix:
 Charge =  0 Multiplicity = 1

                         Standard orientation:
 ---------------------------------------------------------------------
 Center     Atomic      Atomic             Coordinates (Angstroms)
 Number     Number       Type             X           Y           Z
 ---------------------------------------------------------------------
      1         12           0      -28.702681    0.183255    0.264407
      2          6           0      -26.740928   -2.203237   -1.262752
      3          6           0      -28.654233    1.915737   -2.685712
      4          6           0      -30.376835    2.662680    1.830954
      5          6           0      -28.193922   -1.360679    3.337933
      6          7           0      -27.632429   -0.126654   -1.715350
      7          6           0      -27.095358   -1.199999   -2.152368
      8          6           0      -26.678402   -1.215549   -3.712588
      9          6           0      -27.055298    0.280102   -4.054038
     10          6           0      -27.769659    0.796926   -2.716559
     11          6           0      -25.797887    1.253910   -4.350188
     12          6           0      -27.430545   -2.291010   -4.610347
     13          6           0      -26.653597   -2.893138   -5.834442
     14          1           0      -25.367070   -2.221833   -6.209705
     15          7           0      -29.467072    1.949677   -0.332377
     16          6           0      -29.429014    2.506357   -1.670970
     17          6           0      -30.191188    3.750482   -1.647918
     18          6           0      -30.601392    4.038137   -0.322234
     19          6           0      -30.191849    2.845115    0.452745
     20          6           0      -30.402554    4.436615   -2.949376
     21          6           0      -31.414183    5.218786    0.258887
     22          8           0      -31.623433    5.418209    1.418483
     23          6           0      -31.821102    6.294587   -0.768313
     24          7           0      -29.157739    0.707575    2.318525
     25          6           0      -29.831355    1.738157    2.721535
     26          6           0      -29.799420    1.877580    4.270010
     27          6           0      -29.200910    0.533652    4.750083
     28          6           0      -28.829057   -0.121044    3.398840
     29          6           0      -28.984610    3.116408    4.698824
     30          6           0      -30.193757   -0.280813    5.634997
     31          6           0      -30.433966    0.295175    7.039887
     32          7           0      -27.675769   -1.466946    0.956486
     33          6           0      -27.654563   -2.017303    2.225698
     34          6           0      -26.910800   -3.245533    2.127258
     35          6           0      -26.463606   -3.394436    0.780277
     36          6           0      -27.024225   -2.257480    0.136978
     37          6           0      -26.621899   -4.110041    3.211976
     38          6           0      -25.797574   -4.205589   -0.188360
     39          8           0      -25.136115   -5.270374   -0.003200
     40          6           0      -25.863768   -3.379953   -1.531406
     41          6           0      -24.501573   -3.111132   -1.939996
     42          8           0      -23.809013   -2.196936   -1.493503
     43          8           0      -24.117870   -4.137012   -2.765747
     44          6           0      -22.668360   -4.136568   -3.055648
     45          1           0      -28.635177    2.503173   -3.605545
     46          1           0      -30.944197    3.490087    2.263749
     47          1           0      -28.124088   -1.843474    4.315384
     48          1           0      -25.594630   -1.330812   -3.682542
     49          1           0      -27.690025    0.313268   -4.939322
     50          1           0      -24.907462    0.791014   -3.923833
     51          1           0      -25.968557    2.224839   -3.885400
     52          1           0      -25.589741    1.470086   -5.398573
     53          1           0      -28.287017   -1.741396   -4.999930
     54          1           0      -27.993929   -3.057697   -4.077361
     55          1           0      -27.243969   -2.940726   -6.749401
     56          1           0      -26.333248   -3.905119   -5.586537
     57          1           0      -29.551444    5.074137   -3.190410
     58          1           0      -31.381390    4.909941   -3.027754
     59          1           0      -30.457310    3.657130   -3.708942
     60          1           0      -32.634068    6.003257   -1.434111
     61          1           0      -30.880545    6.451123   -1.295503
     62          1           0      -32.081646    7.269484   -0.357330
     63          1           0      -30.858068    1.946657    4.519057
     64          1           0      -28.266948    0.719252    5.280474
     65          1           0      -28.236974    3.461935    3.984519
     66          1           0      -28.352428    3.032933    5.583461
     67          1           0      -29.722556    3.902405    4.859022
     68          1           0      -29.784565   -1.277816    5.792257
     69          1           0      -31.147506   -0.386142    5.116812
     70          1           0      -29.910336    1.249436    7.097486
     71          1           0      -29.862751   -0.289789    7.760898
     72          1           0      -31.453080    0.347677    7.422212
     73          1           0      -27.562662   -4.184514    3.757566
     74          1           0      -25.876967   -3.758281    3.925540
     75          1           0      -26.205049   -5.035849    2.814133
     76          1           0      -26.310706   -4.088936   -2.228816
     77          1           0      -22.172305   -4.354814   -2.109502
     78          1           0      -22.355619   -3.227372   -3.568053
     79          1           0      -22.476085   -4.965676   -3.736790
     80         12           0       28.438912    0.388448   -0.390500
     81          6           0       25.989410   -1.886484    0.235942
     82          6           0       25.932918    2.724517   -1.268718
     83          6           0       30.685616    2.820641    0.046474
     84          6           0       30.869634   -1.870489    1.034776
     85          7           0       26.267195    0.359988   -0.510517
     86          6           0       25.448764   -0.597655   -0.224487
     87          6           0       23.976235   -0.316795   -0.691294
     88          6           0       24.053587    1.067740   -1.440460
     89          6           0       25.536247    1.452266   -1.107115
     90          6           0       23.576004    1.082567   -2.893227
     91          6           0       22.905935   -0.395159    0.551778
     92          6           0       23.415786   -0.183541    1.968122
     93          1           0       22.451705    0.191858    3.093507
     94          7           0       28.308122    2.484974   -0.579676
     95          6           0       27.245062    3.243812   -1.006825
     96          6           0       27.593996    4.597740   -0.984168
     97          6           0       28.976698    4.688420   -0.563028
     98          6           0       29.390396    3.285029   -0.299217
     99          6           0       26.650560    5.654308   -1.529147
    100          6           0       29.754872    6.009875   -0.428784
    101          8           0       29.150515    7.071954   -0.699226
    102          6           0       31.122437    6.137696   -0.015417
    103          7           0       30.505322    0.496004    0.600354
    104          6           0       31.193969    1.587743    0.423939
    105          6           0       32.693181    1.429895    0.806330
    106          6           0       32.775010   -0.088617    1.075408
    107          6           0       31.291092   -0.604474    0.887996
    108          6           0       33.648244    1.848531   -0.252588
    109          6           0       33.400445   -0.433170    2.508438
    110          6           0       34.830415   -1.114509    2.500133
    111          7           0       28.530254   -1.526999    0.366116
    112          6           0       29.548080   -2.344856    0.872611
    113          6           0       28.965167   -3.682828    1.201881
    114          6           0       27.590315   -3.496242    0.999721
    115          6           0       27.357232   -2.171004    0.526111
    116          6           0       29.628137   -4.878247    1.687230
    117          6           0       26.383859   -4.170629    1.154405
    118          8           0       26.081796   -5.317020    1.517149
    119          6           0       25.302634   -3.208743    0.585003
    120          6           0       24.554135   -3.945203   -0.551332
    121          8           0       23.351563   -4.113503   -0.661072
    122          8           0       25.414857   -4.432492   -1.511023
    123          6           0       24.832269   -5.187389   -2.626805
    124          1           0       25.087243    3.383666   -1.474861
    125          1           0       31.504216    3.543064    0.053156
    126          1           0       31.641319   -2.595603    1.301136
    127          1           0       23.770977   -1.030807   -1.489335
    128          1           0       23.482993    1.843898   -0.929511
    129          1           0       24.417059    1.294759   -3.553017
    130          1           0       22.830077    1.857337   -3.074242
    131          1           0       23.067124    0.180567   -3.233255
    132          1           0       22.459390   -1.375194    0.382108
    133          1           0       22.119203    0.359410    0.536267
    134          1           0       24.152938    0.609361    1.844290
    135          1           0       23.970911   -1.090599    2.207927
    136          1           0       26.981912    6.317735   -2.328427
    137          1           0       26.259550    6.234369   -0.692911
    138          1           0       25.765877    5.162038   -1.932551
    139          1           0       31.886851    5.663470   -0.630696
    140          1           0       31.285467    5.607860    0.922552
    141          1           0       31.415623    7.160933    0.217301
    142          1           0       33.073898    1.980705    1.666325
    143          1           0       33.307565   -0.635601    0.297308
    144          1           0       34.143801    2.803039   -0.075969
    145          1           0       33.117967    2.090655   -1.174306
    146          1           0       34.403295    1.077320   -0.404136
    147          1           0       32.761316   -1.179540    2.982137
    148          1           0       33.572622    0.433649    3.145033
    149          1           0       35.472157   -0.625303    3.231823
    150          1           0       35.299428   -0.893243    1.541314
    151          1           0       34.651937   -2.139597    2.825376
    152          1           0       30.625868   -4.827974    1.250589
    153          1           0       29.118974   -5.773287    1.328006
    154          1           0       29.541435   -4.854021    2.773104
    155          1           0       24.437337   -3.100209    1.238494
    156          1           0       25.600316   -5.846798   -3.031458
    157          1           0       24.487846   -4.632738   -3.499486
    158          1           0       23.929868   -5.739045   -2.361640
 ---------------------------------------------------------------------

 SCF Done:  E(RCAM-B3LYP) =  -4069.79315531     A.U. after   19 cycles

 Excitation energies and oscillator strengths:

 Excited State   1:      Singlet-A      1.7060 eV  726.77 nm  f=0.4308  <S**2>=0.000
     309 -> 315        0.16085
     311 -> 313        0.68877
     309 <- 315        0.10272
 This state for optimization and/or second-order correction.
 Total Energy, E(TD-HF/TD-DFT) =  -4069.73046250
 Copying the excited state density for this state as the 1-particle RhoCI density.

 Excited State   2:      Singlet-A      1.7724 eV  699.52 nm  f=0.3841  <S**2>=0.000
     310 -> 316        0.19902
     312 -> 314        0.67934
     310 <- 316        0.10974

 Excited State   3:      Singlet-A      2.2144 eV  559.90 nm  f=0.1114  <S**2>=0.000
     310 -> 314        0.64302
     312 -> 316       -0.28130

 Excited State   4:      Singlet-A      2.2508 eV  550.83 nm  f=0.1196  <S**2>=0.000
     309 -> 313        0.64223
     311 -> 315       -0.27237

 Excited State   5:      Singlet-A      3.0137 eV  411.40 nm  f=0.0000  <S**2>=0.000
     312 -> 313        0.70711

 The electronic state is 1-A.
 Alpha  occ. eigenvalues --  -46.90326 -46.88368 -19.24907 -19.24767 -19.20136
 Alpha  occ. eigenvalues --  -19.20122 -19.19277 -19.18980 -19.18210 -19.17433
 Alpha  occ. eigenvalues --  -14.43210 -14.42190 -14.41936 -14.41510 -14.40551
 Alpha  occ. eigenvalues --  -14.39834 -14.39649 -14.38915 -10.39731 -10.38524
 Alpha  occ. eigenvalues --  -10.36246 -10.34731 -10.34727 -10.34271 -10.33014
 Alpha  occ. eigenvalues --  -10.31810 -10.31784 -10.31516 -10.31280 -10.31241
 Alpha  occ. eigenvalues --  -10.30764 -10.30751 -10.30658 -10.30654 -10.30641
 Alpha  occ. eigenvalues --  -10.30446 -10.30395 -10.30389 -10.30309 -10.29646
 Alpha  occ. eigenvalues --  -10.29406 -10.29313 -10.29277 -10.29186 -10.29038
 Alpha  occ. eigenvalues --  -10.28959 -10.28900 -10.28894 -10.28817 -10.28482
 Alpha  occ. eigenvalues --  -10.28431 -10.28306 -10.28158 -10.28065 -10.27759
 Alpha  occ. eigenvalues --  -10.27739 -10.27735 -10.27587 -10.27574 -10.27530
 Alpha  occ. eigenvalues --  -10.27187 -10.27149 -10.27108 -10.27104 -10.27080
 Alpha  occ. eigenvalues --  -10.27075 -10.27051 -10.26917 -10.26890 -10.26845
 Alpha  occ. eigenvalues --  -10.26718 -10.26652 -10.26534 -10.26414 -10.26249
 Alpha  occ. eigenvalues --  -10.26168 -10.26128 -10.26019 -10.25662 -10.25639
 Alpha  occ. eigenvalues --  -10.25623 -10.25367 -10.25300 -10.24922 -10.24623
 Alpha  occ. eigenvalues --  -10.24423  -3.18733  -3.16981  -1.93611  -1.93222
 Alpha  occ. eigenvalues --   -1.93000  -1.91875  -1.91443  -1.91285  -1.16150
 Alpha  occ. eigenvalues --   -1.15492  -1.12490  -1.09065  -1.07628  -1.07363
 Alpha  occ. eigenvalues --   -1.07195  -1.06718  -1.05356  -1.05046  -1.04522
 Alpha  occ. eigenvalues --   -1.04288  -1.03653  -1.03429  -1.02261  -1.00844
 Alpha  occ. eigenvalues --   -0.93011  -0.92495  -0.89683  -0.89443  -0.89292
 Alpha  occ. eigenvalues --   -0.89000  -0.88336  -0.88331  -0.87815  -0.87812
 Alpha  occ. eigenvalues --   -0.87455  -0.86933  -0.86827  -0.85308  -0.84660
 Alpha  occ. eigenvalues --   -0.84206  -0.83884  -0.83454  -0.82963  -0.82523
 Alpha  occ. eigenvalues --   -0.82297  -0.81712  -0.81473  -0.81022  -0.80282
 Alpha  occ. eigenvalues --   -0.80251  -0.78520  -0.78494  -0.77407  -0.77362
 Alpha  occ. eigenvalues --   -0.76979  -0.76368  -0.76356  -0.75724  -0.75293
 Alpha  occ. eigenvalues --   -0.74812  -0.73412  -0.72178  -0.71966  -0.71436
 Alpha  occ. eigenvalues --   -0.69578  -0.69386  -0.68936  -0.68763  -0.68421
 Alpha  occ. eigenvalues --   -0.68155  -0.66964  -0.66852  -0.66048  -0.65793
 Alpha  occ. eigenvalues --   -0.65667  -0.65380  -0.64882  -0.64726  -0.64557
 Alpha  occ. eigenvalues --   -0.64053  -0.63347  -0.61523  -0.60914  -0.59995
 Alpha  occ. eigenvalues --   -0.59969  -0.59340  -0.59104  -0.58958  -0.58535
 Alpha  occ. eigenvalues --   -0.58253  -0.58036  -0.57851  -0.57636  -0.57265
 Alpha  occ. eigenvalues --   -0.56342  -0.55963  -0.55691  -0.55629  -0.55614
 Alpha  occ. eigenvalues --   -0.55131  -0.54825  -0.54557  -0.54522  -0.53947
 Alpha  occ. eigenvalues --   -0.53878  -0.53519  -0.53326  -0.53264  -0.53126
 Alpha  occ. eigenvalues --   -0.52922  -0.52889  -0.52698  -0.52608  -0.52241
 Alpha  occ. eigenvalues --   -0.52041  -0.51880  -0.51501  -0.51344  -0.51261
 Alpha  occ. eigenvalues --   -0.51087  -0.50948  -0.50913  -0.50698  -0.50688
 Alpha  occ. eigenvalues --   -0.50357  -0.50276  -0.49912  -0.49577  -0.49404
 Alpha  occ. eigenvalues --   -0.49236  -0.49114  -0.49007  -0.48928  -0.48831
 Alpha  occ. eigenvalues --   -0.48565  -0.48502  -0.48435  -0.48305  -0.48165
 Alpha  occ. eigenvalues --   -0.47806  -0.47759  -0.47666  -0.47419  -0.47195
 Alpha  occ. eigenvalues --   -0.47008  -0.46847  -0.46763  -0.46601  -0.46425
 Alpha  occ. eigenvalues --   -0.46206  -0.46196  -0.46004  -0.45894  -0.45734
 Alpha  occ. eigenvalues --   -0.45575  -0.45259  -0.45092  -0.45021  -0.44876
 Alpha  occ. eigenvalues --   -0.44829  -0.44608  -0.44463  -0.44379  -0.44254
 Alpha  occ. eigenvalues --   -0.44138  -0.43832  -0.43712  -0.43599  -0.43495
 Alpha  occ. eigenvalues --   -0.43178  -0.42894  -0.42747  -0.42702  -0.42676
 Alpha  occ. eigenvalues --   -0.42637  -0.42261  -0.42237  -0.42081  -0.42013
 Alpha  occ. eigenvalues --   -0.41682  -0.41639  -0.41496  -0.41436  -0.41160
 Alpha  occ. eigenvalues --   -0.40961  -0.40860  -0.40724  -0.40626  -0.40176
 Alpha  occ. eigenvalues --   -0.39995  -0.39844  -0.39782  -0.39365  -0.39078
 Alpha  occ. eigenvalues --   -0.38727  -0.38190  -0.38045  -0.37953  -0.37853
 Alpha  occ. eigenvalues --   -0.37590  -0.36867  -0.36853  -0.36532  -0.36529
 Alpha  occ. eigenvalues --   -0.36402  -0.36293  -0.34818  -0.34305  -0.34281
 Alpha  occ. eigenvalues --   -0.34047  -0.33865  -0.33410  -0.31727  -0.31615
 Alpha  occ. eigenvalues --   -0.31170  -0.31085  -0.30925  -0.30356  -0.30181
 Alpha  occ. eigenvalues --   -0.30117  -0.29140  -0.29027  -0.24945  -0.23641
 Alpha  occ. eigenvalues --   -0.21672  -0.21212
 Alpha virt. eigenvalues --   -0.09530  -0.08393  -0.01901  -0.01665  -0.00033
 Alpha virt. eigenvalues --   -0.00005   0.00621   0.02120   0.02207   0.02630
 Alpha virt. eigenvalues --    0.05006   0.05256   0.05433   0.05495   0.05967

 Mulliken charges:
               1
     1  Mg   0.834102
     2  C    0.046695
     3  C   -0.061053
     4  C   -0.071288
     5  C   -0.093673
     6  N   -0.207340
     7  C   -0.140049
     8  C    0.027018
     9  C   -0.087885
    10  C    0.045291
    11  C    0.043957
    12  C    0.065434
    13  C   -0.077255
    14  H    0.020437
    15  N   -0.449220
    16  C    0.144335
    17  C   -0.127425
    18  C   -0.063078
    19  C    0.122869
    20  C    0.101066
    21  C    0.037209
    22  O   -0.159079
    23  C    0.015509
    24  N   -0.261526
    25  C    0.011081
    26  C    0.001202
    27  C   -0.019823
    28  C    0.031464
    29  C    0.063926
    30  C    0.026417
    31  C    0.015643
    32  N   -0.333845
    33  C    0.151036
    34  C   -0.160986
    35  C    0.054044
    36  C    0.083203
    37  C    0.103580
    38  C    0.016000
    39  O   -0.220067
    40  C   -0.011485
    41  C    0.205070
    42  O   -0.233908
    43  O   -0.336058
    44  C    0.186338
    45  H   -0.027696
    46  H   -0.015371
    47  H   -0.031257
    48  H    0.025834
    49  H    0.014649
    50  H    0.026800
    51  H    0.017638
    52  H    0.017608
    53  H   -0.007422
    54  H    0.015260
    55  H    0.035032
    56  H    0.042417
    57  H    0.043214
    58  H    0.020456
    59  H    0.020677
    60  H    0.049364
    61  H    0.033208
    62  H    0.022825
    63  H    0.011368
    64  H    0.008406
    65  H    0.021646
    66  H    0.013256
    67  H    0.028437
    68  H    0.004145
    69  H    0.007201
    70  H    0.004353
    71  H    0.003669
    72  H    0.027896
    73  H    0.017355
    74  H    0.026291
    75  H    0.033204
    76  H    0.032837
    77  H    0.049829
    78  H    0.038659
    79  H    0.030324
    80  Mg   0.825813
    81  C    0.014954
    82  C   -0.064109
    83  C   -0.034143
    84  C   -0.085221
    85  N   -0.280185
    86  C   -0.033746
    87  C   -0.003287
    88  C   -0.057043
    89  C    0.024086
    90  C    0.073107
    91  C    0.009604
    92  C   -0.045398
    93  H    0.044642
    94  N   -0.376610
    95  C    0.139180
    96  C   -0.133909
    97  C   -0.051342
    98  C    0.178997
    99  C    0.140052
   100  C    0.018695
   101  O   -0.238780
   102  C    0.063185
   103  N   -0.229451
   104  C   -0.016337
   105  C   -0.028435
   106  C    0.002432
   107  C    0.020960
   108  C    0.047844
   109  C    0.001340
   110  C   -0.010173
   111  N   -0.377001
   112  C    0.118810
   113  C   -0.164098
   114  C    0.035770
   115  C    0.123906
   116  C    0.127111
   117  C    0.044600
   118  O   -0.184316
   119  C   -0.043156
   120  C    0.174909
   121  O   -0.212578
   122  O   -0.339385
   123  C    0.178550
   124  H   -0.011511
   125  H   -0.063607
   126  H   -0.026496
   127  H    0.025718
   128  H    0.012394
   129  H    0.017776
   130  H    0.012574
   131  H    0.020258
   132  H    0.032838
   133  H    0.016826
   134  H    0.030177
   135  H    0.016161
   136  H    0.036972
   137  H    0.022633
   138  H   -0.021588
   139  H    0.042188
   140  H    0.019897
   141  H    0.027702
   142  H    0.019228
   143  H    0.008132
   144  H    0.006270
   145  H    0.010272
   146  H    0.018321
   147  H    0.012637
   148  H    0.017228
   149  H    0.010722
   150  H    0.016207
   151  H    0.026523
   152  H    0.022302
   153  H    0.042586
   154  H    0.050607
   155  H    0.029788
   156  H    0.033943
   157  H    0.019731
   158  H    0.044750
 Sum of Mulliken charges =  -0.00000

 Dipole moment (field-independent basis, Debye):
    X=              1.8176    Y=              1.7665    Z=             -5.0166  Tot=              5.6205
 Quadrupole moment (field-independent basis, Debye-Ang):
   XX=            -78.7897   YY=           -581.4731   ZZ=           -467.8783
   XY=           -100.7329   XZ=             36.9792   YZ=              7.9314

 Normal termination of Gaussian 16 at Thu Sep 16 05:32:52 2021.
