 Gaussian 16, Revision A.03,
 Gaussian 16:  ES64L-G16RevA.03 25-Dec-2016

 ----------------------------------------------------------
 #p cam-b3lyp/Def2SVP td=(nstates=5) density=(transition=1)
 ----------------------------------------------------------

 --------------------------------
 TDDFT excited states in gaussian
 --------------------------------
 Symbolic Z-matrix:
 Charge =  0 Multiplicity = 1

                         Standard orientation:
 ---------------------------------------------------------------------
 Center     Atomic      Atomic             Coordinates (Angstroms)
 Number     Number       Type             X           Y           Z
 ---------------------------------------------------------------------
      1         12           0      -13.175012   -0.278537   -0.360456
      2          6           0       -9.902817    0.121940    0.923409
      3          6           0      -13.983801    2.828590    0.905757
      4          6           0      -16.374319   -0.810939   -1.341577
      5          6           0      -12.366944   -3.514467   -1.439895
      6          7           0      -12.027987    1.171670    0.857431
      7          6           0      -10.654616    1.241284    1.078899
      8          6           0      -10.247207    2.612286    1.758446
      9          6           0      -11.629273    3.287481    1.964653
     10          6           0      -12.645116    2.367641    1.250958
     11          6           0      -12.094459    3.591439    3.437861
     12          6           0       -9.111613    3.451415    1.041517
     13          6           0       -7.890247    3.711589    1.870336
     14          1           0       -7.206429    5.122492    1.674800
     15          7           0      -14.865336    0.856404   -0.206493
     16          6           0      -15.016942    2.139266    0.279332
     17          6           0      -16.412543    2.535030    0.172720
     18          6           0      -17.154317    1.509346   -0.478848
     19          6           0      -16.119695    0.440728   -0.734439
     20          6           0      -16.944744    3.931855    0.551281
     21          6           0      -18.623547    1.465578   -0.886211
     22          8           0      -19.122308    0.559176   -1.521072
     23          6           0      -19.654729    2.639518   -0.628305
     24          7           0      -14.249535   -1.991621   -1.187665
     25          6           0      -15.538570   -1.947871   -1.498079
     26          6           0      -16.034460   -3.289586   -2.146157
     27          6           0      -14.685091   -4.085275   -2.351858
     28          6           0      -13.673618   -3.138124   -1.638337
     29          6           0      -17.155369   -3.964681   -1.303981
     30          6           0      -14.409500   -4.376032   -3.813858
     31          6           0      -13.873329   -5.781610   -4.079558
     32          7           0      -11.562928   -1.588498   -0.203917
     33          6           0      -11.330052   -2.828425   -0.767393
     34          6           0      -10.035107   -3.255943   -0.335127
     35          6           0       -9.405144   -2.148859    0.285547
     36          6           0      -10.381706   -1.116979    0.362520
     37          6           0       -9.428166   -4.584549   -0.583746
     38          6           0       -8.132705   -1.650289    0.836025
     39          8           0       -7.063598   -2.196863    1.091297
     40          6           0       -8.466800   -0.021592    1.254815
     41          6           0       -8.189786    0.184896    2.642086
     42          8           0       -9.033283    0.284440    3.506594
     43          8           0       -6.844007    0.389750    2.846739
     44          6           0       -6.501548    0.552453    4.281644
     45          1           0      -14.248965    3.852247    1.178974
     46          1           0      -17.397558   -1.055145   -1.632715
     47          1           0      -12.175523   -4.493640   -1.885244
     48          1           0       -9.971933    2.331454    2.774467
     49          1           0      -11.669524    4.246309    1.447720
     50          1           0      -12.575089    4.569993    3.415454
     51          1           0      -11.218094    3.577328    4.085383
     52          1           0      -12.810632    2.874751    3.840289
     53          1           0       -9.588334    4.375527    0.714336
     54          1           0       -8.785465    2.865338    0.182137
     55          1           0       -7.123024    2.972595    1.635634
     56          1           0       -8.244057    3.571770    2.891401
     57          1           0      -17.242833    4.383998   -0.393997
     58          1           0      -16.111963    4.547289    0.892431
     59          1           0      -17.804802    3.947988    1.221866
     60          1           0      -19.255980    3.542670   -1.091533
     61          1           0      -20.005390    2.675513    0.403546
     62          1           0      -20.586114    2.280195   -1.064898
     63          1           0      -16.447202   -3.162318   -3.146730
     64          1           0      -14.774710   -4.982767   -1.739513
     65          1           0      -16.879217   -5.006646   -1.139792
     66          1           0      -18.149595   -3.852174   -1.737106
     67          1           0      -17.220169   -3.482817   -0.329801
     68          1           0      -13.722383   -3.654274   -4.254272
     69          1           0      -15.273182   -4.243455   -4.467302
     70          1           0      -13.609792   -6.289848   -3.151955
     71          1           0      -12.961698   -5.653208   -4.663794
     72          1           0      -14.534954   -6.366394   -4.718800
     73          1           0      -10.025554   -5.314628   -1.129747
     74          1           0       -8.971626   -4.888218    0.359075
     75          1           0       -8.710151   -4.373146   -1.376486
     76          1           0       -7.837284    0.634266    0.652758
     77          1           0       -6.792945   -0.340679    4.834810
     78          1           0       -6.982872    1.476432    4.601994
     79          1           0       -5.430597    0.652533    4.453768
     80         12           0       12.935680   -0.163599    0.079534
     81          6           0       11.217541    2.233449   -1.691349
     82          6           0       10.786209    0.103364    2.732064
     83          6           0       14.586527   -2.743776    1.779181
     84          6           0       14.605883   -1.115919   -2.789214
     85          7           0       11.072483    0.920749    0.311853
     86          6           0       10.609369    2.001838   -0.443039
     87          6           0        9.328266    2.591962    0.151775
     88          6           0        9.407597    1.985461    1.575811
     89          6           0       10.445517    0.844761    1.550290
     90          6           0        9.616984    3.048377    2.676471
     91          6           0        8.071800    2.174797   -0.637925
     92          6           0        6.991172    3.283349   -0.885100
     93          1           0        5.588180    2.821983   -0.960473
     94          7           0       12.740355   -1.107478    1.969941
     95          6           0       11.859697   -0.798984    2.949276
     96          6           0       12.171708   -1.425170    4.199055
     97          6           0       13.353603   -2.156676    3.996974
     98          6           0       13.640793   -2.005431    2.510510
     99          6           0       11.423621   -1.163234    5.507788
    100          6           0       14.142678   -2.998280    5.064361
    101          8           0       13.649928   -3.116184    6.215446
    102          6           0       15.571686   -3.641689    4.800560
    103          7           0       14.174934   -1.908101   -0.510169
    104          6           0       14.817519   -2.695467    0.386407
    105          6           0       15.898936   -3.537763   -0.240187
    106          6           0       15.895033   -3.073948   -1.712817
    107          6           0       14.866936   -1.940173   -1.681861
    108          6           0       17.286480   -3.461142    0.479045
    109          6           0       15.628825   -4.265292   -2.751326
    110          6           0       16.869695   -4.732248   -3.521083
    111          7           0       12.985906    0.444311   -1.843124
    112          6           0       13.740996    0.001472   -2.951409
    113          6           0       13.585235    0.956976   -4.056078
    114          6           0       12.667181    1.869969   -3.556114
    115          6           0       12.266766    1.426967   -2.284776
    116          6           0       14.205910    0.970644   -5.407083
    117          6           0       11.911875    3.083868   -3.897363
    118          8           0       12.037297    3.903559   -4.822039
    119          6           0       10.962849    3.399645   -2.672566
    120          6           0       11.284174    4.754569   -2.056257
    121          8           0       12.397771    5.215326   -1.786094
    122          8           0       10.062939    5.350169   -1.945203
    123          6           0       10.056301    6.746647   -1.542781
    124          1           0       10.111300    0.183462    3.586671
    125          1           0       15.228394   -3.508922    2.220909
    126          1           0       15.108640   -1.357667   -3.727780
    127          1           0        9.384261    3.680841    0.131473
    128          1           0        8.414878    1.559089    1.719760
    129          1           0        9.354795    4.087333    2.476772
    130          1           0       10.692126    3.075119    2.853190
    131          1           0        9.091436    2.796889    3.597397
    132          1           0        7.586802    1.290402   -0.225631
    133          1           0        8.454283    1.758779   -1.570297
    134          1           0        7.228003    3.806912   -1.811285
    135          1           0        7.009176    3.975169   -0.041824
    136          1           0       12.179911   -0.815399    6.211084
    137          1           0       10.797657   -2.021787    5.751314
    138          1           0       10.794624   -0.300137    5.289966
    139          1           0       15.384932   -4.601761    4.320861
    140          1           0       16.018438   -3.797652    5.782214
    141          1           0       16.171331   -2.865573    4.324216
    142          1           0       15.586339   -4.580458   -0.182426
    143          1           0       16.766992   -2.511864   -2.046440
    144          1           0       18.101072   -3.334251   -0.233474
    145          1           0       17.501560   -4.350290    1.071432
    146          1           0       17.258527   -2.662722    1.219411
    147          1           0       14.932172   -3.982216   -3.540297
    148          1           0       15.138293   -5.097403   -2.246400
    149          1           0       16.847481   -5.816726   -3.629830
    150          1           0       17.769249   -4.446825   -2.976131
    151          1           0       16.961840   -4.298585   -4.516677
    152          1           0       14.935069    0.161019   -5.438324
    153          1           0       14.497178    1.987150   -5.672361
    154          1           0       13.427229    0.639389   -6.094962
    155          1           0        9.907215    3.348055   -2.940494
    156          1           0       10.729670    6.971541   -0.714703
    157          1           0        9.092073    7.183402   -1.282832
    158          1           0       10.368430    7.370770   -2.380518
 ---------------------------------------------------------------------

 SCF Done:  E(RCAM-B3LYP) =  -4069.82840908     A.U. after   19 cycles

 Excitation energies and oscillator strengths:

 Excited State   1:      Singlet-A      1.7090 eV  725.50 nm  f=0.3607  <S**2>=0.000
     309 -> 315        0.17439
     312 -> 314        0.68607
     309 <- 315        0.10513
 This state for optimization and/or second-order correction.
 Total Energy, E(TD-HF/TD-DFT) =  -4069.76560628
 Copying the excited state density for this state as the 1-particle RhoCI density.

 Excited State   2:      Singlet-A      1.7838 eV  695.05 nm  f=0.3776  <S**2>=0.000
     310 -> 316        0.17650
     311 -> 313        0.68526
     310 <- 316        0.10145

 Excited State   3:      Singlet-A      2.2474 eV  551.67 nm  f=0.0941  <S**2>=0.000
     309 -> 314        0.62468
     312 -> 315       -0.31488

 Excited State   4:      Singlet-A      2.2587 eV  548.91 nm  f=0.1140  <S**2>=0.000
     310 -> 313        0.63878
     311 -> 316       -0.28389

 Excited State   5:      Singlet-A      3.0466 eV  406.96 nm  f=0.0000  <S**2>=0.000
     312 -> 313        0.70705

 The electronic state is 1-A.
 Alpha  occ. eigenvalues --  -46.89102 -46.88240 -19.26299 -19.24354 -19.20202
 Alpha  occ. eigenvalues --  -19.19888 -19.19616 -19.19397 -19.19242 -19.18379
 Alpha  occ. eigenvalues --  -14.42333 -14.42279 -14.42102 -14.41769 -14.40347
 Alpha  occ. eigenvalues --  -14.40156 -14.39038 -14.38729 -10.39892 -10.38340
 Alpha  occ. eigenvalues --  -10.36609 -10.36406 -10.36006 -10.34684 -10.32528
 Alpha  occ. eigenvalues --  -10.32126 -10.31994 -10.31984 -10.31523 -10.31295
 Alpha  occ. eigenvalues --  -10.31278 -10.31136 -10.31116 -10.31018 -10.30409
 Alpha  occ. eigenvalues --  -10.30328 -10.30193 -10.30180 -10.29815 -10.29603
 Alpha  occ. eigenvalues --  -10.28871 -10.28730 -10.28711 -10.28663 -10.28503
 Alpha  occ. eigenvalues --  -10.28422 -10.28407 -10.28279 -10.28093 -10.28037
 Alpha  occ. eigenvalues --  -10.28001 -10.27955 -10.27942 -10.27902 -10.27831
 Alpha  occ. eigenvalues --  -10.27815 -10.27796 -10.27678 -10.27672 -10.27629
 Alpha  occ. eigenvalues --  -10.27614 -10.27537 -10.27407 -10.27369 -10.27224
 Alpha  occ. eigenvalues --  -10.27134 -10.26918 -10.26914 -10.26850 -10.26794
 Alpha  occ. eigenvalues --  -10.26724 -10.26675 -10.26504 -10.26473 -10.26341
 Alpha  occ. eigenvalues --  -10.26261 -10.26205 -10.25983 -10.25978 -10.25909
 Alpha  occ. eigenvalues --  -10.25826 -10.25703 -10.25291 -10.25151 -10.24885
 Alpha  occ. eigenvalues --  -10.24517  -3.17635  -3.16770  -1.92501  -1.92077
 Alpha  occ. eigenvalues --   -1.91965  -1.91678  -1.91219  -1.91077  -1.16774
 Alpha  occ. eigenvalues --   -1.15896  -1.11519  -1.09277  -1.08549  -1.08295
 Alpha  occ. eigenvalues --   -1.07688  -1.07453  -1.04604  -1.04094  -1.03932
 Alpha  occ. eigenvalues --   -1.03448  -1.02478  -1.02075  -1.01973  -1.00951
 Alpha  occ. eigenvalues --   -0.91862  -0.91348  -0.89143  -0.88811  -0.88767
 Alpha  occ. eigenvalues --   -0.88610  -0.88451  -0.88052  -0.87229  -0.87208
 Alpha  occ. eigenvalues --   -0.86916  -0.86903  -0.86321  -0.85618  -0.84394
 Alpha  occ. eigenvalues --   -0.84239  -0.83831  -0.83649  -0.82519  -0.82436
 Alpha  occ. eigenvalues --   -0.81567  -0.81054  -0.81048  -0.80733  -0.80118
 Alpha  occ. eigenvalues --   -0.80110  -0.78443  -0.77870  -0.77408  -0.76950
 Alpha  occ. eigenvalues --   -0.76667  -0.76470  -0.75819  -0.75782  -0.75221
 Alpha  occ. eigenvalues --   -0.74730  -0.72636  -0.72255  -0.71654  -0.71314
 Alpha  occ. eigenvalues --   -0.69129  -0.69067  -0.68894  -0.68856  -0.67803
 Alpha  occ. eigenvalues --   -0.67435  -0.67257  -0.67178  -0.66062  -0.65638
 Alpha  occ. eigenvalues --   -0.65005  -0.64920  -0.64817  -0.64599  -0.64484
 Alpha  occ. eigenvalues --   -0.64366  -0.62619  -0.61166  -0.60046  -0.59875
 Alpha  occ. eigenvalues --   -0.59522  -0.59179  -0.58848  -0.58813  -0.58537
 Alpha  occ. eigenvalues --   -0.58042  -0.57823  -0.57661  -0.57165  -0.57019
 Alpha  occ. eigenvalues --   -0.55960  -0.55896  -0.55782  -0.55692  -0.55280
 Alpha  occ. eigenvalues --   -0.54946  -0.54751  -0.54260  -0.53711  -0.53699
 Alpha  occ. eigenvalues --   -0.53293  -0.53252  -0.53221  -0.53072  -0.53052
 Alpha  occ. eigenvalues --   -0.52727  -0.52570  -0.52528  -0.52144  -0.51947
 Alpha  occ. eigenvalues --   -0.51713  -0.51504  -0.51420  -0.51283  -0.51107
 Alpha  occ. eigenvalues --   -0.51029  -0.51026  -0.50926  -0.50803  -0.50602
 Alpha  occ. eigenvalues --   -0.50155  -0.49878  -0.49592  -0.49532  -0.49480
 Alpha  occ. eigenvalues --   -0.49392  -0.49258  -0.48987  -0.48662  -0.48555
 Alpha  occ. eigenvalues --   -0.48442  -0.48197  -0.48084  -0.48076  -0.48015
 Alpha  occ. eigenvalues --   -0.47771  -0.47752  -0.47612  -0.47505  -0.47409
 Alpha  occ. eigenvalues --   -0.47111  -0.46791  -0.46791  -0.46499  -0.46439
 Alpha  occ. eigenvalues --   -0.46317  -0.46231  -0.46010  -0.45933  -0.45540
 Alpha  occ. eigenvalues --   -0.45498  -0.45185  -0.45154  -0.44863  -0.44704
 Alpha  occ. eigenvalues --   -0.44691  -0.44484  -0.44357  -0.44045  -0.44011
 Alpha  occ. eigenvalues --   -0.43945  -0.43724  -0.43695  -0.43580  -0.43406
 Alpha  occ. eigenvalues --   -0.43297  -0.43211  -0.43208  -0.42972  -0.42872
 Alpha  occ. eigenvalues --   -0.42423  -0.42405  -0.42383  -0.42304  -0.42053
 Alpha  occ. eigenvalues --   -0.42008  -0.41886  -0.41533  -0.41500  -0.41189
 Alpha  occ. eigenvalues --   -0.41076  -0.40729  -0.40579  -0.40534  -0.40294
 Alpha  occ. eigenvalues --   -0.40043  -0.39685  -0.39641  -0.39448  -0.39289
 Alpha  occ. eigenvalues --   -0.38695  -0.38583  -0.38304  -0.38079  -0.37678
 Alpha  occ. eigenvalues --   -0.37316  -0.37188  -0.36882  -0.36779  -0.36343
 Alpha  occ. eigenvalues --   -0.36269  -0.35929  -0.34800  -0.34726  -0.34307
 Alpha  occ. eigenvalues --   -0.33857  -0.33094  -0.32961  -0.31667  -0.31512
 Alpha  occ. eigenvalues --   -0.31491  -0.31128  -0.30658  -0.30421  -0.30384
 Alpha  occ. eigenvalues --   -0.30246  -0.29766  -0.28671  -0.24127  -0.24075
 Alpha  occ. eigenvalues --   -0.21325  -0.21011
 Alpha virt. eigenvalues --   -0.08528  -0.08509  -0.01950  -0.01786   0.00033
 Alpha virt. eigenvalues --    0.00242   0.01704   0.02049   0.02088   0.02955
 Alpha virt. eigenvalues --    0.04515   0.05054   0.05123   0.05376   0.05927

 Mulliken charges:
               1
     1  Mg  11.999954
     2  C    5.999814
     3  C    6.000181
     4  C    6.000112
     5  C    5.999832
     6  N    6.999922
     7  C    6.000199
     8  C    5.999927
     9  C    6.000078
    10  C    5.999704
    11  C    6.000049
    12  C    6.000029
    13  C    6.000010
    14  H    0.999885
    15  N    7.000089
    16  C    5.999585
    17  C    5.999864
    18  C    5.999777
    19  C    5.999703
    20  C    6.000060
    21  C    5.999923
    22  O    7.999725
    23  C    6.000041
    24  N    6.999997
    25  C    5.999720
    26  C    6.000085
    27  C    5.999896
    28  C    6.000239
    29  C    6.000030
    30  C    6.000027
    31  C    6.000016
    32  N    6.999992
    33  C    6.000289
    34  C    6.000218
    35  C    6.000115
    36  C    6.000287
    37  C    5.999974
    38  C    6.000119
    39  O    8.000528
    40  C    6.000156
    41  C    6.000061
    42  O    8.000140
    43  O    7.999970
    44  C    5.999815
    45  H    0.999877
    46  H    0.999880
    47  H    1.000057
    48  H    1.000184
    49  H    0.999870
    50  H    0.999940
    51  H    1.000010
    52  H    1.000049
    53  H    0.999943
    54  H    0.999781
    55  H    1.000029
    56  H    1.000214
    57  H    0.999740
    58  H    0.999826
    59  H    0.999847
    60  H    0.999879
    61  H    0.999946
    62  H    0.999838
    63  H    0.999881
    64  H    1.000071
    65  H    0.999917
    66  H    0.999957
    67  H    1.000083
    68  H    0.999888
    69  H    1.000009
    70  H    1.000076
    71  H    0.999874
    72  H    0.999989
    73  H    1.000146
    74  H    1.000403
    75  H    1.000060
    76  H    0.999934
    77  H    1.000218
    78  H    0.999998
    79  H    1.000446
    80  Mg  12.002037
    81  C    5.967315
    82  C    6.018376
    83  C    6.032247
    84  C    5.994941
    85  N    6.983817
    86  C    6.038634
    87  C    5.992294
    88  C    6.009511
    89  C    5.965649
    90  C    6.003180
    91  C    6.000330
    92  C    5.998569
    93  H    1.004106
    94  N    7.009785
    95  C    5.958210
    96  C    5.980596
    97  C    5.986745
    98  C    5.951970
    99  C    6.003252
   100  C    5.990219
   101  O    7.979559
   102  C    5.998681
   103  N    7.007885
   104  C    5.959090
   105  C    6.013501
   106  C    5.991154
   107  C    6.032563
   108  C    6.000611
   109  C    5.996534
   110  C    5.999133
   111  N    6.997621
   112  C    6.043541
   113  C    6.023504
   114  C    6.005559
   115  C    6.031101
   116  C    5.996300
   117  C    6.015930
   118  O    8.032002
   119  C    6.001550
   120  C    6.005284
   121  O    8.002147
   122  O    8.001702
   123  C    5.997877
   124  H    0.989812
   125  H    0.994608
   126  H    1.013914
   127  H    0.998263
   128  H    0.994029
   129  H    0.985988
   130  H    0.999103
   131  H    1.000561
   132  H    1.009413
   133  H    0.992116
   134  H    0.995012
   135  H    1.004339
   136  H    0.984484
   137  H    0.982018
   138  H    0.983214
   139  H    0.989753
   140  H    0.988669
   141  H    0.991652
   142  H    0.997805
   143  H    0.996761
   144  H    0.988906
   145  H    1.001740
   146  H    1.003138
   147  H    0.996301
   148  H    1.012103
   149  H    1.005625
   150  H    1.005799
   151  H    0.997590
   152  H    1.016667
   153  H    1.016983
   154  H    1.020391
   155  H    1.007632
   156  H    1.005128
   157  H    1.005455
   158  H    1.000417
 Sum of Mulliken charges = 624.00000

 Dipole moment (field-independent basis, Debye):
    X=              1.0435    Y=              3.3690    Z=             -9.9442  Tot=             10.5511
 Quadrupole moment (field-independent basis, Debye-Ang):
   XX=             20.2123   YY=              2.3429   ZZ=             -2.0620
   XY=             44.3328   XZ=           -130.2866   YZ=              3.0401

 Normal termination of Gaussian 16 at Thu Sep 23 09:55:19 2021.
