 Gaussian 16, Revision A.03,
 Gaussian 16:  ES64L-G16RevA.03 25-Dec-2016

 -----------------------------------
 #p cam-b3lyp/Def2SVP td=(nstates=5)
 -----------------------------------

 --------------------------------
 TDDFT excited states in gaussian
 --------------------------------
 Symbolic Z-matrix:
 Charge =  0 Multiplicity = 1

                         Standard orientation:
 ---------------------------------------------------------------------
 Center     Atomic      Atomic             Coordinates (Angstroms)
 Number     Number       Type             X           Y           Z
 ---------------------------------------------------------------------
      1         12           0      -26.799445   -0.270847   -0.037244
      2          6           0      -23.480639   -0.925082   -0.391237
      3          6           0      -26.707999   -1.918247    3.091046
      4          6           0      -29.653823    1.272681    0.752841
      5          6           0      -26.670552    1.845908   -2.960489
      6          7           0      -25.276475   -1.292950    1.132131
      7          6           0      -24.022859   -1.458929    0.868279
      8          6           0      -23.314049   -2.474886    1.832930
      9          6           0      -24.465496   -3.002275    2.771121
     10          6           0      -25.620760   -2.046349    2.314139
     11          6           0      -24.694196   -4.514356    2.783016
     12          6           0      -22.022650   -1.807171    2.596706
     13          6           0      -21.963016   -0.295295    2.743120
     14          1           0      -21.057395    0.349046    3.792664
     15          7           0      -28.000392   -0.319193    1.695875
     16          6           0      -27.847472   -1.087033    2.825223
     17          6           0      -28.876940   -0.805519    3.728736
     18          6           0      -29.755617    0.162932    3.106261
     19          6           0      -29.131890    0.456119    1.788970
     20          6           0      -29.028540   -1.604449    5.010195
     21          6           0      -31.029943    0.722648    3.764007
     22          8           0      -31.321079    0.314574    4.910791
     23          6           0      -31.922439    1.680868    3.178591
     24          7           0      -27.956596    1.500792   -0.923647
     25          6           0      -29.153165    1.722735   -0.458661
     26          6           0      -29.985344    2.684011   -1.354318
     27          6           0      -29.055230    2.832963   -2.578115
     28          6           0      -27.766152    1.997280   -2.199756
     29          6           0      -31.321395    2.163182   -1.744722
     30          6           0      -28.747790    4.361329   -2.942861
     31          6           0      -29.376513    4.896136   -4.294820
     32          7           0      -25.456450    0.289107   -1.497574
     33          6           0      -25.511977    1.104680   -2.634744
     34          6           0      -24.188479    1.044399   -3.329796
     35          6           0      -23.392295    0.300620   -2.447307
     36          6           0      -24.180727   -0.113007   -1.332777
     37          6           0      -23.778507    1.660002   -4.577624
     38          6           0      -22.077021   -0.122894   -2.289349
     39          8           0      -21.053000   -0.018861   -2.980432
     40          6           0      -22.084384   -1.009727   -1.011866
     41          6           0      -21.559403   -2.413111   -1.397598
     42          8           0      -20.643937   -3.031123   -0.881333
     43          8           0      -22.261896   -2.960546   -2.449319
     44          6           0      -21.836857   -4.277302   -2.938955
     45          1           0      -26.567011   -2.403579    4.058886
     46          1           0      -30.657391    1.683359    0.880283
     47          1           0      -26.696934    2.349032   -3.929202
     48          1           0      -23.059803   -3.342697    1.223769
     49          1           0      -24.312179   -2.714202    3.811589
     50          1           0      -25.674192   -4.739785    2.362884
     51          1           0      -24.682170   -4.925337    3.793161
     52          1           0      -23.936313   -5.111546    2.275908
     53          1           0      -21.198028   -2.230850    2.022988
     54          1           0      -21.905709   -2.087406    3.643776
     55          1           0      -22.999854   -0.030778    2.949081
     56          1           0      -21.738829    0.077559    1.743548
     57          1           0      -29.960883   -2.131605    5.214207
     58          1           0      -28.763656   -0.963647    5.851539
     59          1           0      -28.265143   -2.381908    5.032800
     60          1           0      -32.430555    1.405394    2.254623
     61          1           0      -31.367796    2.552111    2.831609
     62          1           0      -32.638206    2.100837    3.884589
     63          1           0      -30.246022    3.667617   -0.963810
     64          1           0      -29.418117    2.306893   -3.461183
     65          1           0      -32.163503    2.611546   -1.217768
     66          1           0      -31.439566    1.128174   -1.421959
     67          1           0      -31.470562    2.277736   -2.818249
     68          1           0      -27.672913    4.458076   -3.101683
     69          1           0      -29.129804    5.082288   -2.221366
     70          1           0      -29.837531    5.868092   -4.123675
     71          1           0      -30.211368    4.245122   -4.554559
     72          1           0      -28.526016    5.028401   -4.963853
     73          1           0      -24.689945    1.688276   -5.175226
     74          1           0      -23.031894    1.045933   -5.082477
     75          1           0      -23.310907    2.607040   -4.309866
     76          1           0      -21.276330   -0.773009   -0.320070
     77          1           0      -22.158280   -4.376576   -3.975918
     78          1           0      -22.251024   -5.163551   -2.458470
     79          1           0      -20.767776   -4.463000   -2.831499
     80         12           0       25.785142    0.773997    0.503422
     81          6           0       26.469958   -2.665897   -0.319347
     82          6           0       23.402705    0.822750   -1.836966
     83          6           0       25.848885    4.117479    0.722074
     84          6           0       28.620818    0.654991    2.564741
     85          7           0       25.088776   -0.717759   -0.918390
     86          6           0       25.351785   -2.097394   -0.966577
     87          6           0       24.335043   -2.843260   -1.912346
     88          6           0       23.428546   -1.679037   -2.414752
     89          6           0       23.962760   -0.446258   -1.638051
     90          6           0       23.379742   -1.431665   -3.901166
     91          6           0       23.563904   -4.060857   -1.169355
     92          6           0       23.630387   -5.413168   -1.889762
     93          1           0       22.221680   -6.015763   -2.250013
     94          7           0       24.660286    2.262452   -0.336276
     95          6           0       23.730551    2.109330   -1.284609
     96          6           0       23.153229    3.393428   -1.685720
     97          6           0       23.955952    4.360705   -0.987901
     98          6           0       24.895892    3.602234   -0.155844
     99          6           0       22.040638    3.519252   -2.635741
    100          6           0       23.852392    5.901297   -1.217404
    101          8           0       24.503197    6.697497   -0.561614
    102          6           0       22.936922    6.509049   -2.231764
    103          7           0       27.021404    2.122101    1.478472
    104          6           0       26.754566    3.486549    1.514022
    105          6           0       27.747475    4.227314    2.468790
    106          6           0       28.378934    3.046775    3.296991
    107          6           0       27.950350    1.852556    2.444629
    108          6           0       28.737552    5.258309    1.835380
    109          6           0       27.840351    2.928926    4.749133
    110          6           0       28.804557    2.572870    5.852423
    111          7           0       27.293222   -0.666490    0.998971
    112          6           0       28.362920   -0.557167    1.841442
    113          6           0       29.006982   -1.934682    1.991316
    114          6           0       28.269630   -2.789467    1.208127
    115          6           0       27.283303   -1.962023    0.569564
    116          6           0       30.151760   -2.202400    2.941713
    117          6           0       28.102251   -4.144605    0.714078
    118          8           0       28.825465   -5.105833    1.049493
    119          6           0       26.924115   -4.114339   -0.430912
    120          6           0       27.400122   -4.402533   -1.839425
    121          8           0       28.334879   -3.749547   -2.344096
    122          8           0       26.812733   -5.547670   -2.378913
    123          6           0       27.553931   -6.062196   -3.524533
    124          1           0       22.541562    0.884298   -2.505309
    125          1           0       25.756533    5.203723    0.779792
    126          1           0       29.414793    0.667483    3.314965
    127          1           0       24.990130   -3.255422   -2.679613
    128          1           0       22.411031   -2.026076   -2.229764
    129          1           0       24.041044   -2.087365   -4.467752
    130          1           0       23.868753   -0.458611   -3.932550
    131          1           0       22.380008   -1.536696   -4.323670
    132          1           0       22.544219   -3.684604   -1.091885
    133          1           0       23.912283   -4.123280   -0.138759
    134          1           0       24.235744   -6.068696   -1.263724
    135          1           0       24.154969   -5.287404   -2.837778
    136          1           0       22.149518    4.135063   -3.527956
    137          1           0       21.312202    4.139875   -2.115150
    138          1           0       21.477282    2.604845   -2.823013
    139          1           0       21.935119    6.208181   -1.922879
    140          1           0       23.144788    6.006461   -3.176794
    141          1           0       23.150291    7.577127   -2.216991
    142          1           0       27.091078    4.794517    3.128775
    143          1           0       29.468373    3.045455    3.271168
    144          1           0       28.412496    5.335188    0.798069
    145          1           0       29.789612    5.000445    1.953534
    146          1           0       28.556434    6.273359    2.191054
    147          1           0       27.126122    2.125112    4.571678
    148          1           0       27.267465    3.789062    5.096243
    149          1           0       28.545540    3.224493    6.687010
    150          1           0       29.844105    2.780584    5.596816
    151          1           0       28.521177    1.573448    6.183423
    152          1           0       30.406050   -1.252794    3.412196
    153          1           0       31.022252   -2.485919    2.350560
    154          1           0       29.879560   -3.007140    3.624351
    155          1           0       26.127748   -4.789948   -0.118724
    156          1           0       28.066809   -7.008919   -3.360680
    157          1           0       28.284187   -5.363629   -3.933233
    158          1           0       26.818244   -6.220003   -4.312761
 ---------------------------------------------------------------------

 SCF Done:  E(RCAM-B3LYP) =  -4069.76698418     A.U. after   19 cycles

 Excitation energies and oscillator strengths:

 Excited State   1:      Singlet-A      1.6980 eV  730.20 nm  f=0.4231  <S**2>=0.000
     310 -> 316        0.17294
     312 -> 314        0.68789
     310 <- 316        0.10776
 This state for optimization and/or second-order correction.
 Total Energy, E(TD-HF/TD-DFT) =  -4069.70458555
 Copying the excited state density for this state as the 1-particle RhoCI density.

 Excited State   2:      Singlet-A      1.7059 eV  726.79 nm  f=0.4274  <S**2>=0.000
     309 -> 315        0.16074
     311 -> 313        0.68827
     309 <- 315        0.10265

 Excited State   3:      Singlet-A      2.2508 eV  550.84 nm  f=0.1196  <S**2>=0.000
     309 -> 313        0.64223
     311 -> 315       -0.27237

 Excited State   4:      Singlet-A      2.2865 eV  542.24 nm  f=0.0917  <S**2>=0.000
     310 -> 314        0.63012
     312 -> 316       -0.31284

 Excited State   5:      Singlet-A      2.8700 eV  432.00 nm  f=0.0000  <S**2>=0.000
     312 -> 313        0.70710

 The electronic state is 1-A.
 Alpha  occ. eigenvalues --  -46.90352 -46.88367 -19.26686 -19.24936 -19.20840
 Alpha  occ. eigenvalues --  -19.20152 -19.19914 -19.19007 -19.18534 -19.17458
 Alpha  occ. eigenvalues --  -14.43236 -14.42552 -14.41962 -14.41637 -14.40577
 Alpha  occ. eigenvalues --  -14.39860 -14.39670 -14.39354 -10.40823 -10.39760
 Alpha  occ. eigenvalues --  -10.36491 -10.34913 -10.34754 -10.34295 -10.33040
 Alpha  occ. eigenvalues --  -10.31809 -10.31732 -10.31578 -10.31546 -10.31305
 Alpha  occ. eigenvalues --  -10.30946 -10.30790 -10.30778 -10.30684 -10.30635
 Alpha  occ. eigenvalues --  -10.30416 -10.30322 -10.30108 -10.29941 -10.29768
 Alpha  occ. eigenvalues --  -10.29673 -10.29489 -10.29339 -10.29304 -10.29122
 Alpha  occ. eigenvalues --  -10.29064 -10.28989 -10.28850 -10.28845 -10.28548
 Alpha  occ. eigenvalues --  -10.28506 -10.28461 -10.28333 -10.28224 -10.28034
 Alpha  occ. eigenvalues --  -10.27759 -10.27702 -10.27599 -10.27453 -10.27350
 Alpha  occ. eigenvalues --  -10.27276 -10.27211 -10.27208 -10.27130 -10.27106
 Alpha  occ. eigenvalues --  -10.27077 -10.27064 -10.26944 -10.26930 -10.26874
 Alpha  occ. eigenvalues --  -10.26744 -10.26493 -10.26442 -10.26191 -10.26133
 Alpha  occ. eigenvalues --  -10.26129 -10.26043 -10.25907 -10.25707 -10.25686
 Alpha  occ. eigenvalues --  -10.25650 -10.25519 -10.25484 -10.25416 -10.25204
 Alpha  occ. eigenvalues --  -10.24947  -3.18759  -3.17019  -1.93637  -1.93247
 Alpha  occ. eigenvalues --   -1.93025  -1.91900  -1.91458  -1.91347  -1.16331
 Alpha  occ. eigenvalues --   -1.16180  -1.10097  -1.09093  -1.09029  -1.07946
 Alpha  occ. eigenvalues --   -1.07652  -1.07392  -1.05073  -1.04548  -1.03906
 Alpha  occ. eigenvalues --   -1.03679  -1.03284  -1.02631  -1.02287  -1.01870
 Alpha  occ. eigenvalues --   -0.93038  -0.92621  -0.89709  -0.89467  -0.89103
 Alpha  occ. eigenvalues --   -0.89026  -0.88731  -0.88362  -0.88020  -0.87839
 Alpha  occ. eigenvalues --   -0.87316  -0.87216  -0.86109  -0.85334  -0.84686
 Alpha  occ. eigenvalues --   -0.84274  -0.84231  -0.83650  -0.82990  -0.82706
 Alpha  occ. eigenvalues --   -0.82548  -0.81922  -0.81500  -0.81193  -0.80309
 Alpha  occ. eigenvalues --   -0.80219  -0.78519  -0.78419  -0.77597  -0.77434
 Alpha  occ. eigenvalues --   -0.77006  -0.76917  -0.76394  -0.76212  -0.75319
 Alpha  occ. eigenvalues --   -0.74693  -0.73438  -0.72437  -0.71992  -0.70959
 Alpha  occ. eigenvalues --   -0.69604  -0.68989  -0.68960  -0.68448  -0.68392
 Alpha  occ. eigenvalues --   -0.67900  -0.66878  -0.66705  -0.66073  -0.65694
 Alpha  occ. eigenvalues --   -0.65327  -0.64979  -0.64909  -0.64884  -0.64583
 Alpha  occ. eigenvalues --   -0.64342  -0.63376  -0.62581  -0.60940  -0.60277
 Alpha  occ. eigenvalues --   -0.59995  -0.59761  -0.58984  -0.58907  -0.58561
 Alpha  occ. eigenvalues --   -0.58512  -0.58321  -0.58063  -0.57307  -0.57292
 Alpha  occ. eigenvalues --   -0.56368  -0.56245  -0.55655  -0.55641  -0.55417
 Alpha  occ. eigenvalues --   -0.55105  -0.54913  -0.54853  -0.54584  -0.53905
 Alpha  occ. eigenvalues --   -0.53759  -0.53543  -0.53503  -0.53291  -0.53122
 Alpha  occ. eigenvalues --   -0.52916  -0.52635  -0.52589  -0.52445  -0.52268
 Alpha  occ. eigenvalues --   -0.51819  -0.51606  -0.51526  -0.51475  -0.51288
 Alpha  occ. eigenvalues --   -0.51262  -0.51122  -0.50973  -0.50814  -0.50722
 Alpha  occ. eigenvalues --   -0.50303  -0.50237  -0.49939  -0.49603  -0.49597
 Alpha  occ. eigenvalues --   -0.49361  -0.49261  -0.49145  -0.49033  -0.48858
 Alpha  occ. eigenvalues --   -0.48779  -0.48613  -0.48590  -0.48331  -0.48309
 Alpha  occ. eigenvalues --   -0.48134  -0.47942  -0.47693  -0.47443  -0.47225
 Alpha  occ. eigenvalues --   -0.47221  -0.47012  -0.46873  -0.46790  -0.46743
 Alpha  occ. eigenvalues --   -0.46473  -0.46222  -0.46009  -0.45935  -0.45920
 Alpha  occ. eigenvalues --   -0.45760  -0.45663  -0.45357  -0.45286  -0.45047
 Alpha  occ. eigenvalues --   -0.44903  -0.44634  -0.44558  -0.44490  -0.44316
 Alpha  occ. eigenvalues --   -0.44130  -0.44021  -0.43859  -0.43803  -0.43626
 Alpha  occ. eigenvalues --   -0.43602  -0.43188  -0.42985  -0.42838  -0.42728
 Alpha  occ. eigenvalues --   -0.42703  -0.42656  -0.42288  -0.42109  -0.42040
 Alpha  occ. eigenvalues --   -0.41713  -0.41694  -0.41522  -0.41109  -0.40987
 Alpha  occ. eigenvalues --   -0.40886  -0.40774  -0.40750  -0.40548  -0.40165
 Alpha  occ. eigenvalues --   -0.40019  -0.39869  -0.39489  -0.39122  -0.39103
 Alpha  occ. eigenvalues --   -0.38754  -0.38281  -0.38071  -0.37879  -0.37798
 Alpha  occ. eigenvalues --   -0.37415  -0.37403  -0.36896  -0.36559  -0.36430
 Alpha  occ. eigenvalues --   -0.36405  -0.36095  -0.35142  -0.34846  -0.34424
 Alpha  occ. eigenvalues --   -0.34331  -0.34074  -0.32873  -0.31642  -0.31539
 Alpha  occ. eigenvalues --   -0.31377  -0.31113  -0.30952  -0.30683  -0.30376
 Alpha  occ. eigenvalues --   -0.30205  -0.29767  -0.29052  -0.24971  -0.24157
 Alpha  occ. eigenvalues --   -0.21698  -0.20764
 Alpha virt. eigenvalues --   -0.09556  -0.08413  -0.01927  -0.01304  -0.00060
 Alpha virt. eigenvalues --   -0.00031   0.00594   0.01799   0.02182   0.02341
 Alpha virt. eigenvalues --    0.02817   0.04549   0.04977   0.05229   0.05403

 Mulliken charges:
               1
     1  Mg   0.825754
     2  C    0.014929
     3  C   -0.064090
     4  C   -0.034100
     5  C   -0.085227
     6  N   -0.280168
     7  C   -0.033724
     8  C   -0.003298
     9  C   -0.057052
    10  C    0.024088
    11  C    0.073110
    12  C    0.009623
    13  C   -0.045397
    14  H    0.044595
    15  N   -0.376587
    16  C    0.139169
    17  C   -0.133935
    18  C   -0.051297
    19  C    0.178966
    20  C    0.140056
    21  C    0.018688
    22  O   -0.238750
    23  C    0.063179
    24  N   -0.229435
    25  C   -0.016352
    26  C   -0.028431
    27  C    0.002423
    28  C    0.020992
    29  C    0.047831
    30  C    0.001345
    31  C   -0.010173
    32  N   -0.376992
    33  C    0.118807
    34  C   -0.164088
    35  C    0.035759
    36  C    0.123893
    37  C    0.127104
    38  C    0.044580
    39  O   -0.184364
    40  C   -0.043148
    41  C    0.174904
    42  O   -0.212611
    43  O   -0.339372
    44  C    0.178557
    45  H   -0.011512
    46  H   -0.063578
    47  H   -0.026489
    48  H    0.025711
    49  H    0.012389
    50  H    0.017797
    51  H    0.012573
    52  H    0.020243
    53  H    0.032809
    54  H    0.016811
    55  H    0.030198
    56  H    0.016165
    57  H    0.036998
    58  H    0.022639
    59  H   -0.021588
    60  H    0.042205
    61  H    0.019894
    62  H    0.027728
    63  H    0.019241
    64  H    0.008142
    65  H    0.006289
    66  H    0.010280
    67  H    0.018338
    68  H    0.012622
    69  H    0.017232
    70  H    0.010735
    71  H    0.016221
    72  H    0.026515
    73  H    0.022316
    74  H    0.042571
    75  H    0.050593
    76  H    0.029752
    77  H    0.033950
    78  H    0.019737
    79  H    0.044718
    80  Mg   0.838917
    81  C   -0.085745
    82  C   -0.073216
    83  C   -0.080464
    84  C   -0.091741
    85  N   -0.300378
    86  C   -0.058321
    87  C   -0.033035
    88  C   -0.060029
    89  C    0.087856
    90  C    0.072295
    91  C    0.046877
    92  C   -0.051508
    93  H    0.010899
    94  N   -0.369162
    95  C    0.094529
    96  C   -0.130008
    97  C   -0.034161
    98  C    0.097029
    99  C    0.117776
   100  C   -0.018401
   101  O   -0.206465
   102  C    0.074201
   103  N   -0.329460
   104  C    0.078674
   105  C   -0.014117
   106  C   -0.051161
   107  C    0.040958
   108  C    0.083603
   109  C    0.023095
   110  C    0.033903
   111  N   -0.304531
   112  C    0.131403
   113  C   -0.210488
   114  C    0.055741
   115  C    0.126773
   116  C    0.140656
   117  C    0.068212
   118  O   -0.187300
   119  C    0.029235
   120  C    0.231190
   121  O   -0.228412
   122  O   -0.337438
   123  C    0.158758
   124  H   -0.037782
   125  H   -0.010940
   126  H   -0.028625
   127  H    0.019755
   128  H    0.008406
   129  H    0.005479
   130  H    0.020658
   131  H    0.020475
   132  H    0.007951
   133  H    0.014272
   134  H    0.041809
   135  H    0.032804
   136  H    0.024569
   137  H    0.006581
   138  H    0.018719
   139  H    0.028806
   140  H    0.031848
   141  H    0.041558
   142  H    0.004100
   143  H    0.004849
   144  H    0.017568
   145  H    0.023618
   146  H    0.013186
   147  H    0.005379
   148  H    0.010961
   149  H    0.005699
   150  H    0.020901
   151  H    0.021831
   152  H    0.000826
   153  H    0.035304
   154  H    0.044346
   155  H    0.029885
   156  H    0.045605
   157  H    0.055273
   158  H    0.027288
 Sum of Mulliken charges =  -0.00000

 Dipole moment (field-independent basis, Debye):
    X=             -7.3842    Y=              0.2608    Z=             -3.7950  Tot=              8.3064
 Quadrupole moment (field-independent basis, Debye-Ang):
   XX=           -540.5809   YY=           -510.6559   ZZ=           -499.8943
   XY=              8.4049   XZ=            138.9068   YZ=              5.5404

 Normal termination of Gaussian 16 at Wed Sep 15 00:49:18 2021.
