 Gaussian 16, Revision A.03,
 Gaussian 16:  ES64L-G16RevA.03 25-Dec-2016

 ----------------------------------------------------------
 #p cam-b3lyp/Def2SVP td=(nstates=5) density=(transition=1)
 ----------------------------------------------------------

 --------------------------------
 TDDFT excited states in gaussian
 --------------------------------
 Symbolic Z-matrix:
 Charge =  0 Multiplicity = 1

                         Standard orientation:
 ---------------------------------------------------------------------
 Center     Atomic      Atomic             Coordinates (Angstroms)
 Number     Number       Type             X           Y           Z
 ---------------------------------------------------------------------
      1         12           0      -20.448317   -0.496679   -0.316059
      2          6           0      -18.467690    2.383759   -0.075982
      3          6           0      -22.942912    1.191330    1.545018
      4          6           0      -22.245075   -3.376566   -0.230051
      5          6           0      -17.681697   -2.221560   -1.452556
      6          7           0      -20.695050    1.569949    0.445574
      7          6           0      -19.783446    2.610211    0.243506
      8          6           0      -20.504738    3.982904    0.496721
      9          6           0      -21.852537    3.547472    1.083382
     10          6           0      -21.824011    1.979183    1.073175
     11          6           0      -22.025707    4.111969    2.519206
     12          6           0      -20.556785    4.754424   -0.816308
     13          6           0      -20.588716    6.272668   -0.752234
     14          1           0      -20.884932    6.941216    0.609270
     15          7           0      -22.332485   -1.063137    0.510064
     16          6           0      -23.185141   -0.232830    1.262152
     17          6           0      -24.358402   -0.968338    1.700202
     18          6           0      -24.257037   -2.308396    1.154673
     19          6           0      -22.898746   -2.297363    0.459733
     20          6           0      -25.554136   -0.337179    2.424840
     21          6           0      -25.214737   -3.482600    1.220200
     22          8           0      -24.937537   -4.537421    0.665030
     23          6           0      -26.568619   -3.263419    1.777626
     24          7           0      -20.006574   -2.511759   -0.855005
     25          6           0      -20.952423   -3.490884   -0.809242
     26          6           0      -20.406995   -4.777181   -1.483021
     27          6           0      -18.946258   -4.400272   -1.945773
     28          6           0      -18.866273   -2.916214   -1.503476
     29          6           0      -20.463806   -5.961299   -0.501310
     30          6           0      -18.696053   -4.508291   -3.473465
     31          6           0      -17.935811   -5.797987   -3.766773
     32          7           0      -18.411471   -0.125888   -0.618415
     33          6           0      -17.372793   -0.903230   -1.009398
     34          6           0      -16.133051   -0.110096   -0.825703
     35          6           0      -16.501794    1.179109   -0.574843
     36          6           0      -17.908638    1.100565   -0.412907
     37          6           0      -14.763135   -0.700367   -1.114919
     38          6           0      -16.058009    2.567920   -0.395392
     39          8           0      -14.921225    3.024514   -0.404577
     40          6           0      -17.325414    3.366977   -0.160940
     41          6           0      -17.070513    4.161385    1.051110
     42          8           0      -17.088433    3.829665    2.244164
     43          8           0      -16.705767    5.428654    0.644857
     44          6           0      -16.340100    6.365286    1.685115
     45          1           0      -23.720021    1.769965    2.048296
     46          1           0      -22.930147   -4.226699   -0.251778
     47          1           0      -16.838717   -2.857198   -1.731758
     48          1           0      -19.836878    4.419421    1.240348
     49          1           0      -22.611451    4.073905    0.504655
     50          1           0      -22.000178    3.365053    3.312839
     51          1           0      -23.070280    4.411396    2.599878
     52          1           0      -21.272207    4.861238    2.761195
     53          1           0      -21.413718    4.329697   -1.340043
     54          1           0      -19.719005    4.443340   -1.439257
     55          1           0      -21.291499    6.636552   -1.500538
     56          1           0      -19.585197    6.517539   -1.101983
     57          1           0      -25.389773    0.695452    2.733256
     58          1           0      -25.789012   -0.911690    3.321866
     59          1           0      -26.438089   -0.451454    1.798521
     60          1           0      -27.103865   -2.572404    1.125911
     61          1           0      -26.522807   -3.039576    2.843383
     62          1           0      -27.179009   -4.164974    1.724522
     63          1           0      -21.077668   -5.025362   -2.305323
     64          1           0      -18.287480   -5.002657   -1.318913
     65          1           0      -19.522826   -6.470946   -0.296182
     66          1           0      -21.088975   -6.636344   -1.085365
     67          1           0      -20.809805   -5.705158    0.499684
     68          1           0      -17.949432   -3.777780   -3.785442
     69          1           0      -19.606580   -4.472127   -4.071875
     70          1           0      -18.483308   -6.232787   -4.602872
     71          1           0      -18.038257   -6.563260   -2.997763
     72          1           0      -16.882540   -5.674146   -4.020078
     73          1           0      -14.738030   -1.783734   -1.235174
     74          1           0      -14.025915   -0.440214   -0.356350
     75          1           0      -14.460728   -0.381560   -2.113046
     76          1           0      -17.486472    3.994704   -1.036762
     77          1           0      -15.598092    5.879146    2.319030
     78          1           0      -17.179754    6.674252    2.308094
     79          1           0      -15.692686    7.086528    1.187506
     80         12           0       20.026948   -0.749271    0.409711
     81          6           0       19.906572    2.420206   -1.336227
     82          6           0       21.421100    0.876535    2.828487
     83          6           0       20.294180   -3.765099    1.711984
     84          6           0       19.218571   -2.477122   -2.683944
     85          7           0       20.483504    1.479136    0.731492
     86          6           0       20.379988    2.599038   -0.067228
     87          6           0       20.915502    3.790485    0.641681
     88          6           0       21.819784    3.180601    1.743471
     89          6           0       21.256148    1.740140    1.763063
     90          6           0       23.326117    3.177070    1.402528
     91          6           0       19.745582    4.571801    1.313814
     92          6           0       19.774638    6.142639    1.168114
     93          1           0       18.451748    6.981038    1.380420
     94          7           0       20.760954   -1.344654    2.163777
     95          6           0       21.197117   -0.539921    3.095901
     96          6           0       21.490300   -1.331243    4.275958
     97          6           0       21.033980   -2.629850    3.948733
     98          6           0       20.698219   -2.614105    2.550781
     99          6           0       21.995412   -0.666440    5.569367
    100          6           0       20.980502   -3.814910    4.872194
    101          8           0       20.602577   -4.874246    4.469276
    102          6           0       21.306572   -3.627829    6.318072
    103          7           0       20.044955   -2.883232   -0.528696
    104          6           0       20.029824   -3.879000    0.354962
    105          6           0       19.583237   -5.156181   -0.251231
    106          6           0       19.432822   -4.729823   -1.745888
    107          6           0       19.575332   -3.231240   -1.705093
    108          6           0       20.450529   -6.439222    0.013072
    109          6           0       18.065074   -5.238099   -2.348232
    110          6           0       18.057718   -6.432598   -3.342494
    111          7           0       19.650165   -0.257331   -1.530192
    112          6           0       19.262908   -1.000604   -2.667569
    113          6           0       19.008079   -0.078151   -3.793268
    114          6           0       19.228548    1.199282   -3.295881
    115          6           0       19.648131    1.078903   -1.981896
    116          6           0       18.719998   -0.508653   -5.251953
    117          6           0       19.195142    2.639374   -3.708176
    118          8           0       18.880820    3.212828   -4.724304
    119          6           0       19.807468    3.491558   -2.486874
    120          6           0       19.049164    4.660074   -2.228114
    121          8           0       18.127655    4.676121   -1.400102
    122          8           0       19.358631    5.788155   -2.981549
    123          6           0       18.733375    7.096336   -2.616609
    124          1           0       21.856240    1.307842    3.731724
    125          1           0       20.320786   -4.759562    2.162091
    126          1           0       18.965403   -2.980192   -3.618441
    127          1           0       21.570248    4.354623   -0.023029
    128          1           0       21.767929    3.645515    2.727792
    129          1           0       23.885189    3.757874    2.136756
    130          1           0       23.427544    3.625711    0.414767
    131          1           0       23.773232    2.185478    1.326879
    132          1           0       19.821661    4.324023    2.372707
    133          1           0       18.830375    4.131528    0.918534
    134          1           0       20.199018    6.373648    0.191435
    135          1           0       20.493404    6.428710    1.936916
    136          1           0       21.228743   -0.781659    6.336654
    137          1           0       22.302084    0.375357    5.482564
    138          1           0       22.816792   -1.244699    5.991543
    139          1           0       20.619388   -2.943778    6.815330
    140          1           0       22.255656   -3.144319    6.549233
    141          1           0       21.185179   -4.582998    6.829581
    142          1           0       18.588502   -5.373328    0.137955
    143          1           0       20.302902   -5.072381   -2.306411
    144          1           0       21.213480   -6.146663    0.733722
    145          1           0       20.855518   -6.958155   -0.856433
    146          1           0       19.807385   -7.201892    0.452488
    147          1           0       17.599510   -4.422283   -2.901891
    148          1           0       17.392341   -5.289768   -1.492167
    149          1           0       17.272098   -7.136696   -3.068850
    150          1           0       19.035568   -6.914451   -3.338180
    151          1           0       17.835351   -6.089634   -4.353667
    152          1           0       18.168177   -1.447559   -5.216431
    153          1           0       19.662302   -0.748920   -5.744881
    154          1           0       18.158028    0.248083   -5.799839
    155          1           0       20.823652    3.777340   -2.756937
    156          1           0       19.039556    7.412704   -1.618479
    157          1           0       17.672591    7.115580   -2.863649
    158          1           0       19.253805    7.857949   -3.197159
 ---------------------------------------------------------------------

 SCF Done:  E(RCAM-B3LYP) =  -4069.77710551     A.U. after   19 cycles

 Excitation energies and oscillator strengths:

 Excited State   1:      Singlet-A      1.6781 eV  738.84 nm  f=0.3957  <S**2>=0.000
     309 -> 315        0.17298
     312 -> 314        0.68710
     309 <- 315        0.10455
 This state for optimization and/or second-order correction.
 Total Energy, E(TD-HF/TD-DFT) =  -4069.71543648
 Copying the excited state density for this state as the 1-particle RhoCI density.

 Excited State   2:      Singlet-A      1.7381 eV  713.32 nm  f=0.3802  <S**2>=0.000
     310 -> 316       -0.16387
     311 -> 313        0.68892
     310 <- 316       -0.10278

 Excited State   3:      Singlet-A      2.1720 eV  570.83 nm  f=0.2232  <S**2>=0.000
     310 -> 313        0.67443
     311 -> 316        0.20199

 Excited State   4:      Singlet-A      2.1968 eV  564.39 nm  f=0.1230  <S**2>=0.000
     309 -> 314        0.64514
     312 -> 315       -0.27386

 Excited State   5:      Singlet-A      2.9965 eV  413.76 nm  f=0.0000  <S**2>=0.000
     312 -> 313        0.70710

 The electronic state is 1-A.
 Alpha  occ. eigenvalues --  -46.89419 -46.89092 -19.24428 -19.23948 -19.19766
 Alpha  occ. eigenvalues --  -19.19619 -19.19270 -19.19237 -19.19182 -19.18506
 Alpha  occ. eigenvalues --  -14.42164 -14.41739 -14.41715 -14.40150 -14.40095
 Alpha  occ. eigenvalues --  -14.39801 -14.39751 -14.39176 -10.39334 -10.38494
 Alpha  occ. eigenvalues --  -10.35934 -10.35457 -10.35376 -10.35110 -10.31967
 Alpha  occ. eigenvalues --  -10.31595 -10.31180 -10.31130 -10.31117 -10.31001
 Alpha  occ. eigenvalues --  -10.30966 -10.30941 -10.30625 -10.30575 -10.30059
 Alpha  occ. eigenvalues --  -10.30017 -10.30002 -10.29817 -10.29513 -10.29350
 Alpha  occ. eigenvalues --  -10.29321 -10.29294 -10.29030 -10.28921 -10.28689
 Alpha  occ. eigenvalues --  -10.28568 -10.28377 -10.28223 -10.28166 -10.28145
 Alpha  occ. eigenvalues --  -10.28086 -10.28021 -10.27981 -10.27885 -10.27751
 Alpha  occ. eigenvalues --  -10.27745 -10.27644 -10.27591 -10.27571 -10.27538
 Alpha  occ. eigenvalues --  -10.27373 -10.27242 -10.27141 -10.27119 -10.26783
 Alpha  occ. eigenvalues --  -10.26769 -10.26502 -10.26502 -10.26473 -10.26334
 Alpha  occ. eigenvalues --  -10.26272 -10.26265 -10.26260 -10.26203 -10.26025
 Alpha  occ. eigenvalues --  -10.25899 -10.25706 -10.25688 -10.25511 -10.25504
 Alpha  occ. eigenvalues --  -10.25478 -10.25420 -10.25237 -10.25080 -10.24981
 Alpha  occ. eigenvalues --  -10.24748  -3.17942  -3.17490  -1.92829  -1.92405
 Alpha  occ. eigenvalues --   -1.92403  -1.92241  -1.91904  -1.91822  -1.15766
 Alpha  occ. eigenvalues --   -1.14161  -1.12146  -1.10827  -1.10435  -1.09982
 Alpha  occ. eigenvalues --   -1.06838  -1.06387  -1.05632  -1.04934  -1.04861
 Alpha  occ. eigenvalues --   -1.04296  -1.02763  -1.02613  -1.01602  -1.00963
 Alpha  occ. eigenvalues --   -0.93343  -0.91234  -0.89243  -0.89236  -0.88847
 Alpha  occ. eigenvalues --   -0.88756  -0.87970  -0.87941  -0.87776  -0.87615
 Alpha  occ. eigenvalues --   -0.87083  -0.86829  -0.85572  -0.85172  -0.84321
 Alpha  occ. eigenvalues --   -0.84284  -0.83857  -0.83034  -0.82702  -0.82360
 Alpha  occ. eigenvalues --   -0.82118  -0.81994  -0.80933  -0.80869  -0.80381
 Alpha  occ. eigenvalues --   -0.79995  -0.78747  -0.78073  -0.77235  -0.77101
 Alpha  occ. eigenvalues --   -0.76788  -0.76677  -0.76199  -0.75932  -0.75384
 Alpha  occ. eigenvalues --   -0.74511  -0.72753  -0.72510  -0.71079  -0.70982
 Alpha  occ. eigenvalues --   -0.69194  -0.69036  -0.68760  -0.68464  -0.67913
 Alpha  occ. eigenvalues --   -0.67899  -0.67315  -0.67047  -0.66088  -0.65600
 Alpha  occ. eigenvalues --   -0.65399  -0.64951  -0.64892  -0.64608  -0.64200
 Alpha  occ. eigenvalues --   -0.63871  -0.62101  -0.61415  -0.61019  -0.60099
 Alpha  occ. eigenvalues --   -0.60083  -0.59621  -0.59067  -0.59040  -0.58768
 Alpha  occ. eigenvalues --   -0.58326  -0.58030  -0.57613  -0.57546  -0.57157
 Alpha  occ. eigenvalues --   -0.56528  -0.55861  -0.55741  -0.55721  -0.55484
 Alpha  occ. eigenvalues --   -0.55062  -0.54748  -0.53986  -0.53851  -0.53607
 Alpha  occ. eigenvalues --   -0.53575  -0.53390  -0.53368  -0.53292  -0.53012
 Alpha  occ. eigenvalues --   -0.52883  -0.52793  -0.52616  -0.52406  -0.51960
 Alpha  occ. eigenvalues --   -0.51863  -0.51827  -0.51696  -0.51350  -0.51291
 Alpha  occ. eigenvalues --   -0.50746  -0.50526  -0.50308  -0.50216  -0.50064
 Alpha  occ. eigenvalues --   -0.49832  -0.49804  -0.49680  -0.49592  -0.49536
 Alpha  occ. eigenvalues --   -0.49280  -0.49252  -0.49226  -0.48998  -0.48812
 Alpha  occ. eigenvalues --   -0.48717  -0.48621  -0.48285  -0.48139  -0.47917
 Alpha  occ. eigenvalues --   -0.47835  -0.47753  -0.47532  -0.47418  -0.47373
 Alpha  occ. eigenvalues --   -0.47106  -0.46706  -0.46408  -0.46372  -0.46210
 Alpha  occ. eigenvalues --   -0.46007  -0.45861  -0.45762  -0.45507  -0.45379
 Alpha  occ. eigenvalues --   -0.45207  -0.44963  -0.44897  -0.44756  -0.44709
 Alpha  occ. eigenvalues --   -0.44528  -0.44442  -0.44424  -0.44365  -0.44192
 Alpha  occ. eigenvalues --   -0.43993  -0.43568  -0.43416  -0.43375  -0.43310
 Alpha  occ. eigenvalues --   -0.43152  -0.43012  -0.42968  -0.42777  -0.42725
 Alpha  occ. eigenvalues --   -0.42642  -0.42595  -0.42336  -0.42193  -0.41853
 Alpha  occ. eigenvalues --   -0.41852  -0.41504  -0.41277  -0.41218  -0.41042
 Alpha  occ. eigenvalues --   -0.41019  -0.40608  -0.40410  -0.40343  -0.40171
 Alpha  occ. eigenvalues --   -0.39950  -0.39870  -0.39829  -0.38903  -0.38440
 Alpha  occ. eigenvalues --   -0.38302  -0.37998  -0.37935  -0.37732  -0.37640
 Alpha  occ. eigenvalues --   -0.37013  -0.36498  -0.36422  -0.36282  -0.36036
 Alpha  occ. eigenvalues --   -0.35821  -0.35704  -0.34337  -0.34062  -0.33571
 Alpha  occ. eigenvalues --   -0.33029  -0.32593  -0.32583  -0.31822  -0.31553
 Alpha  occ. eigenvalues --   -0.31503  -0.31431  -0.31250  -0.31075  -0.30719
 Alpha  occ. eigenvalues --   -0.30250  -0.29959  -0.29656  -0.23778  -0.23511
 Alpha  occ. eigenvalues --   -0.21599  -0.20911
 Alpha virt. eigenvalues --   -0.09047  -0.08644  -0.01439  -0.00328   0.00210
 Alpha virt. eigenvalues --    0.00962   0.01848   0.02346   0.02535   0.02685
 Alpha virt. eigenvalues --    0.04558   0.05161   0.05181   0.05230   0.05896

 Mulliken charges:
               1
     1  Mg  12.000425
     2  C    5.970750
     3  C    6.012666
     4  C    6.029663
     5  C    5.988381
     6  N    6.985137
     7  C    6.038195
     8  C    5.994155
     9  C    6.012778
    10  C    5.967255
    11  C    6.002241
    12  C    5.995291
    13  C    5.999975
    14  H    1.007228
    15  N    7.009413
    16  C    5.954242
    17  C    5.982530
    18  C    5.980138
    19  C    5.963673
    20  C    6.003996
    21  C    5.985830
    22  O    7.969093
    23  C    6.008497
    24  N    7.007264
    25  C    5.962177
    26  C    6.008696
    27  C    5.987447
    28  C    6.029701
    29  C    6.002692
    30  C    5.995148
    31  C    5.998003
    32  N    6.995698
    33  C    6.041438
    34  C    6.029622
    35  C    6.002357
    36  C    6.040587
    37  C    5.995196
    38  C    6.018012
    39  O    8.027997
    40  C    6.001111
    41  C    6.003436
    42  O    8.007729
    43  O    8.000574
    44  C    5.998285
    45  H    0.986539
    46  H    0.998640
    47  H    1.011867
    48  H    0.997255
    49  H    0.992671
    50  H    1.001173
    51  H    1.000698
    52  H    0.985872
    53  H    1.010314
    54  H    0.991853
    55  H    1.003487
    56  H    0.995488
    57  H    0.981974
    58  H    0.981165
    59  H    0.981586
    60  H    0.992311
    61  H    0.992069
    62  H    0.983969
    63  H    1.001169
    64  H    1.004106
    65  H    0.990378
    66  H    0.999633
    67  H    1.005130
    68  H    0.994866
    69  H    1.010328
    70  H    1.005928
    71  H    1.005940
    72  H    0.998572
    73  H    1.019726
    74  H    1.020014
    75  H    1.022431
    76  H    1.007505
    77  H    1.000639
    78  H    1.007139
    79  H    1.002843
    80  Mg  11.999921
    81  C    6.000203
    82  C    5.999930
    83  C    5.999818
    84  C    6.000031
    85  N    7.000134
    86  C    5.999742
    87  C    6.000039
    88  C    5.999950
    89  C    6.000174
    90  C    5.999934
    91  C    6.000029
    92  C    6.000040
    93  H    0.999880
    94  N    6.999896
    95  C    6.000313
    96  C    6.000196
    97  C    6.000074
    98  C    6.000317
    99  C    5.999924
   100  C    6.000128
   101  O    8.000189
   102  C    5.999936
   103  N    6.999973
   104  C    6.000253
   105  C    5.999890
   106  C    6.000074
   107  C    5.999884
   108  C    5.999993
   109  C    6.000045
   110  C    6.000006
   111  N    6.999971
   112  C    5.999688
   113  C    5.999715
   114  C    6.000003
   115  C    5.999702
   116  C    6.000047
   117  C    5.999815
   118  O    7.999774
   119  C    5.999993
   120  C    5.999938
   121  O    7.999886
   122  O    8.000026
   123  C    6.000019
   124  H    1.000143
   125  H    1.000074
   126  H    0.999900
   127  H    1.000044
   128  H    1.000036
   129  H    1.000086
   130  H    1.000141
   131  H    1.000027
   132  H    0.999887
   133  H    0.999966
   134  H    1.000054
   135  H    1.000013
   136  H    1.000150
   137  H    1.000179
   138  H    1.000229
   139  H    1.000032
   140  H    1.000103
   141  H    1.000155
   142  H    0.999969
   143  H    1.000036
   144  H    1.000011
   145  H    1.000113
   146  H    1.000007
   147  H    0.999989
   148  H    0.999868
   149  H    0.999916
   150  H    1.000043
   151  H    1.000001
   152  H    0.999793
   153  H    0.999874
   154  H    0.999792
   155  H    0.999991
   156  H    0.999983
   157  H    0.999888
   158  H    1.000014
 Sum of Mulliken charges = 624.00000

 Dipole moment (field-independent basis, Debye):
    X=             10.4918    Y=              2.1597    Z=             -3.1002  Tot=             11.1514
 Quadrupole moment (field-independent basis, Debye-Ang):
   XX=           -423.9377   YY=             -0.2260   ZZ=             -1.1580
   XY=            -51.2471   XZ=             70.4433   YZ=              3.5394

 Normal termination of Gaussian 16 at Wed Sep 22 21:47:01 2021.
