 Gaussian 16, Revision A.03,
 Gaussian 16:  ES64L-G16RevA.03 25-Dec-2016

 -----------------------------------
 #p cam-b3lyp/Def2SVP td=(nstates=5)
 -----------------------------------

 --------------------------------
 TDDFT excited states in gaussian
 --------------------------------
 Symbolic Z-matrix:
 Charge =  0 Multiplicity = 1

                         Standard orientation:
 ---------------------------------------------------------------------
 Center     Atomic      Atomic             Coordinates (Angstroms)
 Number     Number       Type             X           Y           Z
 ---------------------------------------------------------------------
      1         12           0       -9.373803   -0.309058    0.907909
      2          6           0       -8.510701   -1.615110   -2.277643
      3          6           0       -6.407687   -1.693655    2.112969
      4          6           0       -9.601391    1.839300    3.391637
      5          6           0      -12.221881    1.268672   -0.766363
      6          7           0       -7.499295   -1.338029   -0.098695
      7          6           0       -7.546376   -1.966213   -1.299646
      8          6           0       -6.379083   -2.930848   -1.408106
      9          6           0       -6.122198   -3.366115    0.034729
     10          6           0       -6.660908   -2.024062    0.750052
     11          6           0       -6.881931   -4.577473    0.578567
     12          6           0       -5.176737   -2.228983   -2.177903
     13          6           0       -4.567168   -3.112623   -3.194040
     14          1           0       -3.030553   -3.111295   -3.311427
     15          7           0       -8.137929    0.098730    2.565832
     16          6           0       -6.990599   -0.651596    2.924492
     17          6           0       -6.529463   -0.113669    4.179545
     18          6           0       -7.452149    0.853092    4.660020
     19          6           0       -8.452923    1.010071    3.545265
     20          6           0       -5.251378   -0.636883    4.827370
     21          6           0       -7.333510    1.627783    5.912751
     22          8           0       -6.365752    1.432710    6.637679
     23          6           0       -8.232751    2.723884    6.382297
     24          7           0      -10.738148    1.441477    1.187299
     25          6           0      -10.680475    1.975843    2.423378
     26          6           0      -11.861012    2.935973    2.656456
     27          6           0      -12.827656    2.658280    1.372453
     28          6           0      -11.927070    1.704488    0.545562
     29          6           0      -12.534253    2.821282    4.097692
     30          6           0      -13.309739    3.929519    0.605879
     31          6           0      -12.536583    4.333269   -0.695686
     32          7           0      -10.202087   -0.179006   -1.014819
     33          6           0      -11.386819    0.442072   -1.503217
     34          6           0      -11.644047   -0.054911   -2.924701
     35          6           0      -10.509918   -0.797065   -3.213130
     36          6           0       -9.691998   -0.852415   -2.028191
     37          6           0      -12.791450    0.190995   -3.923310
     38          6           0       -9.881335   -1.600696   -4.212959
     39          8           0      -10.278516   -1.942816   -5.327990
     40          6           0       -8.556946   -1.975492   -3.650140
     41          6           0       -7.572904   -1.118792   -4.479188
     42          8           0       -7.320462    0.075385   -4.333638
     43          8           0       -7.055616   -1.952999   -5.508842
     44          6           0       -6.221020   -1.371822   -6.480451
     45          1           0       -5.545270   -2.177062    2.576944
     46          1           0       -9.684434    2.382959    4.334804
     47          1           0      -13.121737    1.567840   -1.306579
     48          1           0       -6.631057   -3.856354   -1.925625
     49          1           0       -5.112934   -3.604079    0.368710
     50          1           0       -7.290142   -5.225159   -0.196763
     51          1           0       -7.560425   -4.297483    1.384763
     52          1           0       -6.083671   -5.157239    1.043435
     53          1           0       -4.395505   -1.990179   -1.456191
     54          1           0       -5.408503   -1.233923   -2.557844
     55          1           0       -5.049300   -2.760892   -4.105442
     56          1           0       -4.870566   -4.137437   -2.980544
     57          1           0       -5.443271   -1.286553    5.681084
     58          1           0       -4.611740    0.210480    5.069862
     59          1           0       -4.687027   -1.240206    4.116160
     60          1           0       -9.198744    2.285870    6.634698
     61          1           0       -8.388095    3.545342    5.681814
     62          1           0       -7.945184    3.082915    7.369733
     63          1           0      -11.406026    3.916445    2.517491
     64          1           0      -13.666296    2.043958    1.698419
     65          1           0      -11.834041    2.413206    4.826449
     66          1           0      -13.510282    2.343569    4.190790
     67          1           0      -12.864780    3.844770    4.281481
     68          1           0      -13.352802    4.809662    1.246922
     69          1           0      -14.318292    3.644163    0.307703
     70          1           0      -12.691236    5.406534   -0.582405
     71          1           0      -12.940587    4.009099   -1.654995
     72          1           0      -11.488995    4.068577   -0.550707
     73          1           0      -13.257156   -0.747396   -4.222348
     74          1           0      -12.164147    0.481705   -4.765433
     75          1           0      -13.395897    1.009664   -3.533372
     76          1           0       -8.362746   -3.029405   -3.849597
     77          1           0       -5.868322   -2.061340   -7.248447
     78          1           0       -5.348161   -0.975515   -5.963181
     79          1           0       -6.826749   -0.588450   -6.936876
     80         12           0        9.046295    0.727232   -0.030915
     81          6           0        8.173024   -2.454570    0.796510
     82          6           0        5.764165    1.527125   -0.682592
     83          6           0       10.084781    3.800928   -0.997719
     84          6           0       12.431265   -0.266407    0.184537
     85          7           0        7.198038   -0.422109   -0.161842
     86          6           0        7.063907   -1.584163    0.531474
     87          6           0        5.644899   -1.952176    0.804423
     88          6           0        4.902707   -0.725397    0.059313
     89          6           0        6.012327    0.208729   -0.296628
     90          6           0        4.084688   -1.190704   -1.229238
     91          6           0        5.401582   -1.933241    2.385334
     92          6           0        4.232395   -2.759823    2.925124
     93          1           0        3.099747   -3.349726    2.048411
     94          7           0        8.097892    2.485269   -0.650783
     95          6           0        6.716459    2.593175   -0.879881
     96          6           0        6.469273    3.939306   -1.341975
     97          6           0        7.704286    4.615828   -1.408467
     98          6           0        8.674028    3.626783   -0.958345
     99          6           0        5.031574    4.439605   -1.614988
    100          6           0        7.982902    6.110888   -1.959638
    101          8           0        9.080921    6.670532   -1.847308
    102          6           0        6.934434    6.984938   -2.627834
    103          7           0       11.040850    1.651255   -0.291529
    104          6           0       11.150047    2.925093   -0.738743
    105          6           0       12.590157    3.260108   -1.123428
    106          6           0       13.411099    2.034249   -0.416459
    107          6           0       12.260062    1.089341   -0.037142
    108          6           0       12.861075    3.523505   -2.675151
    109          6           0       14.164866    2.377946    0.966752
    110          6           0       15.615748    1.975078    1.155936
    111          7           0       10.168862   -0.968621    0.445286
    112          6           0       11.484780   -1.242050    0.482890
    113          6           0       11.698594   -2.635622    0.984741
    114          6           0       10.373964   -3.100200    1.163601
    115          6           0        9.515498   -2.075550    0.695537
    116          6           0       12.948209   -3.383548    1.289078
    117          6           0        9.677973   -4.255277    1.591665
    118          8           0       10.110112   -5.350977    2.004790
    119          6           0        8.211303   -3.894368    1.369996
    120          6           0        7.638211   -4.829289    0.428897
    121          8           0        7.974605   -5.129138   -0.673850
    122          8           0        6.462250   -5.292609    1.011392
    123          6           0        5.533684   -6.253428    0.301485
    124          1           0        4.744238    1.916174   -0.690136
    125          1           0       10.414975    4.760430   -1.402036
    126          1           0       13.429663   -0.695995    0.085012
    127          1           0        5.222934   -2.896046    0.459802
    128          1           0        4.203506   -0.221346    0.726484
    129          1           0        3.150866   -0.661222   -1.416831
    130          1           0        3.972544   -2.274592   -1.207435
    131          1           0        4.718979   -0.969884   -2.088351
    132          1           0        5.266083   -0.917276    2.756731
    133          1           0        6.327696   -2.312773    2.817785
    134          1           0        3.773541   -2.143478    3.699254
    135          1           0        4.635323   -3.605526    3.481082
    136          1           0        4.251992    3.715773   -1.377824
    137          1           0        4.997598    4.725710   -2.665699
    138          1           0        4.895069    5.349703   -1.030419
    139          1           0        6.241601    7.237251   -1.825928
    140          1           0        6.261250    6.414622   -3.268196
    141          1           0        7.410614    7.751239   -3.239160
    142          1           0       12.868861    4.171281   -0.592754
    143          1           0       14.146693    1.611690   -1.101170
    144          1           0       13.608889    2.834905   -3.069184
    145          1           0       13.176275    4.554755   -2.829985
    146          1           0       11.964241    3.321405   -3.261252
    147          1           0       13.600221    2.032589    1.832657
    148          1           0       14.112041    3.460868    1.074834
    149          1           0       15.648726    1.354964    2.051067
    150          1           0       16.288702    2.828804    1.230873
    151          1           0       15.925119    1.324179    0.336985
    152          1           0       13.865951   -2.804276    1.188963
    153          1           0       13.058650   -4.242047    0.626087
    154          1           0       12.887815   -3.746749    2.314816
    155          1           0        7.634394   -3.927775    2.294664
    156          1           0        5.897568   -6.458758   -0.705489
    157          1           0        4.551823   -5.792910    0.184173
    158          1           0        5.521520   -7.151793    0.918593
 ---------------------------------------------------------------------

 SCF Done:  E(RCAM-B3LYP) =  -4069.76271736     A.U. after   19 cycles

 Excitation energies and oscillator strengths:

 Excited State   1:      Singlet-A      1.6842 eV  736.16 nm  f=0.3550  <S**2>=0.000
     309 -> 315       -0.19725
     311 -> 313        0.68023
     309 <- 315       -0.11216
 This state for optimization and/or second-order correction.
 Total Energy, E(TD-HF/TD-DFT) =  -4069.70082415
 Copying the excited state density for this state as the 1-particle RhoCI density.

 Excited State   2:      Singlet-A      1.7386 eV  713.12 nm  f=0.3945  <S**2>=0.000
     310 -> 316        0.19175
     312 -> 314        0.68294
     310 <- 316        0.10977

 Excited State   3:      Singlet-A      2.1918 eV  565.67 nm  f=0.0576  <S**2>=0.000
     309 -> 313        0.61426
     311 -> 315        0.33932

 Excited State   4:      Singlet-A      2.2287 eV  556.32 nm  f=0.1040  <S**2>=0.000
     310 -> 314        0.63870
     312 -> 316       -0.29479

 Excited State   5:      Singlet-A      2.8431 eV  436.09 nm  f=0.0000  <S**2>=0.000
     312 -> 313        0.70692

 The electronic state is 1-A.
 Alpha  occ. eigenvalues --  -46.91480 -46.89322 -19.24897 -19.23647 -19.21593
 Alpha  occ. eigenvalues --  -19.19547 -19.19106 -19.19084 -19.18714 -19.17750
 Alpha  occ. eigenvalues --  -14.42582 -14.42401 -14.42128 -14.41594 -14.40420
 Alpha  occ. eigenvalues --  -14.39941 -14.39470 -14.39316 -10.40781 -10.38607
 Alpha  occ. eigenvalues --  -10.36141 -10.34734 -10.34409 -10.34302 -10.32000
 Alpha  occ. eigenvalues --  -10.31885 -10.31667 -10.31604 -10.31588 -10.31497
 Alpha  occ. eigenvalues --  -10.31238 -10.31153 -10.31006 -10.30599 -10.30566
 Alpha  occ. eigenvalues --  -10.30260 -10.30142 -10.29914 -10.29791 -10.29669
 Alpha  occ. eigenvalues --  -10.29648 -10.29568 -10.28951 -10.28937 -10.28777
 Alpha  occ. eigenvalues --  -10.28696 -10.28677 -10.28615 -10.28581 -10.28446
 Alpha  occ. eigenvalues --  -10.28327 -10.28225 -10.28180 -10.28114 -10.28103
 Alpha  occ. eigenvalues --  -10.28088 -10.27898 -10.27894 -10.27839 -10.27780
 Alpha  occ. eigenvalues --  -10.27743 -10.27743 -10.27536 -10.27432 -10.27384
 Alpha  occ. eigenvalues --  -10.27318 -10.27285 -10.27277 -10.27274 -10.27255
 Alpha  occ. eigenvalues --  -10.26926 -10.26562 -10.26548 -10.26472 -10.26360
 Alpha  occ. eigenvalues --  -10.26146 -10.26094 -10.26047 -10.26001 -10.25936
 Alpha  occ. eigenvalues --  -10.25819 -10.25816 -10.25478 -10.25301 -10.25153
 Alpha  occ. eigenvalues --  -10.24674  -3.19679  -3.17729  -1.94521  -1.94187
 Alpha  occ. eigenvalues --   -1.93935  -1.92649  -1.92167  -1.92041  -1.16008
 Alpha  occ. eigenvalues --   -1.15591  -1.09772  -1.09535  -1.09426  -1.08840
 Alpha  occ. eigenvalues --   -1.08262  -1.07163  -1.05487  -1.04382  -1.04382
 Alpha  occ. eigenvalues --   -1.03629  -1.03498  -1.03016  -1.02553  -1.01455
 Alpha  occ. eigenvalues --   -0.94559  -0.93425  -0.89381  -0.88890  -0.88531
 Alpha  occ. eigenvalues --   -0.88187  -0.87965  -0.87442  -0.87441  -0.87028
 Alpha  occ. eigenvalues --   -0.86988  -0.86831  -0.86139  -0.85761  -0.84971
 Alpha  occ. eigenvalues --   -0.84256  -0.83829  -0.83403  -0.82885  -0.82298
 Alpha  occ. eigenvalues --   -0.81813  -0.81522  -0.81115  -0.81032  -0.80451
 Alpha  occ. eigenvalues --   -0.80226  -0.78330  -0.78209  -0.77447  -0.77390
 Alpha  occ. eigenvalues --   -0.77071  -0.77062  -0.76183  -0.76142  -0.75376
 Alpha  occ. eigenvalues --   -0.75113  -0.72921  -0.72516  -0.72018  -0.71911
 Alpha  occ. eigenvalues --   -0.70075  -0.69187  -0.68894  -0.68567  -0.68154
 Alpha  occ. eigenvalues --   -0.67529  -0.67060  -0.65904  -0.65533  -0.65267
 Alpha  occ. eigenvalues --   -0.65136  -0.65130  -0.64890  -0.64722  -0.64440
 Alpha  occ. eigenvalues --   -0.64173  -0.62392  -0.61768  -0.60369  -0.60119
 Alpha  occ. eigenvalues --   -0.59944  -0.59849  -0.59455  -0.59109  -0.59082
 Alpha  occ. eigenvalues --   -0.58725  -0.58438  -0.58414  -0.57681  -0.57209
 Alpha  occ. eigenvalues --   -0.56377  -0.56133  -0.55945  -0.55815  -0.55418
 Alpha  occ. eigenvalues --   -0.55233  -0.55120  -0.54737  -0.54188  -0.53864
 Alpha  occ. eigenvalues --   -0.53692  -0.53551  -0.53221  -0.52965  -0.52909
 Alpha  occ. eigenvalues --   -0.52827  -0.52691  -0.52367  -0.52136  -0.52115
 Alpha  occ. eigenvalues --   -0.52075  -0.51845  -0.51629  -0.51580  -0.51562
 Alpha  occ. eigenvalues --   -0.51483  -0.51331  -0.50744  -0.50732  -0.50444
 Alpha  occ. eigenvalues --   -0.50340  -0.50134  -0.49737  -0.49648  -0.49578
 Alpha  occ. eigenvalues --   -0.49413  -0.49320  -0.49126  -0.49053  -0.48843
 Alpha  occ. eigenvalues --   -0.48650  -0.48420  -0.48225  -0.48070  -0.47940
 Alpha  occ. eigenvalues --   -0.47870  -0.47643  -0.47535  -0.47332  -0.47186
 Alpha  occ. eigenvalues --   -0.47028  -0.46856  -0.46517  -0.46393  -0.46263
 Alpha  occ. eigenvalues --   -0.46179  -0.46123  -0.46095  -0.46095  -0.46041
 Alpha  occ. eigenvalues --   -0.45622  -0.45508  -0.45489  -0.45330  -0.45117
 Alpha  occ. eigenvalues --   -0.44745  -0.44620  -0.44615  -0.44328  -0.44271
 Alpha  occ. eigenvalues --   -0.44194  -0.43970  -0.43912  -0.43817  -0.43647
 Alpha  occ. eigenvalues --   -0.43623  -0.43489  -0.43171  -0.43059  -0.42599
 Alpha  occ. eigenvalues --   -0.42510  -0.42255  -0.42220  -0.41789  -0.41679
 Alpha  occ. eigenvalues --   -0.41561  -0.41471  -0.41209  -0.41193  -0.41174
 Alpha  occ. eigenvalues --   -0.41070  -0.40978  -0.40753  -0.40581  -0.40269
 Alpha  occ. eigenvalues --   -0.40136  -0.39651  -0.39336  -0.39324  -0.38768
 Alpha  occ. eigenvalues --   -0.38426  -0.38350  -0.38120  -0.37825  -0.37708
 Alpha  occ. eigenvalues --   -0.37468  -0.36704  -0.36684  -0.36521  -0.36510
 Alpha  occ. eigenvalues --   -0.36023  -0.35969  -0.35402  -0.34443  -0.34397
 Alpha  occ. eigenvalues --   -0.34157  -0.33524  -0.33078  -0.31636  -0.31178
 Alpha  occ. eigenvalues --   -0.31017  -0.30983  -0.30942  -0.30743  -0.30391
 Alpha  occ. eigenvalues --   -0.30099  -0.29971  -0.29657  -0.24228  -0.23755
 Alpha  occ. eigenvalues --   -0.21215  -0.21053
 Alpha virt. eigenvalues --   -0.08707  -0.08437  -0.02790  -0.01625  -0.00772
 Alpha virt. eigenvalues --   -0.00039   0.00071   0.01994   0.02390   0.02876
 Alpha virt. eigenvalues --    0.04518   0.04719   0.04959   0.05401   0.05667

 Mulliken charges:
               1
     1  Mg   0.808617
     2  C    0.026462
     3  C   -0.060927
     4  C   -0.021816
     5  C   -0.054627
     6  N   -0.238613
     7  C   -0.066752
     8  C   -0.007227
     9  C   -0.085892
    10  C    0.024970
    11  C    0.085489
    12  C    0.072946
    13  C   -0.063213
    14  H    0.016699
    15  N   -0.411391
    16  C    0.127293
    17  C   -0.148235
    18  C    0.024313
    19  C    0.083852
    20  C    0.141960
    21  C   -0.053997
    22  O   -0.217048
    23  C    0.078738
    24  N   -0.260339
    25  C    0.038681
    26  C   -0.046197
    27  C    0.025395
    28  C   -0.014143
    29  C    0.052391
    30  C    0.002622
    31  C    0.007369
    32  N   -0.333286
    33  C    0.096770
    34  C   -0.206346
    35  C    0.019550
    36  C    0.125999
    37  C    0.134708
    38  C    0.006055
    39  O   -0.179755
    40  C    0.016342
    41  C    0.215211
    42  O   -0.202790
    43  O   -0.345780
    44  C    0.186872
    45  H   -0.021055
    46  H   -0.066273
    47  H   -0.025779
    48  H   -0.009361
    49  H    0.001849
    50  H    0.020310
    51  H    0.026187
    52  H    0.005693
    53  H    0.006749
    54  H    0.031774
    55  H    0.025411
    56  H    0.024711
    57  H    0.034849
    58  H    0.037278
    59  H   -0.012888
    60  H    0.019528
    61  H    0.050419
    62  H    0.019849
    63  H    0.023810
    64  H    0.010611
    65  H    0.032501
    66  H    0.012053
    67  H    0.010230
    68  H    0.015814
    69  H    0.005627
    70  H    0.012458
    71  H    0.025572
    72  H    0.039801
    73  H    0.049826
    74  H    0.045800
    75  H    0.017211
    76  H    0.030059
    77  H    0.039054
    78  H    0.024226
    79  H    0.035165
    80  Mg   0.812116
    81  C   -0.074081
    82  C   -0.059086
    83  C   -0.048952
    84  C   -0.095359
    85  N   -0.287490
    86  C   -0.007312
    87  C   -0.035747
    88  C   -0.060131
    89  C    0.073515
    90  C    0.067832
    91  C    0.021776
    92  C   -0.043300
    93  H    0.020566
    94  N   -0.352807
    95  C    0.090889
    96  C   -0.157881
    97  C   -0.044684
    98  C    0.100342
    99  C    0.108360
   100  C    0.033445
   101  O   -0.220509
   102  C    0.070288
   103  N   -0.263476
   104  C    0.011803
   105  C   -0.016179
   106  C   -0.070734
   107  C    0.089902
   108  C    0.065467
   109  C    0.016633
   110  C    0.018735
   111  N   -0.299288
   112  C    0.080558
   113  C   -0.145710
   114  C   -0.016666
   115  C    0.164899
   116  C    0.124133
   117  C    0.057517
   118  O   -0.193671
   119  C    0.017383
   120  C    0.186292
   121  O   -0.169836
   122  O   -0.386152
   123  C    0.166782
   124  H   -0.032092
   125  H   -0.011523
   126  H   -0.027080
   127  H    0.021418
   128  H    0.006307
   129  H    0.022884
   130  H    0.011359
   131  H    0.016904
   132  H    0.009254
   133  H    0.010184
   134  H    0.020774
   135  H    0.030318
   136  H    0.019822
   137  H    0.030312
   138  H    0.026874
   139  H    0.033723
   140  H    0.005568
   141  H    0.050157
   142  H    0.010950
   143  H    0.010519
   144  H    0.011896
   145  H    0.028750
   146  H    0.024177
   147  H    0.014819
   148  H   -0.003675
   149  H    0.015237
   150  H    0.026116
   151  H    0.004464
   152  H    0.001528
   153  H    0.041890
   154  H    0.040818
   155  H    0.039637
   156  H    0.049306
   157  H    0.036992
   158  H    0.051233
 Sum of Mulliken charges =  -0.00000

 Dipole moment (field-independent basis, Debye):
    X=             -6.8766    Y=              1.6737    Z=              1.4122  Tot=              7.2168
 Quadrupole moment (field-independent basis, Debye-Ang):
   XX=           -448.3344   YY=           -530.8343   ZZ=           -543.9784
   XY=             14.6102   XZ=            -33.7301   YZ=             -3.1800

 Normal termination of Gaussian 16 at Wed Sep 15 12:05:54 2021.
