 Gaussian 16, Revision A.03,
 Gaussian 16:  ES64L-G16RevA.03 25-Dec-2016

 ----------------------------------------------------------
 #p cam-b3lyp/Def2SVP td=(nstates=5) density=(transition=1)
 ----------------------------------------------------------

 --------------------------------
 TDDFT excited states in gaussian
 --------------------------------
 Symbolic Z-matrix:
 Charge =  0 Multiplicity = 1

                         Standard orientation:
 ---------------------------------------------------------------------
 Center     Atomic      Atomic             Coordinates (Angstroms)
 Number     Number       Type             X           Y           Z
 ---------------------------------------------------------------------
      1         12           0      -23.723682    0.483061    0.514434
      2          6           0      -23.187597   -2.450416   -1.207080
      3          6           0      -20.351064    1.021304    0.508145
      4          6           0      -24.381185    3.688437    0.968269
      5          6           0      -27.163707   -0.208687    0.391162
      6          7           0      -22.055115   -0.418074   -0.697548
      7          6           0      -22.033515   -1.712307   -1.108041
      8          6           0      -20.656763   -2.182065   -1.474508
      9          6           0      -19.803852   -1.263099   -0.541186
     10          6           0      -20.805076   -0.186350   -0.149710
     11          6           0      -19.155686   -2.032690    0.645247
     12          6           0      -20.317697   -1.922782   -3.027489
     13          6           0      -19.401142   -3.032320   -3.724157
     14          1           0      -18.142583   -2.356811   -4.209704
     15          7           0      -22.509480    2.084728    0.906381
     16          6           0      -21.167150    2.182016    0.787037
     17          6           0      -20.721762    3.540159    1.072109
     18          6           0      -21.885453    4.318430    1.240468
     19          6           0      -22.999818    3.351956    1.030719
     20          6           0      -19.217873    3.907027    1.072113
     21          6           0      -21.855951    5.817380    1.350769
     22          8           0      -20.797372    6.389058    1.379714
     23          6           0      -23.105444    6.718142    1.382226
     24          7           0      -25.531522    1.621352    0.798649
     25          6           0      -25.518939    2.871414    0.943567
     26          6           0      -26.871183    3.482499    0.925789
     27          6           0      -27.809983    2.224483    0.752584
     28          6           0      -26.816741    1.151101    0.638282
     29          6           0      -27.116806    4.384325    2.182451
     30          6           0      -28.739913    2.342348   -0.542411
     31          6           0      -30.010970    1.422823   -0.607286
     32          7           0      -24.968360   -1.021102   -0.154630
     33          6           0      -26.334249   -1.203668   -0.036617
     34          6           0      -26.708973   -2.517581   -0.480661
     35          6           0      -25.461859   -3.086334   -0.918338
     36          6           0      -24.488606   -2.113387   -0.796852
     37          6           0      -28.071384   -3.132548   -0.479840
     38          6           0      -24.869945   -4.270393   -1.438245
     39          8           0      -25.289694   -5.386596   -1.769836
     40          6           0      -23.414923   -3.847480   -1.828217
     41          6           0      -22.513338   -4.940307   -1.359115
     42          8           0      -22.129994   -5.889773   -2.056806
     43          8           0      -22.224209   -4.764637   -0.034029
     44          6           0      -21.363924   -5.890336    0.427031
     45          1           0      -19.293075    1.228121    0.684485
     46          1           0      -24.566172    4.760229    1.059831
     47          1           0      -28.233556   -0.363558    0.231758
     48          1           0      -20.632966   -3.215236   -1.130273
     49          1           0      -18.961079   -0.866710   -1.107739
     50          1           0      -18.071078   -1.997310    0.547057
     51          1           0      -19.433439   -3.081485    0.535446
     52          1           0      -19.555815   -1.610224    1.566409
     53          1           0      -19.923982   -0.937666   -3.277305
     54          1           0      -21.234824   -1.902258   -3.615301
     55          1           0      -19.973354   -3.334009   -4.601586
     56          1           0      -19.184567   -3.963192   -3.199940
     57          1           0      -18.934439    4.683681    0.361876
     58          1           0      -18.552165    3.054261    0.934427
     59          1           0      -18.975977    4.233770    2.082913
     60          1           0      -23.730595    6.556599    2.259793
     61          1           0      -23.717960    6.649841    0.482842
     62          1           0      -22.712400    7.730843    1.287461
     63          1           0      -26.865855    4.069466    0.007439
     64          1           0      -28.425489    1.916037    1.597296
     65          1           0      -27.338722    5.385149    1.812684
     66          1           0      -26.255888    4.394343    2.851138
     67          1           0      -28.053717    4.181245    2.700925
     68          1           0      -28.157559    2.133946   -1.440174
     69          1           0      -29.042555    3.387773   -0.580553
     70          1           0      -31.011150    1.848988   -0.680586
     71          1           0      -30.092485    0.820360    0.296387
     72          1           0      -29.933585    0.733256   -1.447903
     73          1           0      -28.855211   -2.584261    0.042379
     74          1           0      -27.830725   -4.084258   -0.007812
     75          1           0      -28.203501   -3.290053   -1.550356
     76          1           0      -23.270485   -3.666874   -2.893938
     77          1           0      -21.951575   -6.807542    0.449066
     78          1           0      -21.086977   -5.806133    1.477916
     79          1           0      -20.490129   -5.924173   -0.224025
     80         12           0       23.859924    0.548432   -0.429217
     81          6           0       23.007868   -2.130874    1.830238
     82          6           0       21.928987    2.642977    1.615701
     83          6           0       24.719950    3.025617   -2.405022
     84          6           0       25.472369   -1.766411   -2.493835
     85          7           0       22.581247    0.214238    1.527872
     86          6           0       22.567949   -0.869285    2.348270
     87          6           0       21.970904   -0.546376    3.708312
     88          6           0       21.298909    0.923785    3.502937
     89          6           0       21.942246    1.283956    2.132633
     90          6           0       19.751426    0.951498    3.571646
     91          6           0       23.030657   -0.592349    4.860436
     92          6           0       22.670710   -1.569774    6.009241
     93          1           0       22.418549   -0.831360    7.447176
     94          7           0       23.407991    2.496203   -0.394718
     95          6           0       22.564158    3.242722    0.495681
     96          6           0       22.495064    4.686725    0.169179
     97          6           0       23.363898    4.765569   -0.968111
     98          6           0       23.861598    3.417148   -1.288175
     99          6           0       21.653952    5.718551    0.923392
    100          6           0       23.676032    5.945035   -1.808149
    101          8           0       24.593007    6.022236   -2.618676
    102          6           0       22.877329    7.239345   -1.558058
    103          7           0       25.065531    0.622017   -2.066635
    104          6           0       25.254312    1.774560   -2.748937
    105          6           0       25.913734    1.565455   -4.083765
    106          6           0       26.214309    0.047051   -4.129744
    107          6           0       25.603969   -0.424402   -2.790604
    108          6           0       25.144036    2.118401   -5.264845
    109          6           0       27.832226   -0.221354   -4.166708
    110          6           0       28.362789   -1.160128   -5.381400
    111          7           0       23.968165   -1.573262   -0.517949
    112          6           0       24.751795   -2.348575   -1.406239
    113          6           0       24.692518   -3.742484   -0.951656
    114          6           0       24.146357   -3.637667    0.354638
    115          6           0       23.624536   -2.352620    0.510619
    116          6           0       25.163005   -5.018982   -1.642330
    117          6           0       23.658446   -4.494745    1.471836
    118          8           0       23.645867   -5.733173    1.715934
    119          6           0       23.019307   -3.488803    2.505504
    120          6           0       21.639644   -3.970206    2.845538
    121          8           0       20.845085   -4.367108    2.040842
    122          8           0       21.486176   -3.995024    4.203947
    123          6           0       20.292587   -4.770214    4.627006
    124          1           0       21.211843    3.218833    2.204035
    125          1           0       25.038399    3.804460   -3.101469
    126          1           0       26.001837   -2.501614   -3.103029
    127          1           0       21.164411   -1.264004    3.859122
    128          1           0       21.683520    1.660900    4.208316
    129          1           0       19.324584    1.224072    2.606001
    130          1           0       19.416509    1.653248    4.336611
    131          1           0       19.273581    0.032076    3.910004
    132          1           0       23.165372    0.385229    5.324080
    133          1           0       24.006564   -0.914404    4.496160
    134          1           0       23.499979   -2.216853    6.296261
    135          1           0       21.862904   -2.267238    5.789907
    136          1           0       21.310620    5.444822    1.921538
    137          1           0       20.789965    6.105188    0.382985
    138          1           0       22.317388    6.573847    1.055454
    139          1           0       21.817147    7.073991   -1.749627
    140          1           0       23.256825    8.080024   -2.139851
    141          1           0       23.001903    7.509033   -0.509333
    142          1           0       26.825174    2.164455   -4.103967
    143          1           0       25.693367   -0.434582   -4.956716
    144          1           0       25.593324    3.013345   -5.696204
    145          1           0       24.134619    2.462066   -5.039147
    146          1           0       25.060244    1.326227   -6.009136
    147          1           0       28.226673   -0.675148   -3.258126
    148          1           0       28.405399    0.700000   -4.266636
    149          1           0       27.584699   -1.114257   -6.143607
    150          1           0       28.537651   -2.186204   -5.055226
    151          1           0       29.227380   -0.718422   -5.876174
    152          1           0       25.499952   -5.772103   -0.930293
    153          1           0       26.073692   -4.773411   -2.189871
    154          1           0       24.351232   -5.244748   -2.333968
    155          1           0       23.602256   -3.600067    3.419423
    156          1           0       19.434583   -4.359739    4.094960
    157          1           0       20.171735   -4.494077    5.674386
    158          1           0       20.266068   -5.845659    4.451677
 ---------------------------------------------------------------------

 SCF Done:  E(RCAM-B3LYP) =  -4069.79074331     A.U. after   19 cycles

 Excitation energies and oscillator strengths:

 Excited State   1:      Singlet-A      1.6722 eV  741.47 nm  f=0.3618  <S**2>=0.000
     310 -> 315        0.18797
     311 -> 313        0.68412
     310 <- 315        0.11181
 This state for optimization and/or second-order correction.
 Total Energy, E(TD-HF/TD-DFT) =  -4069.72929290
 Copying the excited state density for this state as the 1-particle RhoCI density.

 Excited State   2:      Singlet-A      1.6889 eV  734.10 nm  f=0.3689  <S**2>=0.000
     309 -> 316       -0.16433
     312 -> 314        0.68778
     309 <- 316       -0.10171

 Excited State   3:      Singlet-A      2.1740 eV  570.29 nm  f=0.1342  <S**2>=0.000
     310 -> 313        0.64729
     311 -> 315       -0.27760

 Excited State   4:      Singlet-A      2.2121 eV  560.49 nm  f=0.1066  <S**2>=0.000
     309 -> 314        0.64121
     312 -> 316        0.27963

 Excited State   5:      Singlet-A      3.1220 eV  397.14 nm  f=0.0000  <S**2>=0.000
     312 -> 313        0.70710

 The electronic state is 1-A.
 Alpha  occ. eigenvalues --  -46.89231 -46.88530 -19.25646 -19.25567 -19.19745
 Alpha  occ. eigenvalues --  -19.19533 -19.19048 -19.18953 -19.18684 -19.17907
 Alpha  occ. eigenvalues --  -14.42607 -14.42121 -14.41935 -14.41916 -14.40715
 Alpha  occ. eigenvalues --  -14.40319 -14.39249 -14.38597 -10.38818 -10.38668
 Alpha  occ. eigenvalues --  -10.35767 -10.35141 -10.35123 -10.34079 -10.32324
 Alpha  occ. eigenvalues --  -10.31925 -10.31828 -10.31719 -10.31718 -10.31577
 Alpha  occ. eigenvalues --  -10.31488 -10.31289 -10.30991 -10.30866 -10.30798
 Alpha  occ. eigenvalues --  -10.30690 -10.30667 -10.30261 -10.29978 -10.29977
 Alpha  occ. eigenvalues --  -10.29381 -10.29099 -10.29040 -10.28994 -10.28907
 Alpha  occ. eigenvalues --  -10.28791 -10.28629 -10.28531 -10.28450 -10.28399
 Alpha  occ. eigenvalues --  -10.28398 -10.28239 -10.28220 -10.28169 -10.28082
 Alpha  occ. eigenvalues --  -10.28047 -10.27960 -10.27858 -10.27830 -10.27786
 Alpha  occ. eigenvalues --  -10.27696 -10.27592 -10.27580 -10.27442 -10.27328
 Alpha  occ. eigenvalues --  -10.27267 -10.27238 -10.27177 -10.27144 -10.27004
 Alpha  occ. eigenvalues --  -10.26757 -10.26678 -10.26666 -10.26622 -10.26595
 Alpha  occ. eigenvalues --  -10.26594 -10.26286 -10.26227 -10.26226 -10.26124
 Alpha  occ. eigenvalues --  -10.26110 -10.26055 -10.25913 -10.25490 -10.25188
 Alpha  occ. eigenvalues --  -10.24441  -3.17804  -3.17174  -1.92692  -1.92274
 Alpha  occ. eigenvalues --   -1.92095  -1.92071  -1.91628  -1.91495  -1.16962
 Alpha  occ. eigenvalues --   -1.15955  -1.11967  -1.09968  -1.08685  -1.08113
 Alpha  occ. eigenvalues --   -1.07064  -1.07060  -1.06433  -1.04600  -1.03999
 Alpha  occ. eigenvalues --   -1.03945  -1.03266  -1.02837  -1.02583  -1.02015
 Alpha  occ. eigenvalues --   -0.92506  -0.91575  -0.89739  -0.88698  -0.88641
 Alpha  occ. eigenvalues --   -0.88496  -0.88267  -0.88128  -0.87412  -0.87308
 Alpha  occ. eigenvalues --   -0.86994  -0.86887  -0.86637  -0.85635  -0.84308
 Alpha  occ. eigenvalues --   -0.84022  -0.83813  -0.83170  -0.82285  -0.81838
 Alpha  occ. eigenvalues --   -0.81816  -0.81393  -0.80923  -0.80675  -0.80353
 Alpha  occ. eigenvalues --   -0.79759  -0.79095  -0.78433  -0.77851  -0.77097
 Alpha  occ. eigenvalues --   -0.76816  -0.76785  -0.76035  -0.75979  -0.75501
 Alpha  occ. eigenvalues --   -0.75226  -0.72699  -0.72556  -0.72231  -0.71418
 Alpha  occ. eigenvalues --   -0.70495  -0.69322  -0.69175  -0.68746  -0.68160
 Alpha  occ. eigenvalues --   -0.67757  -0.67594  -0.67090  -0.66832  -0.65919
 Alpha  occ. eigenvalues --   -0.65634  -0.65367  -0.64860  -0.64469  -0.64386
 Alpha  occ. eigenvalues --   -0.63996  -0.62427  -0.62367  -0.60801  -0.60525
 Alpha  occ. eigenvalues --   -0.59631  -0.59262  -0.59192  -0.58811  -0.58736
 Alpha  occ. eigenvalues --   -0.58347  -0.57985  -0.57957  -0.57137  -0.57005
 Alpha  occ. eigenvalues --   -0.56699  -0.56218  -0.56138  -0.55679  -0.55276
 Alpha  occ. eigenvalues --   -0.55062  -0.55049  -0.54496  -0.54149  -0.53778
 Alpha  occ. eigenvalues --   -0.53597  -0.53394  -0.52956  -0.52670  -0.52667
 Alpha  occ. eigenvalues --   -0.52562  -0.52399  -0.52155  -0.51984  -0.51710
 Alpha  occ. eigenvalues --   -0.51653  -0.51450  -0.51375  -0.51241  -0.51193
 Alpha  occ. eigenvalues --   -0.50848  -0.50658  -0.50460  -0.50419  -0.50220
 Alpha  occ. eigenvalues --   -0.50063  -0.49968  -0.49926  -0.49802  -0.49699
 Alpha  occ. eigenvalues --   -0.49427  -0.49209  -0.49149  -0.48948  -0.48784
 Alpha  occ. eigenvalues --   -0.48632  -0.48348  -0.48244  -0.48114  -0.48005
 Alpha  occ. eigenvalues --   -0.47779  -0.47686  -0.47564  -0.47467  -0.47415
 Alpha  occ. eigenvalues --   -0.47046  -0.46933  -0.46841  -0.46821  -0.46567
 Alpha  occ. eigenvalues --   -0.46292  -0.46231  -0.46201  -0.45944  -0.45837
 Alpha  occ. eigenvalues --   -0.45819  -0.45573  -0.45386  -0.45113  -0.44987
 Alpha  occ. eigenvalues --   -0.44813  -0.44774  -0.44673  -0.44423  -0.44374
 Alpha  occ. eigenvalues --   -0.44306  -0.44216  -0.44098  -0.43991  -0.43882
 Alpha  occ. eigenvalues --   -0.43786  -0.43384  -0.43318  -0.43171  -0.42927
 Alpha  occ. eigenvalues --   -0.42860  -0.42614  -0.42607  -0.42216  -0.42192
 Alpha  occ. eigenvalues --   -0.42035  -0.41969  -0.41905  -0.41543  -0.41461
 Alpha  occ. eigenvalues --   -0.41311  -0.41168  -0.40792  -0.40772  -0.40694
 Alpha  occ. eigenvalues --   -0.40433  -0.40177  -0.40078  -0.39626  -0.39377
 Alpha  occ. eigenvalues --   -0.38629  -0.38599  -0.38292  -0.38232  -0.37715
 Alpha  occ. eigenvalues --   -0.37488  -0.37340  -0.36819  -0.36713  -0.36494
 Alpha  occ. eigenvalues --   -0.36378  -0.35502  -0.34973  -0.34639  -0.34420
 Alpha  occ. eigenvalues --   -0.33604  -0.33390  -0.33018  -0.31918  -0.31633
 Alpha  occ. eigenvalues --   -0.31388  -0.30992  -0.30604  -0.30595  -0.30271
 Alpha  occ. eigenvalues --   -0.30058  -0.29383  -0.28965  -0.24190  -0.23905
 Alpha  occ. eigenvalues --   -0.21305  -0.21169
 Alpha virt. eigenvalues --   -0.08980  -0.08806  -0.01834  -0.01807   0.00132
 Alpha virt. eigenvalues --    0.00199   0.01657   0.02057   0.02354   0.03556
 Alpha virt. eigenvalues --    0.04227   0.04616   0.05217   0.05699   0.05800

 Mulliken charges:
               1
     1  Mg  11.999997
     2  C    6.000381
     3  C    5.999696
     4  C    5.999538
     5  C    6.000142
     6  N    7.000182
     7  C    5.999173
     8  C    6.000277
     9  C    5.999660
    10  C    6.000716
    11  C    5.999939
    12  C    5.999984
    13  C    6.000040
    14  H    0.999830
    15  N    6.999785
    16  C    6.000922
    17  C    6.000446
    18  C    6.000308
    19  C    6.000773
    20  C    5.999854
    21  C    6.000206
    22  O    8.000441
    23  C    5.999937
    24  N    7.000015
    25  C    6.000723
    26  C    5.999762
    27  C    6.000262
    28  C    5.999246
    29  C    5.999938
    30  C    6.000155
    31  C    6.000031
    32  N    7.000054
    33  C    5.999330
    34  C    5.999316
    35  C    6.000007
    36  C    5.999388
    37  C    6.000032
    38  C    5.999645
    39  O    7.999325
    40  C    6.000009
    41  C    5.999900
    42  O    7.999829
    43  O    8.000039
    44  C    6.000046
    45  H    1.000256
    46  H    1.000163
    47  H    0.999784
    48  H    1.000043
    49  H    1.000149
    50  H    1.000092
    51  H    1.000319
    52  H    0.999995
    53  H    0.999775
    54  H    1.000107
    55  H    1.000028
    56  H    0.999986
    57  H    1.000460
    58  H    1.000429
    59  H    1.000442
    60  H    1.000219
    61  H    1.000237
    62  H    1.000283
    63  H    0.999996
    64  H    0.999962
    65  H    1.000032
    66  H    0.999890
    67  H    1.000208
    68  H    0.999939
    69  H    0.999733
    70  H    0.999860
    71  H    1.000027
    72  H    1.000078
    73  H    0.999566
    74  H    0.999603
    75  H    0.999566
    76  H    0.999803
    77  H    0.999975
    78  H    0.999852
    79  H    0.999862
    80  Mg  12.004471
    81  C    5.971497
    82  C    6.006714
    83  C    6.034366
    84  C    5.988833
    85  N    6.982975
    86  C    6.036055
    87  C    5.989423
    88  C    6.012667
    89  C    5.968361
    90  C    6.002938
    91  C    5.998169
    92  C    5.997890
    93  H    1.007332
    94  N    7.006908
    95  C    5.960290
    96  C    5.975730
    97  C    5.985453
    98  C    5.967588
    99  C    6.004958
   100  C    5.988528
   101  O    7.968082
   102  C    6.004415
   103  N    7.007931
   104  C    5.959621
   105  C    6.010592
   106  C    5.987690
   107  C    6.031735
   108  C    6.000817
   109  C    5.994906
   110  C    5.999062
   111  N    6.995231
   112  C    6.046545
   113  C    6.030317
   114  C    6.004742
   115  C    6.033532
   116  C    6.000196
   117  C    6.009571
   118  O    8.031084
   119  C    6.004769
   120  C    6.006791
   121  O    8.000272
   122  O    8.001914
   123  C    5.997817
   124  H    0.986457
   125  H    0.998929
   126  H    1.012792
   127  H    0.997625
   128  H    0.998749
   129  H    1.000493
   130  H    0.996012
   131  H    0.985640
   132  H    1.009291
   133  H    0.994989
   134  H    0.996941
   135  H    0.998016
   136  H    0.983185
   137  H    0.979643
   138  H    0.983281
   139  H    0.992206
   140  H    0.984956
   141  H    0.994675
   142  H    1.001121
   143  H    1.003976
   144  H    1.002355
   145  H    1.005374
   146  H    0.989917
   147  H    0.998961
   148  H    1.012780
   149  H    1.004048
   150  H    0.997102
   151  H    1.006504
   152  H    1.015828
   153  H    1.017049
   154  H    1.017524
   155  H    1.004766
   156  H    1.004665
   157  H    1.005236
   158  H    1.000134
 Sum of Mulliken charges = 624.00000

 Dipole moment (field-independent basis, Debye):
    X=              2.8921    Y=            -10.2501    Z=             -0.8330  Tot=             10.6828
 Quadrupole moment (field-independent basis, Debye-Ang):
   XX=            123.6275   YY=            -11.3430   ZZ=              3.2705
   XY=           -249.0592   XZ=            -24.0111   YZ=              3.5414

 Normal termination of Gaussian 16 at Thu Sep 23 04:28:29 2021.
