 Gaussian 16, Revision A.03,
 Gaussian 16:  ES64L-G16RevA.03 25-Dec-2016

 ----------------------------------------------------------
 #p cam-b3lyp/Def2SVP td=(nstates=5) density=(transition=1)
 ----------------------------------------------------------

 --------------------------------
 TDDFT excited states in gaussian
 --------------------------------
 Symbolic Z-matrix:
 Charge =  0 Multiplicity = 1

                         Standard orientation:
 ---------------------------------------------------------------------
 Center     Atomic      Atomic             Coordinates (Angstroms)
 Number     Number       Type             X           Y           Z
 ---------------------------------------------------------------------
      1         12           0       12.646296    0.251410    0.191033
      2          6           0        9.322480   -0.382001   -0.344319
      3          6           0       13.151600    0.468385   -3.110021
      4          6           0       15.927125    0.619321    0.872176
      5          6           0       12.126589   -0.511714    3.707682
      6          7           0       11.372320   -0.215695   -1.561303
      7          6           0       10.039240   -0.335918   -1.559331
      8          6           0        9.468938   -0.381203   -3.068767
      9          6           0       10.793860   -0.085964   -3.866514
     10          6           0       11.895833    0.032092   -2.794361
     11          6           0       11.072019   -1.092521   -4.999837
     12          6           0        8.334601    0.646764   -3.342400
     13          6           0        7.953541    0.952713   -4.827696
     14          1           0        6.635661    0.300614   -5.394484
     15          7           0       14.332291    0.462598   -0.978489
     16          6           0       14.334862    0.631766   -2.284378
     17          6           0       15.702547    0.872440   -2.718775
     18          6           0       16.585207    0.818272   -1.598396
     19          6           0       15.618182    0.631099   -0.494499
     20          6           0       16.162478    0.987176   -4.162710
     21          6           0       18.107323    0.880869   -1.525443
     22          8           0       18.707908    0.527202   -0.514875
     23          6           0       18.860620    1.377052   -2.709707
     24          7           0       13.858210    0.030169    2.036748
     25          6           0       15.161623    0.282966    2.041848
     26          6           0       15.739725    0.308987    3.466497
     27          6           0       14.466018    0.159277    4.294364
     28          6           0       13.434602   -0.159257    3.277285
     29          6           0       16.849033   -0.695082    3.813399
     30          6           0       14.232161    1.281310    5.274010
     31          6           0       14.239708    0.887764    6.794239
     32          7           0       11.106112   -0.263111    1.433065
     33          6           0       10.998922   -0.463534    2.850220
     34          6           0        9.621327   -0.652436    3.248471
     35          6           0        8.968463   -0.601429    1.985472
     36          6           0        9.895223   -0.381257    0.958722
     37          6           0        8.979056   -0.709839    4.589552
     38          6           0        7.627476   -0.521167    1.463715
     39          8           0        6.504385   -0.409537    1.977581
     40          6           0        7.736080   -0.507921   -0.040575
     41          6           0        7.267960   -1.879520   -0.574865
     42          8           0        7.530643   -3.001217   -0.114624
     43          8           0        6.499606   -1.650071   -1.677376
     44          6           0        5.891617   -2.835103   -2.361477
     45          1           0       13.425613    0.684279   -4.144808
     46          1           0       16.975955    0.526582    1.161687
     47          1           0       12.026402   -0.593522    4.791471
     48          1           0        9.150480   -1.415617   -3.192696
     49          1           0       10.700307    0.911266   -4.296431
     50          1           0       11.405765   -0.513940   -5.860519
     51          1           0       10.168791   -1.618656   -5.308996
     52          1           0       11.833360   -1.813571   -4.702017
     53          1           0        8.739028    1.605290   -3.017222
     54          1           0        7.417394    0.329794   -2.846181
     55          1           0        8.724016    0.496125   -5.449833
     56          1           0        7.841444    2.030181   -4.943494
     57          1           0       15.324844    0.901736   -4.854895
     58          1           0       16.874926    0.192599   -4.383110
     59          1           0       16.666277    1.933734   -4.354294
     60          1           0       18.367904    2.308708   -2.989232
     61          1           0       18.960480    0.806072   -3.632305
     62          1           0       19.908473    1.578252   -2.489571
     63          1           0       16.162350    1.299603    3.630824
     64          1           0       14.587716   -0.730534    4.911787
     65          1           0       17.532780   -0.123801    4.440788
     66          1           0       17.288008   -1.111136    2.906708
     67          1           0       16.496411   -1.605673    4.297634
     68          1           0       13.206541    1.587679    5.070709
     69          1           0       14.939863    2.103761    5.174001
     70          1           0       14.395157   -0.186213    6.900164
     71          1           0       13.253809    1.127793    7.193532
     72          1           0       14.924574    1.457834    7.422160
     73          1           0        9.699736   -0.443575    5.362293
     74          1           0        8.766752   -1.765067    4.757457
     75          1           0        8.144290   -0.010217    4.527237
     76          1           0        7.069599    0.298239   -0.347767
     77          1           0        6.570745   -3.670529   -2.533368
     78          1           0        5.384882   -2.603237   -3.297677
     79          1           0        5.156701   -3.226505   -1.658261
     80         12           0      -12.250560   -0.587499   -0.405665
     81          6           0      -11.989873    2.852705   -0.568368
     82          6           0       -8.941026   -0.785998   -1.331898
     83          6           0      -12.326232   -3.942339    0.328177
     84          6           0      -15.522429   -0.300658    0.625736
     85          7           0      -10.612432    0.850742   -0.694839
     86          6           0      -10.789233    2.217930   -0.776235
     87          6           0       -9.494956    2.937933   -1.145359
     88          6           0       -8.637720    1.746224   -1.713779
     89          6           0       -9.410904    0.548873   -1.180744
     90          6           0       -8.344442    1.736680   -3.282258
     91          6           0       -8.814751    3.769458   -0.011414
     92          6           0       -8.329772    5.148058   -0.407423
     93          1           0       -6.811779    5.238215   -0.426689
     94          7           0      -10.823013   -2.095360   -0.486101
     95          6           0       -9.558276   -1.989276   -0.909036
     96          6           0       -8.910121   -3.289176   -0.928450
     97          6           0       -9.778728   -4.265593   -0.470090
     98          6           0      -11.032290   -3.464806   -0.129999
     99          6           0       -7.371463   -3.479751   -1.333768
    100          6           0       -9.519105   -5.808755   -0.408955
    101          8           0       -8.375842   -6.243243   -0.726413
    102          6           0      -10.553758   -6.760407    0.056312
    103          7           0      -13.686305   -1.955152    0.627174
    104          6           0      -13.554635   -3.261637    0.638932
    105          6           0      -14.857856   -3.981401    0.916399
    106          6           0      -15.945071   -2.872542    1.121280
    107          6           0      -15.056419   -1.605615    0.701448
    108          6           0      -15.251556   -5.237359    0.075106
    109          6           0      -16.618451   -2.671983    2.509876
    110          6           0      -17.904960   -1.876033    2.434062
    111          7           0      -13.533197    0.986875   -0.023157
    112          6           0      -14.904593    0.958928    0.320578
    113          6           0      -15.392631    2.310818    0.294696
    114          6           0      -14.295359    3.121667   -0.085089
    115          6           0      -13.219675    2.247089   -0.211553
    116          6           0      -16.846079    2.751454    0.385022
    117          6           0      -13.955076    4.428081   -0.361861
    118          8           0      -14.501936    5.493525   -0.273312
    119          6           0      -12.352412    4.354869   -0.559080
    120          6           0      -11.796238    4.860763    0.771067
    121          8           0      -11.694370    4.208083    1.791955
    122          8           0      -11.459695    6.191458    0.581973
    123          6           0      -11.004470    6.908585    1.768624
    124          1           0       -7.968945   -0.927418   -1.808542
    125          1           0      -12.284109   -5.014972    0.526971
    126          1           0      -16.574879   -0.067817    0.800556
    127          1           0       -9.715223    3.589956   -1.990113
    128          1           0       -7.731468    1.700741   -1.108747
    129          1           0       -8.158275    0.677930   -3.462183
    130          1           0       -7.399637    2.201976   -3.564321
    131          1           0       -9.122344    2.139050   -3.931011
    132          1           0       -7.970146    3.144510    0.279438
    133          1           0       -9.325959    3.804534    0.950414
    134          1           0       -8.750965    5.856010    0.306734
    135          1           0       -8.660140    5.436316   -1.405549
    136          1           0       -6.833678   -2.558857   -1.563158
    137          1           0       -7.282163   -4.143813   -2.194155
    138          1           0       -6.756728   -3.851805   -0.515319
    139          1           0      -11.429452   -6.689100   -0.588031
    140          1           0      -10.726352   -6.673626    1.129138
    141          1           0      -10.164697   -7.733552   -0.240639
    142          1           0      -14.946423   -4.427670    1.907119
    143          1           0      -16.660617   -2.832714    0.299655
    144          1           0      -14.351248   -5.524540   -0.469848
    145          1           0      -16.142053   -5.096044   -0.538468
    146          1           0      -15.507923   -6.113070    0.671526
    147          1           0      -15.858539   -2.223189    3.149435
    148          1           0      -16.758357   -3.685025    2.886927
    149          1           0      -18.558162   -2.233712    3.230378
    150          1           0      -18.457336   -1.969292    1.498279
    151          1           0      -17.696618   -0.839988    2.701214
    152          1           0      -17.005068    3.801673    0.140186
    153          1           0      -17.196462    2.524252    1.391020
    154          1           0      -17.476937    2.174516   -0.291284
    155          1           0      -12.039013    4.875137   -1.464702
    156          1           0      -11.823360    6.982614    2.484385
    157          1           0      -10.593948    7.886369    1.518941
    158          1           0      -10.233208    6.325049    2.270568
 ---------------------------------------------------------------------

 SCF Done:  E(RCAM-B3LYP) =  -4069.81191636     A.U. after   19 cycles

 Excitation energies and oscillator strengths:

 Excited State   1:      Singlet-A      1.7215 eV  720.23 nm  f=0.4151  <S**2>=0.000
     310 -> 315        0.17577
     312 -> 313        0.68376
     310 <- 315        0.10319
 This state for optimization and/or second-order correction.
 Total Energy, E(TD-HF/TD-DFT) =  -4069.74865412
 Copying the excited state density for this state as the 1-particle RhoCI density.

 Excited State   2:      Singlet-A      1.8665 eV  664.27 nm  f=0.3681  <S**2>=0.000
     309 -> 316        0.14281
     311 -> 314        0.68798

 Excited State   3:      Singlet-A      2.2640 eV  547.64 nm  f=0.1358  <S**2>=0.000
     309 -> 314        0.64206
     311 -> 316       -0.24498
     311 -> 317       -0.10218

 Excited State   4:      Singlet-A      2.2692 eV  546.37 nm  f=0.1054  <S**2>=0.000
     310 -> 313        0.63438
     312 -> 315       -0.28452

 Excited State   5:      Singlet-A      3.0810 eV  402.42 nm  f=0.0000  <S**2>=0.000
     312 -> 314        0.70704

 The electronic state is 1-A.
 Alpha  occ. eigenvalues --  -46.89314 -46.89191 -19.25633 -19.24435 -19.20127
 Alpha  occ. eigenvalues --  -19.19788 -19.19540 -19.19458 -19.17680 -19.17638
 Alpha  occ. eigenvalues --  -14.42226 -14.42070 -14.41959 -14.41734 -14.40462
 Alpha  occ. eigenvalues --  -14.40090 -14.39281 -14.38405 -10.39561 -10.39004
 Alpha  occ. eigenvalues --  -10.36934 -10.36098 -10.33346 -10.33319 -10.32990
 Alpha  occ. eigenvalues --  -10.32335 -10.32191 -10.31686 -10.31633 -10.31062
 Alpha  occ. eigenvalues --  -10.30991 -10.30973 -10.30491 -10.30386 -10.30313
 Alpha  occ. eigenvalues --  -10.30272 -10.30023 -10.29987 -10.29715 -10.29702
 Alpha  occ. eigenvalues --  -10.29370 -10.29072 -10.28808 -10.28584 -10.28395
 Alpha  occ. eigenvalues --  -10.28320 -10.28305 -10.28268 -10.28196 -10.28104
 Alpha  occ. eigenvalues --  -10.28069 -10.27992 -10.27987 -10.27971 -10.27779
 Alpha  occ. eigenvalues --  -10.27541 -10.27495 -10.27423 -10.27330 -10.27148
 Alpha  occ. eigenvalues --  -10.27107 -10.27068 -10.27030 -10.27024 -10.26871
 Alpha  occ. eigenvalues --  -10.26847 -10.26846 -10.26784 -10.26767 -10.26711
 Alpha  occ. eigenvalues --  -10.26699 -10.26647 -10.26528 -10.26496 -10.26357
 Alpha  occ. eigenvalues --  -10.26256 -10.26242 -10.26226 -10.26189 -10.25839
 Alpha  occ. eigenvalues --  -10.25733 -10.25710 -10.25662 -10.25223 -10.24400
 Alpha  occ. eigenvalues --  -10.23018  -3.17753  -3.17716  -1.92636  -1.92607
 Alpha  occ. eigenvalues --   -1.92214  -1.92165  -1.92056  -1.92029  -1.15567
 Alpha  occ. eigenvalues --   -1.15377  -1.10389  -1.09721  -1.09048  -1.07970
 Alpha  occ. eigenvalues --   -1.07821  -1.06544  -1.05731  -1.04497  -1.04388
 Alpha  occ. eigenvalues --   -1.03879  -1.03756  -1.03106  -1.02959  -1.02463
 Alpha  occ. eigenvalues --   -0.91477  -0.91274  -0.89919  -0.89105  -0.88737
 Alpha  occ. eigenvalues --   -0.88402  -0.88174  -0.87883  -0.87554  -0.87159
 Alpha  occ. eigenvalues --   -0.87003  -0.86972  -0.86539  -0.85742  -0.84420
 Alpha  occ. eigenvalues --   -0.84194  -0.83552  -0.83334  -0.83115  -0.82361
 Alpha  occ. eigenvalues --   -0.82174  -0.81972  -0.81114  -0.80623  -0.80135
 Alpha  occ. eigenvalues --   -0.80043  -0.78537  -0.77558  -0.77558  -0.77078
 Alpha  occ. eigenvalues --   -0.76746  -0.76650  -0.76104  -0.75354  -0.75244
 Alpha  occ. eigenvalues --   -0.75059  -0.72636  -0.72310  -0.71688  -0.71610
 Alpha  occ. eigenvalues --   -0.69646  -0.69443  -0.69116  -0.69027  -0.67816
 Alpha  occ. eigenvalues --   -0.67715  -0.67581  -0.67263  -0.65846  -0.65522
 Alpha  occ. eigenvalues --   -0.65402  -0.64893  -0.64592  -0.64469  -0.63957
 Alpha  occ. eigenvalues --   -0.63950  -0.62641  -0.61619  -0.60732  -0.59884
 Alpha  occ. eigenvalues --   -0.59659  -0.59386  -0.58940  -0.58885  -0.58640
 Alpha  occ. eigenvalues --   -0.58376  -0.57992  -0.57758  -0.57444  -0.57305
 Alpha  occ. eigenvalues --   -0.56350  -0.56313  -0.55664  -0.55406  -0.55151
 Alpha  occ. eigenvalues --   -0.54956  -0.54543  -0.54200  -0.54104  -0.53832
 Alpha  occ. eigenvalues --   -0.53746  -0.53643  -0.53403  -0.53250  -0.53072
 Alpha  occ. eigenvalues --   -0.52803  -0.52630  -0.52574  -0.52168  -0.51929
 Alpha  occ. eigenvalues --   -0.51687  -0.51514  -0.51193  -0.51118  -0.50946
 Alpha  occ. eigenvalues --   -0.50717  -0.50712  -0.50486  -0.50442  -0.50064
 Alpha  occ. eigenvalues --   -0.49978  -0.49918  -0.49792  -0.49725  -0.49697
 Alpha  occ. eigenvalues --   -0.49369  -0.49361  -0.49045  -0.48970  -0.48945
 Alpha  occ. eigenvalues --   -0.48619  -0.48578  -0.48458  -0.48169  -0.48144
 Alpha  occ. eigenvalues --   -0.47798  -0.47662  -0.47504  -0.47306  -0.47277
 Alpha  occ. eigenvalues --   -0.47088  -0.46788  -0.46455  -0.46387  -0.46143
 Alpha  occ. eigenvalues --   -0.46102  -0.46044  -0.45973  -0.45876  -0.45133
 Alpha  occ. eigenvalues --   -0.45110  -0.44986  -0.44959  -0.44793  -0.44698
 Alpha  occ. eigenvalues --   -0.44576  -0.44524  -0.44410  -0.44185  -0.44133
 Alpha  occ. eigenvalues --   -0.44010  -0.43869  -0.43859  -0.43599  -0.43504
 Alpha  occ. eigenvalues --   -0.43333  -0.42994  -0.42924  -0.42765  -0.42615
 Alpha  occ. eigenvalues --   -0.42467  -0.42389  -0.42214  -0.42093  -0.42021
 Alpha  occ. eigenvalues --   -0.41991  -0.41954  -0.41842  -0.41534  -0.41511
 Alpha  occ. eigenvalues --   -0.41102  -0.40842  -0.40688  -0.40433  -0.40331
 Alpha  occ. eigenvalues --   -0.40075  -0.39778  -0.39278  -0.39193  -0.39096
 Alpha  occ. eigenvalues --   -0.38879  -0.38272  -0.37971  -0.37872  -0.37247
 Alpha  occ. eigenvalues --   -0.37057  -0.36691  -0.36401  -0.36242  -0.36218
 Alpha  occ. eigenvalues --   -0.35961  -0.35246  -0.34329  -0.34292  -0.34202
 Alpha  occ. eigenvalues --   -0.34008  -0.33362  -0.32992  -0.32345  -0.31970
 Alpha  occ. eigenvalues --   -0.31788  -0.31112  -0.30770  -0.30594  -0.29975
 Alpha  occ. eigenvalues --   -0.29672  -0.29579  -0.29019  -0.23981  -0.23918
 Alpha  occ. eigenvalues --   -0.21401  -0.21110
 Alpha virt. eigenvalues --   -0.08556  -0.08360  -0.01775  -0.01703   0.00206
 Alpha virt. eigenvalues --    0.00570   0.01886   0.01891   0.02078   0.02546
 Alpha virt. eigenvalues --    0.04880   0.05272   0.05670   0.05926   0.06289

 Mulliken charges:
               1
     1  Mg  12.001180
     2  C    5.978474
     3  C    6.030199
     4  C    6.009223
     5  C    5.984882
     6  N    7.000457
     7  C    6.033703
     8  C    5.992200
     9  C    6.011067
    10  C    5.963048
    11  C    6.001390
    12  C    5.994535
    13  C    6.001331
    14  H    0.999801
    15  N    7.005774
    16  C    5.950590
    17  C    5.981310
    18  C    5.982280
    19  C    5.965653
    20  C    6.004798
    21  C    5.986372
    22  O    7.974819
    23  C    6.007428
    24  N    6.997955
    25  C    5.964692
    26  C    6.012498
    27  C    5.986169
    28  C    6.035464
    29  C    6.002313
    30  C    6.000467
    31  C    5.999592
    32  N    6.996282
    33  C    6.045169
    34  C    6.026154
    35  C    6.010382
    36  C    6.029938
    37  C    5.997226
    38  C    6.014232
    39  O    8.035629
    40  C    5.998220
    41  C    6.006007
    42  O    8.002036
    43  O    8.002054
    44  C    5.998381
    45  H    0.996646
    46  H    0.991530
    47  H    1.012116
    48  H    1.000087
    49  H    0.998403
    50  H    1.001324
    51  H    0.989127
    52  H    1.002218
    53  H    1.003900
    54  H    0.994217
    55  H    1.007208
    56  H    1.002148
    57  H    0.977945
    58  H    0.980450
    59  H    0.979587
    60  H    0.994777
    61  H    0.990198
    62  H    0.984394
    63  H    0.999154
    64  H    0.999907
    65  H    0.994497
    66  H    1.006789
    67  H    0.988680
    68  H    0.993627
    69  H    1.012423
    70  H    1.001968
    71  H    0.996556
    72  H    1.005853
    73  H    1.018606
    74  H    1.018585
    75  H    1.013688
    76  H    1.009467
    77  H    1.005035
    78  H    1.006291
    79  H    1.001229
    80  Mg  12.000117
    81  C    5.999810
    82  C    6.000020
    83  C    6.000657
    84  C    6.000018
    85  N    6.999923
    86  C    6.000375
    87  C    5.999840
    88  C    6.000247
    89  C    5.999374
    90  C    6.000084
    91  C    6.000086
    92  C    6.000172
    93  H    0.999412
    94  N    7.000235
    95  C    5.999467
    96  C    5.999556
    97  C    5.999926
    98  C    5.999063
    99  C    6.000264
   100  C    5.999833
   101  O    7.999397
   102  C    6.000014
   103  N    7.000063
   104  C    5.999242
   105  C    6.000235
   106  C    5.999989
   107  C    6.000414
   108  C    5.999980
   109  C    5.999882
   110  C    5.999887
   111  N    6.999990
   112  C    6.000572
   113  C    6.000533
   114  C    6.000154
   115  C    6.000378
   116  C    5.999909
   117  C    6.000417
   118  O    8.000810
   119  C    5.999978
   120  C    5.999982
   121  O    7.999996
   122  O    8.000085
   123  C    5.999991
   124  H    0.999450
   125  H    0.999969
   126  H    1.000387
   127  H    1.000134
   128  H    0.999390
   129  H    1.000057
   130  H    0.999609
   131  H    1.000135
   132  H    0.999671
   133  H    0.999911
   134  H    1.000084
   135  H    1.000288
   136  H    0.999221
   137  H    0.999801
   138  H    0.999029
   139  H    1.000143
   140  H    0.999813
   141  H    0.999902
   142  H    0.999879
   143  H    1.000141
   144  H    1.000031
   145  H    1.000098
   146  H    1.000076
   147  H    0.999924
   148  H    1.000286
   149  H    1.000265
   150  H    1.000179
   151  H    0.999874
   152  H    1.000413
   153  H    1.000415
   154  H    1.000554
   155  H    1.000331
   156  H    1.000162
   157  H    1.000190
   158  H    0.999809
 Sum of Mulliken charges = 624.00000

 Dipole moment (field-independent basis, Debye):
    X=             -9.5213    Y=             -1.6055    Z=              5.8248  Tot=             11.2766
 Quadrupole moment (field-independent basis, Debye-Ang):
   XX=           -231.1983   YY=              0.1241   ZZ=              4.3425
   XY=            -24.2920   XZ=             73.2794   YZ=              0.9383

 Normal termination of Gaussian 16 at Wed Sep 22 08:02:51 2021.
