 Gaussian 16, Revision A.03,
 Gaussian 16:  ES64L-G16RevA.03 25-Dec-2016

 ---------------------------------------------------
 #p cam-b3lyp/Def2SVP td=(nstates=5) density=(CIS=1)
 ---------------------------------------------------

 --------------------------------
 TDDFT excited states in gaussian
 --------------------------------
 Symbolic Z-matrix:
 Charge =  0 Multiplicity = 1

                         Standard orientation:
 ---------------------------------------------------------------------
 Center     Atomic      Atomic             Coordinates (Angstroms)
 Number     Number       Type             X           Y           Z
 ---------------------------------------------------------------------
      1         12           0       -0.674257    0.184628    0.305585
      2          6           0        2.819065    0.202028    0.126542
      3          6           0       -0.690133   -3.092698    0.136388
      4          6           0       -4.058884    0.273111   -0.277741
      5          6           0       -0.671079    3.699373   -0.029189
      6          7           0        0.897853   -1.217901    0.253492
      7          6           0        2.265731   -1.054735    0.250327
      8          6           0        2.993814   -2.381196    0.425276
      9          6           0        1.836725   -3.405320    0.194090
     10          6           0        0.618269   -2.556171    0.302201
     11          6           0        1.876835   -4.321875   -1.009586
     12          6           0        3.780039   -2.527372    1.767187
     13          6           0        4.537876   -3.848346    1.938886
     14          1           0        6.009096   -3.730709    2.309252
     15          7           0       -2.229959   -1.292996   -0.104089
     16          6           0       -2.018809   -2.619863    0.020641
     17          6           0       -3.274459   -3.310104   -0.083613
     18          6           0       -4.260971   -2.336272   -0.315929
     19          6           0       -3.518273   -1.048229   -0.251095
     20          6           0       -3.417650   -4.815991   -0.017523
     21          6           0       -5.738082   -2.490303   -0.475234
     22          8           0       -6.547673   -1.589563   -0.823212
     23          6           0       -6.405689   -3.824473   -0.164970
     24          7           0       -2.113756    1.735227   -0.116360
     25          6           0       -3.418927    1.495714   -0.382459
     26          6           0       -4.231636    2.899717   -0.422488
     27          6           0       -3.163884    3.908301    0.129463
     28          6           0       -1.911825    3.093332    0.071636
     29          6           0       -4.715151    3.172578   -1.900355
     30          6           0       -3.428316    4.227873    1.646192
     31          6           0       -3.597282    3.081147    2.630685
     32          7           0        0.793861    1.737975    0.143442
     33          6           0        0.599027    3.086487    0.022487
     34          6           0        1.855728    3.674913   -0.038624
     35          6           0        2.826657    2.632454   -0.029136
     36          6           0        2.125273    1.460796    0.082619
     37          6           0        2.210648    5.109300   -0.214392
     38          6           0        4.257945    2.260152   -0.098348
     39          8           0        5.290463    2.901440   -0.256479
     40          6           0        4.300815    0.647333    0.105373
     41          6           0        5.210205    0.019506   -0.889927
     42          8           0        5.358466    0.414160   -2.084584
     43          8           0        5.929225   -0.884902   -0.238890
     44          6           0        7.157252   -1.260959   -0.912838
     45          1           0       -0.755184   -4.181191    0.196777
     46          1           0       -5.140143    0.319936   -0.427651
     47          1           0       -0.707229    4.789522   -0.000996
     48          1           0        3.773986   -2.354939   -0.335712
     49          1           0        1.724134   -4.112109    1.016924
     50          1           0        2.846551   -4.467040   -1.485652
     51          1           0        1.151191   -3.974514   -1.745522
     52          1           0        1.367033   -5.241923   -0.723045
     53          1           0        3.102155   -2.373221    2.607111
     54          1           0        4.500286   -1.713659    1.845591
     55          1           0        4.758415   -4.307060    0.975180
     56          1           0        4.000261   -4.531228    2.597379
     57          1           0       -2.476607   -5.365827   -0.008631
     58          1           0       -3.851440   -5.290459   -0.897416
     59          1           0       -3.992652   -5.160077    0.842725
     60          1           0       -6.097832   -4.536728   -0.929984
     61          1           0       -7.474341   -3.805138   -0.377564
     62          1           0       -6.261766   -4.148749    0.866311
     63          1           0       -5.128271    2.819814    0.192156
     64          1           0       -3.150419    4.723867   -0.593538
     65          1           0       -4.643628    2.299904   -2.549765
     66          1           0       -4.149415    3.946643   -2.419134
     67          1           0       -5.769675    3.434949   -1.972325
     68          1           0       -4.349635    4.800350    1.538268
     69          1           0       -2.691734    4.884391    2.108382
     70          1           0       -3.715703    2.139960    2.093372
     71          1           0       -4.360626    3.208382    3.397521
     72          1           0       -2.673604    3.133793    3.207062
     73          1           0        1.756863    5.777446    0.517996
     74          1           0        1.804284    5.381009   -1.188203
     75          1           0        3.287300    5.274102   -0.241015
     76          1           0        4.747485    0.526747    1.091973
     77          1           0        7.975875   -1.315189   -0.194101
     78          1           0        7.513399   -0.578855   -1.684475
     79          1           0        6.977713   -2.254213   -1.325607
 ---------------------------------------------------------------------

 SCF Done:  E(RCAM-B3LYP) =  -2034.91522993     A.U. after   19 cycles

 Excitation energies and oscillator strengths:

 Excited State   1:      Singlet-A      1.7144 eV  723.18 nm  f=0.0000  <S**2>=0.000
     155 ->158         0.16609
     156 ->157         0.68901
     155 <-158         0.10314
 This state for optimization and/or second-order correction.
 Total Energy, E(TD-HF/TD-DFT) =  -2034.85222588
 Copying the excited state density for this state as the 1-particle RhoCI density.

 Excited State   2:      Singlet-A      2.1454 eV  577.92 nm  f=0.0000  <S**2>=0.000
     155 ->157         0.66345
     156 ->158        -0.22663

 Excited State   3:      Singlet-A      3.0244 eV  409.95 nm  f=0.0000  <S**2>=0.000
     154 ->157         0.68764

 Excited State   4:      Singlet-A      3.3523 eV  369.84 nm  f=0.0000  <S**2>=0.000
     151 ->157         0.51761
     151 ->158         0.13017
     151 ->159         0.35183
     151 ->161        -0.12020
     152 ->157         0.17223
     152 ->159         0.10564

 Excited State   5:      Singlet-A      3.4951 eV  354.74 nm  f=0.0000  <S**2>=0.000
     153 ->157         0.60970
     153 ->159        -0.16706
     153 ->161        -0.21007

 The electronic state is 1-A.
 Alpha  occ. eigenvalues --  -46.89397 -19.26677 -19.19126 -19.19065 -19.18469
 Alpha  occ. eigenvalues --  -14.42918 -14.41841 -14.39779 -14.38041 -10.39254
 Alpha  occ. eigenvalues --  -10.35773 -10.34842 -10.32135 -10.32035 -10.31106
 Alpha  occ. eigenvalues --  -10.31032 -10.30798 -10.30644 -10.30113 -10.29781
 Alpha  occ. eigenvalues --  -10.29269 -10.28541 -10.28329 -10.28321 -10.28266
 Alpha  occ. eigenvalues --  -10.28234 -10.28188 -10.27898 -10.27881 -10.27806
 Alpha  occ. eigenvalues --  -10.27781 -10.27720 -10.27087 -10.26517 -10.26502
 Alpha  occ. eigenvalues --  -10.26495 -10.26488 -10.26162 -10.26142 -10.25683
 Alpha  occ. eigenvalues --  -10.25434 -10.24902 -10.24290  -3.17785  -1.92694
 Alpha  occ. eigenvalues --   -1.92210  -1.92099  -1.18113  -1.08812  -1.08387
 Alpha  occ. eigenvalues --   -1.05937  -1.05428  -1.04379  -1.03354  -1.02476
 Alpha  occ. eigenvalues --   -0.91872  -0.89616  -0.89301  -0.88422  -0.88003
 Alpha  occ. eigenvalues --   -0.87156  -0.85698  -0.84820  -0.83779  -0.82926
 Alpha  occ. eigenvalues --   -0.81875  -0.81353  -0.80687  -0.78899  -0.77602
 Alpha  occ. eigenvalues --   -0.77374  -0.76141  -0.75252  -0.72767  -0.71765
 Alpha  occ. eigenvalues --   -0.69927  -0.69198  -0.68368  -0.67701  -0.65548
 Alpha  occ. eigenvalues --   -0.65218  -0.64695  -0.64580  -0.62757  -0.61034
 Alpha  occ. eigenvalues --   -0.59795  -0.59265  -0.58550  -0.57628  -0.57245
 Alpha  occ. eigenvalues --   -0.56225  -0.56051  -0.55817  -0.55481  -0.55335
 Alpha  occ. eigenvalues --   -0.54413  -0.53291  -0.53156  -0.52944  -0.52553
 Alpha  occ. eigenvalues --   -0.51735  -0.51592  -0.50995  -0.50582  -0.50468
 Alpha  occ. eigenvalues --   -0.50129  -0.49542  -0.49125  -0.48872  -0.48597
 Alpha  occ. eigenvalues --   -0.48507  -0.48376  -0.48121  -0.47258  -0.47217
 Alpha  occ. eigenvalues --   -0.46782  -0.46512  -0.46401  -0.45978  -0.45872
 Alpha  occ. eigenvalues --   -0.45459  -0.45198  -0.44749  -0.44472  -0.44299
 Alpha  occ. eigenvalues --   -0.43878  -0.43742  -0.43435  -0.43223  -0.42894
 Alpha  occ. eigenvalues --   -0.42601  -0.42371  -0.42090  -0.41786  -0.41455
 Alpha  occ. eigenvalues --   -0.41253  -0.40883  -0.40516  -0.39627  -0.39268
 Alpha  occ. eigenvalues --   -0.38688  -0.37914  -0.37325  -0.36937  -0.36594
 Alpha  occ. eigenvalues --   -0.36315  -0.34097  -0.33968  -0.32922  -0.31967
 Alpha  occ. eigenvalues --   -0.31171  -0.30809  -0.30121  -0.28526  -0.24085
 Alpha  occ. eigenvalues --   -0.21789
 Alpha virt. eigenvalues --   -0.09390  -0.01306  -0.00046   0.01778   0.02485
 Alpha virt. eigenvalues --    0.04425   0.04639   0.05664   0.07119   0.07780
 Alpha virt. eigenvalues --    0.08150   0.08751   0.09444   0.09674   0.10127

 Mulliken charges:
               1
     1  Mg   0.796266
     2  C   -0.004146
     3  C   -0.100325
     4  C   -0.104278
     5  C   -0.091016
     6  N   -0.391838
     7  C    0.000106
     8  C    0.015144
     9  C   -0.032312
    10  C    0.109227
    11  C    0.094489
    12  C    0.067066
    13  C   -0.073202
    14  H    0.013713
    15  N   -0.303284
    16  C    0.081448
    17  C   -0.128988
    18  C   -0.028307
    19  C    0.102089
    20  C    0.095943
    21  C   -0.015373
    22  O   -0.240961
    23  C    0.052387
    24  N   -0.342798
    25  C    0.083541
    26  C   -0.094244
    27  C    0.028344
    28  C    0.092893
    29  C    0.060008
    30  C    0.034139
    31  C    0.004719
    32  N   -0.333777
    33  C    0.191766
    34  C   -0.154007
    35  C    0.003921
    36  C    0.111559
    37  C    0.124882
    38  C    0.073652
    39  O   -0.169663
    40  C   -0.059936
    41  C    0.197819
    42  O   -0.251539
    43  O   -0.299789
    44  C    0.166052
    45  H   -0.050241
    46  H   -0.002289
    47  H   -0.028266
    48  H    0.007556
    49  H    0.006394
    50  H    0.033265
    51  H    0.011441
    52  H    0.004429
    53  H   -0.001401
    54  H    0.022288
    55  H    0.025204
    56  H    0.040084
    57  H    0.004935
    58  H    0.024960
    59  H    0.031139
    60  H    0.022608
    61  H    0.017698
    62  H    0.042291
    63  H    0.018892
    64  H    0.005034
    65  H    0.022345
    66  H    0.011108
    67  H    0.017978
    68  H    0.005410
    69  H    0.005448
    70  H    0.037004
    71  H    0.019654
    72  H    0.011915
    73  H    0.014228
    74  H    0.022321
    75  H    0.033491
    76  H    0.052274
    77  H    0.035642
    78  H    0.061849
    79  H    0.031921
 Sum of Mulliken charges =  -0.00000

 Dipole moment (field-independent basis, Debye):
    X=              0.5713    Y=             -1.7347    Z=              3.7208  Tot=              4.1449
 Quadrupole moment (field-independent basis, Debye-Ang):
   XX=           -285.0130   YY=           -222.6733   ZZ=           -261.5721
   XY=            -31.1276   XZ=              1.0679   YZ=              3.8471

 Normal termination of Gaussian 16 at Fri Oct  8 18:28:14 2021.
