 Gaussian 16, Revision A.03,
 Gaussian 16:  ES64L-G16RevA.03 25-Dec-2016

 -----------------------------------
 #p cam-b3lyp/Def2SVP td=(nstates=5)
 -----------------------------------

 --------------------------------
 TDDFT excited states in gaussian
 --------------------------------
 Symbolic Z-matrix:
 Charge =  0 Multiplicity = 1

                         Standard orientation:
 ---------------------------------------------------------------------
 Center     Atomic      Atomic             Coordinates (Angstroms)
 Number     Number       Type             X           Y           Z
 ---------------------------------------------------------------------
      1         12           0      -21.991980    0.417273   -0.214575
      2          6           0      -18.335546    0.615219    0.024008
      3          6           0      -21.415202   -1.115700   -3.263674
      4          6           0      -24.965869   -0.714601   -0.003122
      5          6           0      -22.005877    1.642140    3.163483
      6          7           0      -19.970715   -0.310016   -1.414704
      7          6           0      -18.635497   -0.113056   -1.137825
      8          6           0      -17.765230   -0.842496   -2.225631
      9          6           0      -18.745898   -1.128435   -3.376169
     10          6           0      -20.118582   -0.839868   -2.657602
     11          6           0      -18.643842   -0.253873   -4.694354
     12          6           0      -17.005785   -2.102040   -1.684633
     13          6           0      -15.598546   -2.312191   -2.200699
     14          1           0      -15.412988   -3.390519   -3.313955
     15          7           0      -23.086499   -0.632641   -1.486195
     16          6           0      -22.746780   -1.091288   -2.729883
     17          6           0      -23.907630   -1.792336   -3.343683
     18          6           0      -24.934881   -1.690944   -2.369651
     19          6           0      -24.334054   -1.031146   -1.213099
     20          6           0      -23.939585   -2.530775   -4.691794
     21          6           0      -26.314578   -2.355441   -2.366459
     22          8           0      -26.639729   -2.978709   -3.373396
     23          6           0      -27.246091   -2.277256   -1.311300
     24          7           0      -23.218445    0.238651    1.506701
     25          6           0      -24.526875   -0.055938    1.178469
     26          6           0      -25.423305    0.224735    2.446122
     27          6           0      -24.388521    0.682259    3.535767
     28          6           0      -23.150582    0.963740    2.650794
     29          6           0      -26.587091    1.232454    2.238450
     30          6           0      -24.084138   -0.280807    4.753215
     31          6           0      -25.087075   -0.311579    5.919589
     32          7           0      -20.550226    1.073103    1.334991
     33          6           0      -20.740309    1.650215    2.574663
     34          6           0      -19.507280    2.156103    3.127410
     35          6           0      -18.524064    1.780243    2.137260
     36          6           0      -19.150653    1.063633    1.058609
     37          6           0      -19.392164    2.808699    4.470482
     38          6           0      -17.154114    1.782321    1.877372
     39          8           0      -16.201655    2.078672    2.586004
     40          6           0      -16.937236    0.933737    0.591067
     41          6           0      -16.187974    1.851769   -0.346268
     42          8           0      -15.166427    1.517982   -0.951756
     43          8           0      -16.837424    3.120094   -0.630139
     44          6           0      -16.263893    3.791999   -1.795098
     45          1           0      -21.267302   -1.535575   -4.260317
     46          1           0      -26.036310   -0.876513    0.139660
     47          1           0      -22.183409    2.070571    4.152023
     48          1           0      -17.092779   -0.110761   -2.675643
     49          1           0      -18.773984   -2.187861   -3.630957
     50          1           0      -18.200401   -0.922188   -5.432170
     51          1           0      -17.951717    0.577367   -4.562966
     52          1           0      -19.575821    0.198671   -5.032899
     53          1           0      -17.445672   -3.057084   -1.972983
     54          1           0      -16.908237   -2.048385   -0.600120
     55          1           0      -14.964860   -2.482855   -1.330383
     56          1           0      -15.270660   -1.373392   -2.648204
     57          1           0      -24.887272   -2.338125   -5.195366
     58          1           0      -23.776034   -3.573639   -4.420407
     59          1           0      -23.168768   -2.153766   -5.362583
     60          1           0      -27.582237   -1.242684   -1.235241
     61          1           0      -26.897829   -2.682357   -0.361140
     62          1           0      -27.992566   -2.998125   -1.646556
     63          1           0      -25.911608   -0.664593    2.843154
     64          1           0      -24.646770    1.659729    3.942431
     65          1           0      -26.417068    2.017903    2.974964
     66          1           0      -27.524549    0.718792    2.449293
     67          1           0      -26.475025    1.537132    1.197195
     68          1           0      -23.121350    0.076645    5.119869
     69          1           0      -24.062361   -1.321992    4.430737
     70          1           0      -25.779938    0.470516    5.607831
     71          1           0      -24.635520    0.063766    6.839021
     72          1           0      -25.613327   -1.248971    6.098110
     73          1           0      -19.784692    2.079079    5.177555
     74          1           0      -20.047772    3.670657    4.592899
     75          1           0      -18.358818    2.939746    4.791835
     76          1           0      -16.277591    0.110512    0.864746
     77          1           0      -17.161119    4.361168   -2.041205
     78          1           0      -15.833092    3.087426   -2.506465
     79          1           0      -15.539412    4.508220   -1.407271
     80         12           0       20.941106   -0.922549   -0.227762
     81          6           0       22.163090    2.312566   -0.684825
     82          6           0       17.836678    0.267467   -0.075229
     83          6           0       20.076247   -3.748469    1.490171
     84          6           0       24.212810   -2.113652   -0.343920
     85          7           0       20.074645    1.074434   -0.533912
     86          6           0       20.755887    2.198956   -0.717078
     87          6           0       19.744992    3.365451   -1.012254
     88          6           0       18.382408    2.702111   -0.699099
     89          6           0       18.760886    1.256853   -0.389461
     90          6           0       17.659917    3.280101    0.617134
     91          6           0       19.792726    3.947780   -2.497496
     92          6           0       19.680361    5.433522   -2.526683
     93          1           0       18.650557    6.089459   -3.433597
     94          7           0       19.185988   -1.634741    0.565669
     95          6           0       17.976643   -0.994162    0.507881
     96          6           0       16.922297   -1.949882    0.874615
     97          6           0       17.591315   -3.119821    1.330880
     98          6           0       19.026541   -2.828626    1.178784
     99          6           0       15.401973   -1.591479    0.860490
    100          6           0       16.979089   -4.415392    1.943642
    101          8           0       17.638300   -5.382867    2.307352
    102          6           0       15.504668   -4.493960    2.070786
    103          7           0       21.950755   -2.614504    0.484365
    104          6           0       21.418822   -3.662157    1.242123
    105          6           0       22.568732   -4.570502    1.750588
    106          6           0       23.694122   -4.369576    0.643359
    107          6           0       23.228382   -2.942333    0.238171
    108          6           0       22.983062   -4.270838    3.207255
    109          6           0       23.675772   -5.304133   -0.532759
    110          6           0       22.703481   -5.113347   -1.658755
    111          7           0       22.818424   -0.177095   -0.658584
    112          6           0       24.068905   -0.750119   -0.634355
    113          6           0       25.121055    0.214662   -0.962268
    114          6           0       24.425172    1.504727   -0.896174
    115          6           0       23.028056    1.175256   -0.696669
    116          6           0       26.536328   -0.050565   -1.044119
    117          6           0       24.577921    2.953556   -0.949793
    118          8           0       25.520097    3.650040   -1.019403
    119          6           0       23.069587    3.532880   -0.891108
    120          6           0       22.873276    4.656378    0.095183
    121          8           0       22.512348    4.520815    1.260528
    122          8           0       23.075217    5.867363   -0.566169
    123          6           0       22.900513    7.107126    0.212013
    124          1           0       16.761895    0.436142   -0.173038
    125          1           0       19.730679   -4.617123    2.055179
    126          1           0       25.198172   -2.568455   -0.461992
    127          1           0       19.857386    4.193740   -0.312233
    128          1           0       17.617510    2.780821   -1.471630
    129          1           0       16.999675    4.081784    0.285622
    130          1           0       18.322042    3.747292    1.345667
    131          1           0       17.063018    2.476314    1.049699
    132          1           0       18.983492    3.552698   -3.111848
    133          1           0       20.676921    3.683651   -3.077786
    134          1           0       20.636721    5.742225   -2.947911
    135          1           0       19.576600    5.957122   -1.576740
    136          1           0       15.182522   -1.204985    1.855366
    137          1           0       14.790281   -2.445150    0.567639
    138          1           0       15.162559   -0.692606    0.291331
    139          1           0       14.911597   -3.638335    2.393318
    140          1           0       15.239150   -5.297105    2.757768
    141          1           0       15.094314   -4.967223    1.178290
    142          1           0       22.154858   -5.574217    1.658166
    143          1           0       24.699079   -4.400905    1.063910
    144          1           0       24.039241   -4.066046    3.382422
    145          1           0       22.567077   -4.970325    3.932706
    146          1           0       22.502213   -3.353612    3.546768
    147          1           0       23.527539   -6.350938   -0.270332
    148          1           0       24.665808   -5.278832   -0.988276
    149          1           0       23.294900   -4.548160   -2.378872
    150          1           0       21.823837   -4.510430   -1.432262
    151          1           0       22.414522   -6.088233   -2.052765
    152          1           0       26.911567    0.594111   -1.839115
    153          1           0       26.649753   -1.091737   -1.345086
    154          1           0       27.021435    0.199059   -0.100993
    155          1           0       22.846836    3.934135   -1.879793
    156          1           0       23.523271    7.012350    1.101968
    157          1           0       21.868942    7.212929    0.546793
    158          1           0       23.128266    8.068673   -0.248345
 ---------------------------------------------------------------------

 SCF Done:  E(RCAM-B3LYP) =  -4069.76696695     A.U. after   17 cycles

 Excitation energies and oscillator strengths:

 Excited State   1:      Singlet-A      1.6811 eV  737.54 nm  f=0.3856  <S**2>=0.000
     310 -> 316       -0.17702
     312 -> 314        0.68648
     310 <- 316       -0.10856
 This state for optimization and/or second-order correction.
 Total Energy, E(TD-HF/TD-DFT) =  -4069.70518941
 Copying the excited state density for this state as the 1-particle RhoCI density.

 Excited State   2:      Singlet-A      1.7224 eV  719.83 nm  f=0.3487  <S**2>=0.000
     309 -> 315        0.19687
     311 -> 313        0.67931
     309 <- 315        0.11035

 Excited State   3:      Singlet-A      2.2417 eV  553.08 nm  f=0.0694  <S**2>=0.000
     309 -> 313        0.61607
     311 -> 315       -0.33057

 Excited State   4:      Singlet-A      2.2560 eV  549.59 nm  f=0.1049  <S**2>=0.000
     310 -> 314        0.63271
     312 -> 316        0.30598

 Excited State   5:      Singlet-A      3.0232 eV  410.11 nm  f=0.0000  <S**2>=0.000
     312 -> 313        0.70710

 The electronic state is 1-A.
 Alpha  occ. eigenvalues --  -46.90794 -46.87885 -19.24987 -19.23750 -19.20123
 Alpha  occ. eigenvalues --  -19.20066 -19.19653 -19.19145 -19.18819 -19.17900
 Alpha  occ. eigenvalues --  -14.42747 -14.42158 -14.42047 -14.41388 -14.40842
 Alpha  occ. eigenvalues --  -14.39250 -14.39190 -14.39171 -10.39658 -10.39424
 Alpha  occ. eigenvalues --  -10.35609 -10.35488 -10.34963 -10.33540 -10.32342
 Alpha  occ. eigenvalues --  -10.31917 -10.31767 -10.31620 -10.31559 -10.31398
 Alpha  occ. eigenvalues --  -10.31297 -10.31041 -10.30816 -10.30556 -10.30552
 Alpha  occ. eigenvalues --  -10.29969 -10.29850 -10.29714 -10.29686 -10.29441
 Alpha  occ. eigenvalues --  -10.29427 -10.29353 -10.29270 -10.28948 -10.28946
 Alpha  occ. eigenvalues --  -10.28868 -10.28744 -10.28629 -10.28558 -10.28432
 Alpha  occ. eigenvalues --  -10.28359 -10.28358 -10.28346 -10.28262 -10.28255
 Alpha  occ. eigenvalues --  -10.28247 -10.28183 -10.28092 -10.27872 -10.27634
 Alpha  occ. eigenvalues --  -10.27528 -10.27496 -10.27493 -10.27372 -10.27043
 Alpha  occ. eigenvalues --  -10.27013 -10.26883 -10.26878 -10.26854 -10.26839
 Alpha  occ. eigenvalues --  -10.26687 -10.26674 -10.26669 -10.26267 -10.26214
 Alpha  occ. eigenvalues --  -10.26087 -10.26054 -10.26018 -10.25892 -10.25872
 Alpha  occ. eigenvalues --  -10.25770 -10.25537 -10.25507 -10.25341 -10.25267
 Alpha  occ. eigenvalues --  -10.24518  -3.19204  -3.16587  -1.94049  -1.93712
 Alpha  occ. eigenvalues --   -1.93469  -1.91491  -1.91019  -1.90915  -1.15122
 Alpha  occ. eigenvalues --   -1.13980  -1.12912  -1.10488  -1.10121  -1.09015
 Alpha  occ. eigenvalues --   -1.07419  -1.06383  -1.05145  -1.05064  -1.03545
 Alpha  occ. eigenvalues --   -1.03400  -1.03375  -1.02834  -1.02102  -1.01116
 Alpha  occ. eigenvalues --   -0.92922  -0.91835  -0.89039  -0.88999  -0.88977
 Alpha  occ. eigenvalues --   -0.88596  -0.88541  -0.87985  -0.87149  -0.87026
 Alpha  occ. eigenvalues --   -0.86962  -0.86864  -0.86268  -0.85965  -0.85055
 Alpha  occ. eigenvalues --   -0.84143  -0.83903  -0.83730  -0.83563  -0.82567
 Alpha  occ. eigenvalues --   -0.82507  -0.81826  -0.81188  -0.80964  -0.80330
 Alpha  occ. eigenvalues --   -0.79917  -0.78290  -0.78208  -0.77392  -0.77238
 Alpha  occ. eigenvalues --   -0.77079  -0.76697  -0.75866  -0.75814  -0.75308
 Alpha  occ. eigenvalues --   -0.74828  -0.72875  -0.72212  -0.71960  -0.71434
 Alpha  occ. eigenvalues --   -0.69194  -0.69177  -0.68633  -0.68462  -0.67751
 Alpha  occ. eigenvalues --   -0.67716  -0.67050  -0.66722  -0.65671  -0.65608
 Alpha  occ. eigenvalues --   -0.65412  -0.65085  -0.64580  -0.64204  -0.64064
 Alpha  occ. eigenvalues --   -0.64063  -0.61944  -0.61769  -0.60419  -0.60111
 Alpha  occ. eigenvalues --   -0.59848  -0.59558  -0.59306  -0.58956  -0.58840
 Alpha  occ. eigenvalues --   -0.58068  -0.57732  -0.57200  -0.57197  -0.57034
 Alpha  occ. eigenvalues --   -0.56801  -0.55770  -0.55643  -0.55489  -0.55313
 Alpha  occ. eigenvalues --   -0.54823  -0.54804  -0.54367  -0.54065  -0.53979
 Alpha  occ. eigenvalues --   -0.53820  -0.53587  -0.53535  -0.53343  -0.53336
 Alpha  occ. eigenvalues --   -0.52933  -0.52927  -0.52522  -0.52475  -0.52131
 Alpha  occ. eigenvalues --   -0.52029  -0.51780  -0.51736  -0.51588  -0.51475
 Alpha  occ. eigenvalues --   -0.51347  -0.51204  -0.51058  -0.50655  -0.50367
 Alpha  occ. eigenvalues --   -0.50140  -0.50035  -0.49927  -0.49897  -0.49582
 Alpha  occ. eigenvalues --   -0.49552  -0.49487  -0.49161  -0.49115  -0.48991
 Alpha  occ. eigenvalues --   -0.48675  -0.48568  -0.48426  -0.48282  -0.48198
 Alpha  occ. eigenvalues --   -0.47998  -0.47956  -0.47775  -0.47764  -0.47312
 Alpha  occ. eigenvalues --   -0.46927  -0.46770  -0.46759  -0.46564  -0.46558
 Alpha  occ. eigenvalues --   -0.46242  -0.46181  -0.46062  -0.45939  -0.45713
 Alpha  occ. eigenvalues --   -0.45470  -0.45404  -0.45162  -0.45005  -0.44915
 Alpha  occ. eigenvalues --   -0.44723  -0.44600  -0.44511  -0.44369  -0.44355
 Alpha  occ. eigenvalues --   -0.44151  -0.44130  -0.43839  -0.43694  -0.43628
 Alpha  occ. eigenvalues --   -0.43289  -0.43226  -0.43215  -0.42765  -0.42628
 Alpha  occ. eigenvalues --   -0.42597  -0.42488  -0.42344  -0.42097  -0.41971
 Alpha  occ. eigenvalues --   -0.41846  -0.41541  -0.41527  -0.41495  -0.41385
 Alpha  occ. eigenvalues --   -0.41327  -0.41152  -0.40465  -0.40300  -0.40251
 Alpha  occ. eigenvalues --   -0.40199  -0.39995  -0.39346  -0.39098  -0.38893
 Alpha  occ. eigenvalues --   -0.38627  -0.38033  -0.37897  -0.37643  -0.37560
 Alpha  occ. eigenvalues --   -0.37203  -0.36943  -0.36555  -0.36497  -0.36375
 Alpha  occ. eigenvalues --   -0.35877  -0.35404  -0.34516  -0.34429  -0.34249
 Alpha  occ. eigenvalues --   -0.33894  -0.33233  -0.32773  -0.31783  -0.31433
 Alpha  occ. eigenvalues --   -0.31370  -0.31186  -0.31074  -0.30979  -0.30191
 Alpha  occ. eigenvalues --   -0.29989  -0.29522  -0.28776  -0.24502  -0.23950
 Alpha  occ. eigenvalues --   -0.21491  -0.20744
 Alpha virt. eigenvalues --   -0.08822  -0.08430  -0.02735  -0.01346  -0.00398
 Alpha virt. eigenvalues --    0.00438   0.00549   0.02136   0.02454   0.02823
 Alpha virt. eigenvalues --    0.04345   0.04597   0.04782   0.05443   0.05616

 Mulliken charges:
               1
     1  Mg   0.834490
     2  C   -0.008404
     3  C   -0.051079
     4  C   -0.074866
     5  C   -0.087911
     6  N   -0.224649
     7  C   -0.070888
     8  C    0.059342
     9  C   -0.071641
    10  C   -0.036570
    11  C    0.062126
    12  C    0.059736
    13  C   -0.072166
    14  H    0.007714
    15  N   -0.409470
    16  C    0.147856
    17  C   -0.174490
    18  C   -0.015314
    19  C    0.192159
    20  C    0.144598
    21  C   -0.033275
    22  O   -0.215687
    23  C    0.089236
    24  N   -0.319248
    25  C    0.023096
    26  C   -0.073004
    27  C   -0.047454
    28  C    0.019186
    29  C    0.084295
    30  C    0.042792
    31  C    0.012939
    32  N   -0.344581
    33  C    0.143230
    34  C   -0.151057
    35  C    0.030882
    36  C    0.129288
    37  C    0.139481
    38  C   -0.006523
    39  O   -0.179853
    40  C   -0.020511
    41  C    0.217693
    42  O   -0.226443
    43  O   -0.389985
    44  C    0.179639
    45  H   -0.026341
    46  H   -0.046898
    47  H   -0.027780
    48  H    0.012200
    49  H    0.017816
    50  H    0.026276
    51  H    0.015268
    52  H    0.028903
    53  H    0.025186
    54  H    0.019054
    55  H    0.034352
    56  H    0.030228
    57  H    0.044835
    58  H    0.045441
    59  H    0.008972
    60  H    0.054032
    61  H    0.041942
    62  H    0.028098
    63  H    0.008484
    64  H   -0.003888
    65  H    0.016896
    66  H    0.020095
    67  H    0.021284
    68  H    0.004880
    69  H    0.011216
    70  H   -0.004495
    71  H    0.017495
    72  H    0.028244
    73  H    0.012476
    74  H    0.025053
    75  H    0.037620
    76  H    0.040501
    77  H    0.031550
    78  H    0.052750
    79  H    0.033542
    80  Mg   0.845289
    81  C    0.027414
    82  C   -0.076818
    83  C   -0.074891
    84  C   -0.103166
    85  N   -0.243938
    86  C   -0.032167
    87  C    0.000733
    88  C   -0.076751
    89  C    0.082373
    90  C    0.038834
    91  C    0.070159
    92  C   -0.093391
    93  H    0.009723
    94  N   -0.370826
    95  C    0.094400
    96  C   -0.139741
    97  C   -0.061983
    98  C    0.101700
    99  C    0.093641
   100  C    0.039051
   101  O   -0.200722
   102  C    0.041839
   103  N   -0.293949
   104  C    0.034466
   105  C    0.001859
   106  C   -0.010254
   107  C    0.025393
   108  C    0.092682
   109  C    0.017576
   110  C    0.022137
   111  N   -0.363035
   112  C    0.153961
   113  C   -0.162577
   114  C   -0.040007
   115  C    0.088713
   116  C    0.123009
   117  C    0.056355
   118  O   -0.102432
   119  C   -0.071453
   120  C    0.218767
   121  O   -0.220130
   122  O   -0.352133
   123  C    0.187115
   124  H   -0.036661
   125  H   -0.006448
   126  H   -0.034668
   127  H    0.020339
   128  H    0.017670
   129  H    0.008673
   130  H    0.029590
   131  H    0.017153
   132  H    0.013840
   133  H    0.012961
   134  H    0.031475
   135  H    0.030134
   136  H    0.034994
   137  H    0.042317
   138  H    0.009234
   139  H    0.038198
   140  H    0.012104
   141  H    0.038816
   142  H   -0.003750
   143  H   -0.004026
   144  H    0.017211
   145  H    0.021804
   146  H    0.010567
   147  H    0.001259
   148  H   -0.002107
   149  H    0.005360
   150  H    0.031897
   151  H    0.016174
   152  H    0.033306
   153  H    0.015275
   154  H    0.051171
   155  H    0.046709
   156  H    0.036652
   157  H    0.023083
   158  H    0.042871
 Sum of Mulliken charges =  -0.00000

 Dipole moment (field-independent basis, Debye):
    X=             -8.4515    Y=              0.4687    Z=             -2.1184  Tot=              8.7256
 Quadrupole moment (field-independent basis, Debye-Ang):
   XX=           -427.3608   YY=           -510.9915   ZZ=           -507.1599
   XY=            -56.7428   XZ=            -63.1057   YZ=             -4.9683

 Normal termination of Gaussian 16 at Thu Sep  2 12:40:31 2021.
