 Gaussian 16, Revision A.03,
 Gaussian 16:  ES64L-G16RevA.03 25-Dec-2016

 -----------------------------------
 #p cam-b3lyp/Def2SVP td=(nstates=5)
 -----------------------------------

 --------------------------------
 TDDFT excited states in gaussian
 --------------------------------
 Symbolic Z-matrix:
 Charge =  0 Multiplicity = 1

                         Standard orientation:
 ---------------------------------------------------------------------
 Center     Atomic      Atomic             Coordinates (Angstroms)
 Number     Number       Type             X           Y           Z
 ---------------------------------------------------------------------
      1         12           0      -26.204528    0.648662   -0.050117
      2          6           0      -24.308233   -1.716796    1.591416
      3          6           0      -26.776997   -1.849088   -2.552399
      4          6           0      -27.740799    2.875346   -1.876293
      5          6           0      -25.295229    3.053136    2.264378
      6          7           0      -25.395602   -1.519819   -0.505972
      7          6           0      -24.846871   -2.281633    0.425388
      8          6           0      -25.000487   -3.788536    0.074333
      9          6           0      -25.268648   -3.676440   -1.467248
     10          6           0      -25.863667   -2.263488   -1.577409
     11          6           0      -23.958347   -3.841386   -2.316447
     12          6           0      -26.207985   -4.297741    0.892544
     13          6           0      -26.485664   -5.806158    0.837751
     14          1           0      -25.766591   -6.677510   -0.172440
     15          7           0      -27.226700    0.595207   -1.859600
     16          6           0      -27.368810   -0.554053   -2.711040
     17          6           0      -28.321877   -0.170634   -3.743563
     18          6           0      -28.693444    1.185371   -3.482914
     19          6           0      -27.852032    1.644175   -2.378581
     20          6           0      -28.855016   -1.127799   -4.873953
     21          6           0      -29.801738    2.015984   -4.210457
     22          8           0      -29.899246    3.182282   -3.943134
     23          6           0      -30.681692    1.376645   -5.234996
     24          7           0      -26.558194    2.683423    0.217288
     25          6           0      -27.237345    3.425817   -0.685961
     26          6           0      -27.294664    4.910025   -0.326334
     27          6           0      -26.628004    4.925282    1.068791
     28          6           0      -26.116592    3.432968    1.197187
     29          6           0      -26.604674    5.885720   -1.349020
     30          6           0      -27.436796    5.470909    2.217923
     31          6           0      -28.904136    5.035189    2.447340
     32          7           0      -25.043615    0.751858    1.597212
     33          6           0      -24.761679    1.775184    2.456285
     34          6           0      -23.990270    1.216259    3.546414
     35          6           0      -23.785573   -0.185383    3.302641
     36          6           0      -24.456666   -0.396166    2.067040
     37          6           0      -23.494584    2.010022    4.714690
     38          6           0      -23.160773   -1.389073    3.737908
     39          8           0      -22.435461   -1.665592    4.718105
     40          6           0      -23.285158   -2.358048    2.439562
     41          6           0      -23.526848   -3.770310    2.975001
     42          8           0      -24.370359   -4.079724    3.726679
     43          8           0      -22.561674   -4.586490    2.457400
     44          6           0      -22.776823   -6.017593    2.518138
     45          1           0      -26.891492   -2.594050   -3.341999
     46          1           0      -28.197456    3.670056   -2.469916
     47          1           0      -24.957998    3.766636    3.018133
     48          1           0      -24.073909   -4.343258    0.221381
     49          1           0      -26.015453   -4.449582   -1.649499
     50          1           0      -23.946454   -4.830202   -2.773271
     51          1           0      -23.108973   -3.696242   -1.648639
     52          1           0      -23.894245   -3.149530   -3.156332
     53          1           0      -27.100686   -3.835751    0.471737
     54          1           0      -26.198877   -3.920528    1.914693
     55          1           0      -27.542596   -6.051838    0.943284
     56          1           0      -26.175219   -6.168158    1.818074
     57          1           0      -28.770512   -0.684865   -5.866752
     58          1           0      -29.880620   -1.366753   -4.593099
     59          1           0      -28.327689   -2.081051   -4.821086
     60          1           0      -31.588044    1.977140   -5.154207
     61          1           0      -30.987535    0.368719   -4.956900
     62          1           0      -30.294910    1.133195   -6.224520
     63          1           0      -28.357691    5.142745   -0.267894
     64          1           0      -25.679313    5.461829    1.081116
     65          1           0      -26.173303    6.682837   -0.744110
     66          1           0      -27.452301    6.240357   -1.935787
     67          1           0      -25.932940    5.335146   -2.007537
     68          1           0      -27.587405    6.492483    1.870537
     69          1           0      -26.980668    5.457951    3.208380
     70          1           0      -29.682199    5.795560    2.394429
     71          1           0      -29.061997    4.695677    3.470989
     72          1           0      -29.170117    4.275144    1.712561
     73          1           0      -22.905848    1.313604    5.311080
     74          1           0      -24.334803    2.325150    5.334875
     75          1           0      -22.991724    2.943776    4.464751
     76          1           0      -22.343102   -2.228489    1.906389
     77          1           0      -21.810539   -6.167249    3.000012
     78          1           0      -22.984814   -6.472923    1.549651
     79          1           0      -23.558414   -6.327074    3.212484
     80         12           0       26.407877    0.628923   -0.089069
     81          6           0       24.357305   -1.822053   -1.575705
     82          6           0       27.905063   -1.939800    1.672954
     83          6           0       28.381760    2.901994    1.520752
     84          6           0       24.643101    3.049233   -1.604634
     85          7           0       26.176740   -1.657165    0.007026
     86          6           0       25.372942   -2.468949   -0.784250
     87          6           0       25.769052   -3.922995   -0.624215
     88          6           0       26.645738   -3.924739    0.680610
     89          6           0       26.930766   -2.442620    0.774523
     90          6           0       25.977993   -4.576725    1.954299
     91          6           0       26.592114   -4.459801   -1.804710
     92          6           0       26.313763   -5.915993   -2.192517
     93          1           0       26.760912   -7.040952   -1.218044
     94          7           0       27.983628    0.505406    1.314994
     95          6           0       28.369891   -0.649916    1.903657
     96          6           0       29.348191   -0.348566    2.897647
     97          6           0       29.662554    1.052528    2.825910
     98          6           0       28.640343    1.538950    1.916209
     99          6           0       29.939391   -1.408163    3.785522
    100          6           0       30.663907    1.914336    3.595195
    101          8           0       30.903649    3.096847    3.265437
    102          6           0       31.373362    1.424099    4.852337
    103          7           0       26.554024    2.651468   -0.120136
    104          6           0       27.396159    3.419427    0.678394
    105          6           0       27.099066    4.865686    0.448410
    106          6           0       25.943495    4.999302   -0.607556
    107          6           0       25.697019    3.501933   -0.853165
    108          6           0       26.917975    5.707920    1.747008
    109          6           0       26.310389    5.750590   -1.905674
    110          6           0       25.905141    7.237204   -1.891232
    111          7           0       24.828126    0.679729   -1.277663
    112          6           0       24.195916    1.744282   -1.918564
    113          6           0       23.100805    1.292095   -2.854536
    114          6           0       23.158462   -0.100028   -2.679017
    115          6           0       24.226129   -0.426304   -1.782316
    116          6           0       22.216460    2.174593   -3.716465
    117          6           0       22.516013   -1.325450   -3.129540
    118          8           0       21.560473   -1.506100   -3.885422
    119          6           0       23.382994   -2.495825   -2.497897
    120          6           0       22.366496   -3.420619   -1.799847
    121          8           0       21.396527   -3.072890   -1.158423
    122          8           0       22.642639   -4.737281   -2.163411
    123          6           0       21.725459   -5.701802   -1.556020
    124          1           0       28.409280   -2.781089    2.152610
    125          1           0       28.960528    3.711642    1.969639
    126          1           0       24.047078    3.892956   -1.957690
    127          1           0       24.935246   -4.605567   -0.461861
    128          1           0       27.581508   -4.477828    0.599373
    129          1           0       25.016069   -5.061423    1.784890
    130          1           0       25.753202   -3.906941    2.783990
    131          1           0       26.599760   -5.382107    2.345317
    132          1           0       27.661595   -4.373481   -1.614107
    133          1           0       26.370129   -3.901833   -2.714597
    134          1           0       26.694802   -6.152309   -3.185931
    135          1           0       25.248668   -6.086549   -2.347931
    136          1           0       29.045934   -1.921169    4.141730
    137          1           0       30.477899   -1.082381    4.675335
    138          1           0       30.567617   -2.136407    3.273103
    139          1           0       30.660657    1.001125    5.560516
    140          1           0       31.842182    2.338339    5.216015
    141          1           0       32.091942    0.638984    4.617124
    142          1           0       28.030039    5.322837    0.111768
    143          1           0       25.008846    5.409243   -0.222662
    144          1           0       26.985323    5.026330    2.595225
    145          1           0       25.923595    6.153508    1.740252
    146          1           0       27.751180    6.411016    1.721618
    147          1           0       25.919044    5.166517   -2.738330
    148          1           0       27.392247    5.825743   -2.017538
    149          1           0       25.827407    7.588173   -0.862027
    150          1           0       24.923203    7.479932   -2.297836
    151          1           0       26.704292    7.806593   -2.366768
    152          1           0       22.835519    2.551867   -4.530615
    153          1           0       21.797007    3.049631   -3.220403
    154          1           0       21.431288    1.520979   -4.096126
    155          1           0       23.967778   -3.084445   -3.204509
    156          1           0       22.042478   -6.086903   -0.586378
    157          1           0       21.652435   -6.492784   -2.302291
    158          1           0       20.705765   -5.393578   -1.325161
 ---------------------------------------------------------------------

 SCF Done:  E(RCAM-B3LYP) =  -4069.83662737     A.U. after   18 cycles

 Excitation energies and oscillator strengths:

 Excited State   1:      Singlet-A      1.7014 eV  728.70 nm  f=0.3768  <S**2>=0.000
     309 -> 316        0.18653
     312 -> 313        0.68387
     309 <- 316        0.10956
 This state for optimization and/or second-order correction.
 Total Energy, E(TD-HF/TD-DFT) =  -4069.77410083
 Copying the excited state density for this state as the 1-particle RhoCI density.

 Excited State   2:      Singlet-A      1.7338 eV  715.10 nm  f=0.3738  <S**2>=0.000
     310 -> 315       -0.19609
     311 -> 314        0.68090
     310 <- 315       -0.11067

 Excited State   3:      Singlet-A      2.2193 eV  558.65 nm  f=0.0911  <S**2>=0.000
     310 -> 314        0.63499
     311 -> 315        0.29926

 Excited State   4:      Singlet-A      2.2323 eV  555.40 nm  f=0.0999  <S**2>=0.000
     309 -> 313        0.63578
     312 -> 316       -0.29947

 Excited State   5:      Singlet-A      3.2294 eV  383.92 nm  f=0.0000  <S**2>=0.000
     311 -> 313        0.70710

 The electronic state is 1-A.
 Alpha  occ. eigenvalues --  -46.88255 -46.87638 -19.25752 -19.24372 -19.20400
 Alpha  occ. eigenvalues --  -19.20248 -19.19196 -19.19086 -19.19083 -19.19003
 Alpha  occ. eigenvalues --  -14.42664 -14.41720 -14.41717 -14.41266 -14.39884
 Alpha  occ. eigenvalues --  -14.39471 -14.39292 -14.39261 -10.39674 -10.38902
 Alpha  occ. eigenvalues --  -10.35836 -10.35262 -10.35069 -10.35044 -10.31467
 Alpha  occ. eigenvalues --  -10.31449 -10.31428 -10.30864 -10.30734 -10.30717
 Alpha  occ. eigenvalues --  -10.30698 -10.30606 -10.30578 -10.30414 -10.30315
 Alpha  occ. eigenvalues --  -10.30270 -10.30266 -10.29611 -10.29574 -10.29300
 Alpha  occ. eigenvalues --  -10.29210 -10.29095 -10.28994 -10.28759 -10.28733
 Alpha  occ. eigenvalues --  -10.28728 -10.28702 -10.28618 -10.28586 -10.28549
 Alpha  occ. eigenvalues --  -10.28444 -10.28368 -10.28062 -10.27845 -10.27787
 Alpha  occ. eigenvalues --  -10.27769 -10.27683 -10.27641 -10.27608 -10.27569
 Alpha  occ. eigenvalues --  -10.27569 -10.27536 -10.27362 -10.27192 -10.27056
 Alpha  occ. eigenvalues --  -10.27035 -10.26728 -10.26591 -10.26545 -10.26453
 Alpha  occ. eigenvalues --  -10.26451 -10.26414 -10.26394 -10.26326 -10.26263
 Alpha  occ. eigenvalues --  -10.26251 -10.26195 -10.25998 -10.25979 -10.25778
 Alpha  occ. eigenvalues --  -10.25731 -10.25683 -10.25651 -10.25551 -10.25259
 Alpha  occ. eigenvalues --  -10.24933  -3.16892  -3.16421  -1.91792  -1.91364
 Alpha  occ. eigenvalues --   -1.91319  -1.91182  -1.90852  -1.90765  -1.17598
 Alpha  occ. eigenvalues --   -1.16291  -1.11511  -1.09786  -1.09222  -1.08919
 Alpha  occ. eigenvalues --   -1.08164  -1.07995  -1.05223  -1.04705  -1.04067
 Alpha  occ. eigenvalues --   -1.03657  -1.03064  -1.03039  -1.02063  -1.01447
 Alpha  occ. eigenvalues --   -0.93007  -0.92564  -0.89425  -0.89367  -0.89011
 Alpha  occ. eigenvalues --   -0.88656  -0.88525  -0.88287  -0.87474  -0.87295
 Alpha  occ. eigenvalues --   -0.87005  -0.86421  -0.86137  -0.85668  -0.84406
 Alpha  occ. eigenvalues --   -0.84054  -0.83723  -0.83539  -0.82417  -0.82291
 Alpha  occ. eigenvalues --   -0.81752  -0.81720  -0.81412  -0.80978  -0.80268
 Alpha  occ. eigenvalues --   -0.80076  -0.78446  -0.77983  -0.77458  -0.77348
 Alpha  occ. eigenvalues --   -0.77279  -0.76809  -0.76144  -0.75860  -0.75500
 Alpha  occ. eigenvalues --   -0.75050  -0.72673  -0.72672  -0.71994  -0.71654
 Alpha  occ. eigenvalues --   -0.70260  -0.69376  -0.68871  -0.68808  -0.68178
 Alpha  occ. eigenvalues --   -0.68095  -0.67308  -0.66191  -0.65779  -0.65496
 Alpha  occ. eigenvalues --   -0.65177  -0.64911  -0.64483  -0.64287  -0.64155
 Alpha  occ. eigenvalues --   -0.64143  -0.62568  -0.62360  -0.60496  -0.60365
 Alpha  occ. eigenvalues --   -0.60144  -0.59639  -0.59151  -0.58927  -0.58811
 Alpha  occ. eigenvalues --   -0.58491  -0.58133  -0.57908  -0.57741  -0.57491
 Alpha  occ. eigenvalues --   -0.56213  -0.56127  -0.56013  -0.55641  -0.55443
 Alpha  occ. eigenvalues --   -0.55340  -0.55106  -0.54684  -0.54216  -0.53796
 Alpha  occ. eigenvalues --   -0.53626  -0.53509  -0.53488  -0.53128  -0.52954
 Alpha  occ. eigenvalues --   -0.52871  -0.52559  -0.52381  -0.52297  -0.52143
 Alpha  occ. eigenvalues --   -0.52074  -0.51847  -0.51799  -0.51743  -0.51216
 Alpha  occ. eigenvalues --   -0.50752  -0.50708  -0.50477  -0.50208  -0.50138
 Alpha  occ. eigenvalues --   -0.50035  -0.49977  -0.49788  -0.49682  -0.49551
 Alpha  occ. eigenvalues --   -0.49360  -0.49315  -0.49301  -0.49062  -0.48895
 Alpha  occ. eigenvalues --   -0.48764  -0.48487  -0.48234  -0.48223  -0.48130
 Alpha  occ. eigenvalues --   -0.48078  -0.47966  -0.47628  -0.47612  -0.47394
 Alpha  occ. eigenvalues --   -0.46846  -0.46839  -0.46653  -0.46613  -0.46535
 Alpha  occ. eigenvalues --   -0.46519  -0.46268  -0.45949  -0.45897  -0.45826
 Alpha  occ. eigenvalues --   -0.45575  -0.45508  -0.45197  -0.45001  -0.44914
 Alpha  occ. eigenvalues --   -0.44731  -0.44617  -0.44524  -0.44347  -0.44336
 Alpha  occ. eigenvalues --   -0.43849  -0.43582  -0.43489  -0.43349  -0.43253
 Alpha  occ. eigenvalues --   -0.43179  -0.43006  -0.42970  -0.42849  -0.42685
 Alpha  occ. eigenvalues --   -0.42677  -0.42350  -0.42296  -0.42077  -0.41980
 Alpha  occ. eigenvalues --   -0.41930  -0.41869  -0.41743  -0.41601  -0.41560
 Alpha  occ. eigenvalues --   -0.41421  -0.41222  -0.41044  -0.40981  -0.40441
 Alpha  occ. eigenvalues --   -0.40236  -0.40213  -0.39682  -0.39543  -0.39433
 Alpha  occ. eigenvalues --   -0.38702  -0.38390  -0.38304  -0.37942  -0.37926
 Alpha  occ. eigenvalues --   -0.37500  -0.37257  -0.37120  -0.36866  -0.36629
 Alpha  occ. eigenvalues --   -0.36377  -0.35841  -0.35150  -0.35124  -0.34946
 Alpha  occ. eigenvalues --   -0.33950  -0.33334  -0.32846  -0.31571  -0.31512
 Alpha  occ. eigenvalues --   -0.31001  -0.30967  -0.30933  -0.30548  -0.30408
 Alpha  occ. eigenvalues --   -0.29990  -0.29811  -0.29352  -0.23943  -0.23799
 Alpha  occ. eigenvalues --   -0.21085  -0.21069
 Alpha virt. eigenvalues --   -0.08565  -0.08425  -0.01877  -0.01773   0.00005
 Alpha virt. eigenvalues --    0.00200   0.01755   0.02621   0.03036   0.03746
 Alpha virt. eigenvalues --    0.04763   0.05037   0.05348   0.05613   0.05864

 Mulliken charges:
               1
     1  Mg   0.826080
     2  C   -0.012357
     3  C   -0.069438
     4  C   -0.074862
     5  C   -0.110756
     6  N   -0.226806
     7  C   -0.083307
     8  C   -0.038272
     9  C   -0.040675
    10  C    0.001559
    11  C    0.086683
    12  C    0.038263
    13  C   -0.033807
    14  H    0.030055
    15  N   -0.395509
    16  C    0.163778
    17  C   -0.170989
    18  C   -0.041657
    19  C    0.168856
    20  C    0.109758
    21  C    0.017413
    22  O   -0.181338
    23  C    0.052854
    24  N   -0.266003
    25  C   -0.012139
    26  C   -0.046950
    27  C   -0.006089
    28  C    0.066923
    29  C    0.084008
    30  C    0.038662
    31  C   -0.018423
    32  N   -0.393967
    33  C    0.127050
    34  C   -0.170480
    35  C    0.015073
    36  C    0.149487
    37  C    0.114107
    38  C    0.076161
    39  O   -0.199744
    40  C   -0.076659
    41  C    0.177526
    42  O   -0.154525
    43  O   -0.338130
    44  C    0.149817
    45  H   -0.021741
    46  H   -0.018198
    47  H   -0.032790
    48  H   -0.002262
    49  H   -0.002017
    50  H    0.017270
    51  H    0.023483
    52  H    0.018053
    53  H    0.001264
    54  H    0.042091
    55  H    0.018690
    56  H    0.015669
    57  H    0.037190
    58  H    0.036359
    59  H    0.006415
    60  H    0.032701
    61  H   -0.000059
    62  H    0.047145
    63  H    0.021798
    64  H    0.003774
    65  H    0.024776
    66  H    0.025992
    67  H    0.031900
    68  H    0.004410
    69  H    0.015877
    70  H    0.010598
    71  H    0.010193
    72  H    0.020207
    73  H    0.037309
    74  H    0.019379
    75  H    0.024889
    76  H    0.054954
    77  H    0.050935
    78  H    0.046131
    79  H    0.046382
    80  Mg   0.856958
    81  C   -0.058755
    82  C   -0.109478
    83  C   -0.071391
    84  C   -0.087081
    85  N   -0.241839
    86  C   -0.014014
    87  C    0.014358
    88  C   -0.051410
    89  C   -0.006689
    90  C    0.052936
    91  C    0.064885
    92  C   -0.070544
    93  H    0.002375
    94  N   -0.342942
    95  C    0.211700
    96  C   -0.159404
    97  C   -0.006389
    98  C    0.104297
    99  C    0.108361
   100  C    0.005856
   101  O   -0.228240
   102  C    0.038021
   103  N   -0.379051
   104  C    0.084272
   105  C   -0.051035
   106  C   -0.001759
   107  C    0.029957
   108  C    0.063120
   109  C    0.045021
   110  C   -0.000575
   111  N   -0.392740
   112  C    0.133050
   113  C   -0.159684
   114  C   -0.023300
   115  C    0.156281
   116  C    0.124932
   117  C    0.083862
   118  O   -0.172889
   119  C   -0.034185
   120  C    0.197916
   121  O   -0.193115
   122  O   -0.339685
   123  C    0.167144
   124  H   -0.033791
   125  H   -0.010978
   126  H   -0.037299
   127  H    0.007786
   128  H    0.014681
   129  H    0.013063
   130  H    0.020457
   131  H    0.012818
   132  H    0.016727
   133  H    0.011991
   134  H    0.024782
   135  H    0.028576
   136  H    0.024998
   137  H    0.003818
   138  H    0.034950
   139  H    0.040295
   140  H    0.037958
   141  H    0.041718
   142  H    0.016569
   143  H    0.017696
   144  H    0.022121
   145  H    0.012483
   146  H    0.021702
   147  H    0.012877
   148  H    0.003395
   149  H    0.004443
   150  H    0.019157
   151  H    0.018456
   152  H    0.027664
   153  H    0.026024
   154  H    0.042294
   155  H    0.042745
   156  H    0.025744
   157  H    0.037231
   158  H    0.047736
 Sum of Mulliken charges =  -0.00000

 Dipole moment (field-independent basis, Debye):
    X=              0.9951    Y=             -2.1641    Z=             -1.7540  Tot=              2.9580
 Quadrupole moment (field-independent basis, Debye-Ang):
   XX=           -279.4868   YY=           -454.9100   ZZ=           -527.9157
   XY=            -41.0660   XZ=            133.7095   YZ=             13.1749

 Normal termination of Gaussian 16 at Wed Sep  1 05:27:32 2021.
