 Gaussian 16, Revision A.03,
 Gaussian 16:  ES64L-G16RevA.03 25-Dec-2016

 -----------------------------------
 #p cam-b3lyp/Def2SVP td=(nstates=5)
 -----------------------------------

 --------------------------------
 TDDFT excited states in gaussian
 --------------------------------
 Symbolic Z-matrix:
 Charge =  0 Multiplicity = 1

                         Standard orientation:
 ---------------------------------------------------------------------
 Center     Atomic      Atomic             Coordinates (Angstroms)
 Number     Number       Type             X           Y           Z
 ---------------------------------------------------------------------
      1         12           0      -24.752514    0.453839   -0.045737
      2          6           0      -21.702758   -1.096000    0.538528
      3          6           0      -26.308266   -2.536979    0.047881
      4          6           0      -27.603550    2.042494   -0.789140
      5          6           0      -23.025266    3.490501   -0.285059
      6          7           0      -24.005135   -1.572948    0.299285
      7          6           0      -22.792377   -1.971045    0.600927
      8          6           0      -22.851294   -3.548707    0.847871
      9          6           0      -24.026953   -3.861565   -0.053464
     10          6           0      -24.895993   -2.576129    0.124719
     11          6           0      -23.537879   -4.161299   -1.486878
     12          6           0      -22.885737   -3.871881    2.403387
     13          6           0      -22.468436   -5.300068    2.767408
     14          1           0      -22.300719   -6.319900    1.654305
     15          7           0      -26.687742   -0.126690   -0.152631
     16          6           0      -27.140022   -1.435484   -0.002176
     17          6           0      -28.631314   -1.390131    0.069573
     18          6           0      -29.044028   -0.026265   -0.246743
     19          6           0      -27.734017    0.637720   -0.480033
     20          6           0      -29.474352   -2.610742    0.353520
     21          6           0      -30.488522    0.655965   -0.294375
     22          8           0      -30.672013    1.859000   -0.508673
     23          6           0      -31.672519   -0.253165   -0.038948
     24          7           0      -25.220104    2.399346   -0.573197
     25          6           0      -26.452219    2.818498   -0.848781
     26          6           0      -26.495892    4.309624   -1.304792
     27          6           0      -25.087199    4.757915   -0.889875
     28          6           0      -24.386383    3.495599   -0.496554
     29          6           0      -26.821408    4.519066   -2.810070
     30          6           0      -24.947438    5.984806    0.117119
     31          6           0      -24.608732    5.674024    1.538010
     32          7           0      -22.763395    1.092211   -0.116404
     33          6           0      -22.217021    2.330864   -0.149955
     34          6           0      -20.798886    2.318300   -0.089361
     35          6           0      -20.524458    0.943805    0.196217
     36          6           0      -21.746983    0.312662    0.164361
     37          6           0      -19.732871    3.371243   -0.247916
     38          6           0      -19.529712   -0.045712    0.485599
     39          8           0      -18.324076    0.022700    0.590699
     40          6           0      -20.233468   -1.384046    0.877335
     41          6           0      -19.648799   -2.488802    0.111307
     42          8           0      -19.695203   -2.536730   -1.108499
     43          8           0      -18.877770   -3.385292    0.894631
     44          6           0      -18.172203   -4.444702    0.156634
     45          1           0      -26.763521   -3.528018    0.019382
     46          1           0      -28.542365    2.522204   -1.070971
     47          1           0      -22.516489    4.447529   -0.415475
     48          1           0      -21.922964   -4.008631    0.511776
     49          1           0      -24.660020   -4.675315    0.299398
     50          1           0      -23.776415   -5.220201   -1.592058
     51          1           0      -22.467354   -3.995922   -1.615181
     52          1           0      -24.200823   -3.605685   -2.149760
     53          1           0      -23.892853   -3.724101    2.794254
     54          1           0      -22.135769   -3.212890    2.841480
     55          1           0      -23.208118   -5.666981    3.478324
     56          1           0      -21.530048   -5.221988    3.315890
     57          1           0      -28.966835   -3.296277    1.033133
     58          1           0      -29.813257   -3.191123   -0.504005
     59          1           0      -30.363819   -2.293257    0.897515
     60          1           0      -31.514721   -1.075001   -0.736965
     61          1           0      -32.640619    0.181146   -0.286775
     62          1           0      -31.698545   -0.538933    1.012732
     63          1           0      -27.255186    4.869750   -0.759268
     64          1           0      -24.570746    4.980683   -1.822836
     65          1           0      -26.130576    5.294344   -3.142317
     66          1           0      -27.845738    4.790010   -3.061147
     67          1           0      -26.672418    3.565663   -3.317020
     68          1           0      -25.840477    6.603695    0.029422
     69          1           0      -24.094934    6.592496   -0.185422
     70          1           0      -23.601865    6.049928    1.721251
     71          1           0      -24.451546    4.621374    1.776424
     72          1           0      -25.255200    6.153403    2.273194
     73          1           0      -20.143440    4.337746   -0.542277
     74          1           0      -18.955356    2.989928   -0.910497
     75          1           0      -19.218106    3.683015    0.661138
     76          1           0      -20.122043   -1.604446    1.938659
     77          1           0      -17.730018   -5.223228    0.777813
     78          1           0      -17.397268   -3.895444   -0.378746
     79          1           0      -18.892077   -4.814975   -0.572337
     80         12           0       24.820258   -0.087929    0.174587
     81          6           0       21.458678   -0.840993   -0.300900
     82          6           0       25.248625   -0.339427   -3.257166
     83          6           0       27.878150    1.144292    0.411518
     84          6           0       24.164151    0.621250    3.498007
     85          7           0       23.491733   -0.374167   -1.584216
     86          6           0       22.181352   -0.802517   -1.526673
     87          6           0       21.640600   -1.204303   -2.866994
     88          6           0       22.979165   -1.393681   -3.708228
     89          6           0       23.977113   -0.632845   -2.845392
     90          6           0       23.434844   -2.822859   -4.271166
     91          6           0       20.553160   -0.213045   -3.492207
     92          6           0       20.683997    1.304606   -3.166546
     93          1           0       20.416855    2.216661   -4.339743
     94          7           0       26.327681    0.460009   -1.239260
     95          6           0       26.308353    0.256429   -2.624684
     96          6           0       27.494382    0.773570   -3.250416
     97          6           0       28.295780    1.247381   -2.184421
     98          6           0       27.527813    1.001268   -0.927596
     99          6           0       27.774870    0.487096   -4.726456
    100          6           0       29.699484    1.847738   -2.425913
    101          8           0       30.147465    2.031020   -3.562348
    102          6           0       30.492480    2.135327   -1.221096
    103          7           0       25.777684    0.864200    1.739904
    104          6           0       27.149388    1.025928    1.641137
    105          6           0       27.809809    1.404523    2.985093
    106          6           0       26.502435    1.444391    3.878048
    107          6           0       25.413122    1.006918    3.003391
    108          6           0       28.880191    0.526147    3.551821
    109          6           0       26.172183    2.917710    4.442577
    110          6           0       25.830238    2.872714    5.909046
    111          7           0       23.197699   -0.276015    1.468491
    112          6           0       23.083538    0.056151    2.805702
    113          6           0       21.704189   -0.208752    3.274780
    114          6           0       21.019284   -0.573908    2.063843
    115          6           0       21.970167   -0.586401    1.036727
    116          6           0       21.052539    0.107848    4.559290
    117          6           0       19.727282   -0.891103    1.418952
    118          8           0       18.615537   -0.901852    1.894656
    119          6           0       19.968032   -1.113243   -0.108964
    120          6           0       19.485990   -2.434762   -0.512369
    121          8           0       18.602256   -2.745447   -1.311432
    122          8           0       20.027617   -3.367518    0.410574
    123          6           0       19.704387   -4.785384    0.143202
    124          1           0       25.396128   -0.672821   -4.287008
    125          1           0       28.919862    1.375021    0.643506
    126          1           0       24.082479    0.800828    4.571481
    127          1           0       21.103712   -2.149634   -2.789018
    128          1           0       22.754581   -0.768791   -4.572987
    129          1           0       22.726921   -3.638397   -4.124438
    130          1           0       24.337818   -3.212530   -3.801351
    131          1           0       23.471838   -2.783265   -5.360166
    132          1           0       19.545057   -0.560074   -3.267885
    133          1           0       20.615551   -0.343480   -4.572549
    134          1           0       21.665853    1.525174   -2.746614
    135          1           0       19.955263    1.582086   -2.405432
    136          1           0       28.349409    1.268335   -5.225125
    137          1           0       26.832535    0.479241   -5.273595
    138          1           0       28.342942   -0.443317   -4.743298
    139          1           0       30.788545    1.189465   -0.768433
    140          1           0       29.914568    2.761678   -0.540811
    141          1           0       31.373180    2.664409   -1.585044
    142          1           0       28.105319    2.451777    2.917429
    143          1           0       26.667280    0.616506    4.567609
    144          1           0       29.033473    0.869664    4.574989
    145          1           0       29.803589    0.771393    3.027105
    146          1           0       28.602526   -0.524341    3.457557
    147          1           0       25.363284    3.307649    3.824870
    148          1           0       26.920473    3.693263    4.274406
    149          1           0       24.769762    3.102029    6.010683
    150          1           0       26.247017    3.717327    6.458710
    151          1           0       25.959493    1.858866    6.287318
    152          1           0       21.688704    0.574059    5.313117
    153          1           0       20.745369   -0.849041    4.979892
    154          1           0       20.361927    0.887556    4.238655
    155          1           0       19.399699   -0.318413   -0.591452
    156          1           0       20.673947   -5.265568    0.280279
    157          1           0       19.303636   -5.099198   -0.820696
    158          1           0       19.148389   -5.104869    1.024814
 ---------------------------------------------------------------------

 SCF Done:  E(RCAM-B3LYP) =  -4069.81941521     A.U. after   18 cycles

 Excitation energies and oscillator strengths:

 Excited State   1:      Singlet-A      1.7178 eV  721.74 nm  f=0.3850  <S**2>=0.000
     309 -> 315        0.18170
     312 -> 314        0.68340
     309 <- 315        0.10496
 This state for optimization and/or second-order correction.
 Total Energy, E(TD-HF/TD-DFT) =  -4069.75628554
 Copying the excited state density for this state as the 1-particle RhoCI density.

 Excited State   2:      Singlet-A      1.7355 eV  714.41 nm  f=0.3810  <S**2>=0.000
     310 -> 316        0.17780
     311 -> 313        0.68628
     310 <- 316        0.10690

 Excited State   3:      Singlet-A      2.2042 eV  562.48 nm  f=0.0885  <S**2>=0.000
     309 -> 314        0.62964
     312 -> 315       -0.30514

 Excited State   4:      Singlet-A      2.2152 eV  559.70 nm  f=0.1502  <S**2>=0.000
     310 -> 313        0.65493
     311 -> 316       -0.25753

 Excited State   5:      Singlet-A      3.1805 eV  389.82 nm  f=0.0000  <S**2>=0.000
     312 -> 313        0.70710

 The electronic state is 1-A.
 Alpha  occ. eigenvalues --  -46.89087 -46.87742 -19.24321 -19.23887 -19.20516
 Alpha  occ. eigenvalues --  -19.20459 -19.19462 -19.19008 -19.18800 -19.17878
 Alpha  occ. eigenvalues --  -14.42216 -14.42188 -14.41991 -14.41438 -14.40089
 Alpha  occ. eigenvalues --  -14.39626 -14.39166 -14.38611 -10.39710 -10.38848
 Alpha  occ. eigenvalues --  -10.37216 -10.35097 -10.35090 -10.34082 -10.31605
 Alpha  occ. eigenvalues --  -10.31307 -10.31276 -10.31164 -10.31116 -10.31037
 Alpha  occ. eigenvalues --  -10.30975 -10.30661 -10.30614 -10.30570 -10.30434
 Alpha  occ. eigenvalues --  -10.30286 -10.30175 -10.30061 -10.29830 -10.29334
 Alpha  occ. eigenvalues --  -10.28993 -10.28940 -10.28799 -10.28659 -10.28648
 Alpha  occ. eigenvalues --  -10.28522 -10.28407 -10.28394 -10.28320 -10.28187
 Alpha  occ. eigenvalues --  -10.28142 -10.28097 -10.28074 -10.28058 -10.27936
 Alpha  occ. eigenvalues --  -10.27927 -10.27655 -10.27604 -10.27572 -10.27527
 Alpha  occ. eigenvalues --  -10.27281 -10.27271 -10.27221 -10.27145 -10.27145
 Alpha  occ. eigenvalues --  -10.27120 -10.27109 -10.27040 -10.26951 -10.26884
 Alpha  occ. eigenvalues --  -10.26742 -10.26711 -10.26310 -10.26196 -10.26037
 Alpha  occ. eigenvalues --  -10.26006 -10.25944 -10.25872 -10.25738 -10.25736
 Alpha  occ. eigenvalues --  -10.25722 -10.25648 -10.25558 -10.25367 -10.24501
 Alpha  occ. eigenvalues --  -10.24160  -3.17612  -3.16508  -1.92496  -1.92083
 Alpha  occ. eigenvalues --   -1.91905  -1.91419  -1.90927  -1.90855  -1.14796
 Alpha  occ. eigenvalues --   -1.14472  -1.10465  -1.10340  -1.09551  -1.09356
 Alpha  occ. eigenvalues --   -1.06878  -1.06718  -1.05562  -1.05054  -1.04705
 Alpha  occ. eigenvalues --   -1.04126  -1.03698  -1.03166  -1.03140  -1.02324
 Alpha  occ. eigenvalues --   -0.92444  -0.92108  -0.89638  -0.89203  -0.89187
 Alpha  occ. eigenvalues --   -0.88559  -0.88264  -0.87966  -0.87649  -0.87275
 Alpha  occ. eigenvalues --   -0.87099  -0.86861  -0.86239  -0.86167  -0.84814
 Alpha  occ. eigenvalues --   -0.84437  -0.84311  -0.83644  -0.82741  -0.82704
 Alpha  occ. eigenvalues --   -0.82546  -0.82366  -0.80931  -0.80824  -0.80133
 Alpha  occ. eigenvalues --   -0.80046  -0.78567  -0.78302  -0.77483  -0.77221
 Alpha  occ. eigenvalues --   -0.76828  -0.76640  -0.76197  -0.75836  -0.75730
 Alpha  occ. eigenvalues --   -0.75049  -0.72795  -0.72625  -0.72121  -0.71155
 Alpha  occ. eigenvalues --   -0.69406  -0.69346  -0.69230  -0.68730  -0.68070
 Alpha  occ. eigenvalues --   -0.67910  -0.66810  -0.66596  -0.66396  -0.65032
 Alpha  occ. eigenvalues --   -0.64884  -0.64643  -0.64489  -0.64169  -0.63981
 Alpha  occ. eigenvalues --   -0.63981  -0.62523  -0.61225  -0.60615  -0.60259
 Alpha  occ. eigenvalues --   -0.59566  -0.59360  -0.59107  -0.58924  -0.58267
 Alpha  occ. eigenvalues --   -0.57995  -0.57957  -0.57597  -0.57508  -0.57231
 Alpha  occ. eigenvalues --   -0.56307  -0.55806  -0.55780  -0.55650  -0.55417
 Alpha  occ. eigenvalues --   -0.55331  -0.55079  -0.54765  -0.54590  -0.53969
 Alpha  occ. eigenvalues --   -0.53870  -0.53664  -0.53340  -0.52973  -0.52889
 Alpha  occ. eigenvalues --   -0.52698  -0.52639  -0.52606  -0.52315  -0.52157
 Alpha  occ. eigenvalues --   -0.52114  -0.51965  -0.51775  -0.51598  -0.51187
 Alpha  occ. eigenvalues --   -0.51091  -0.50832  -0.50704  -0.50674  -0.50453
 Alpha  occ. eigenvalues --   -0.50322  -0.50260  -0.49869  -0.49615  -0.49534
 Alpha  occ. eigenvalues --   -0.49483  -0.49253  -0.49210  -0.48986  -0.48803
 Alpha  occ. eigenvalues --   -0.48785  -0.48544  -0.48523  -0.48477  -0.48280
 Alpha  occ. eigenvalues --   -0.48152  -0.47735  -0.47721  -0.47356  -0.47234
 Alpha  occ. eigenvalues --   -0.46898  -0.46854  -0.46484  -0.46433  -0.46267
 Alpha  occ. eigenvalues --   -0.46255  -0.46190  -0.45999  -0.45765  -0.45712
 Alpha  occ. eigenvalues --   -0.45548  -0.45369  -0.45102  -0.44974  -0.44957
 Alpha  occ. eigenvalues --   -0.44920  -0.44672  -0.44627  -0.44622  -0.44303
 Alpha  occ. eigenvalues --   -0.43988  -0.43925  -0.43909  -0.43423  -0.43401
 Alpha  occ. eigenvalues --   -0.43299  -0.43202  -0.43201  -0.43089  -0.42955
 Alpha  occ. eigenvalues --   -0.42731  -0.42460  -0.42456  -0.42113  -0.42043
 Alpha  occ. eigenvalues --   -0.41945  -0.41771  -0.41693  -0.41666  -0.41386
 Alpha  occ. eigenvalues --   -0.41204  -0.41003  -0.40947  -0.40503  -0.40439
 Alpha  occ. eigenvalues --   -0.40195  -0.39975  -0.39953  -0.39163  -0.39085
 Alpha  occ. eigenvalues --   -0.38491  -0.38171  -0.38034  -0.37958  -0.37544
 Alpha  occ. eigenvalues --   -0.37415  -0.36878  -0.36600  -0.36539  -0.36127
 Alpha  occ. eigenvalues --   -0.35634  -0.35598  -0.35135  -0.34778  -0.34417
 Alpha  occ. eigenvalues --   -0.33911  -0.33301  -0.33229  -0.32174  -0.31255
 Alpha  occ. eigenvalues --   -0.31189  -0.31131  -0.30792  -0.30483  -0.30157
 Alpha  occ. eigenvalues --   -0.29940  -0.29637  -0.29536  -0.24078  -0.23873
 Alpha  occ. eigenvalues --   -0.21369  -0.21197
 Alpha virt. eigenvalues --   -0.08813  -0.08648  -0.02229  -0.01233   0.00005
 Alpha virt. eigenvalues --    0.00650   0.01731   0.02498   0.02546   0.03528
 Alpha virt. eigenvalues --    0.04106   0.04821   0.04969   0.05348   0.05971

 Mulliken charges:
               1
     1  Mg   0.842585
     2  C   -0.021640
     3  C   -0.078594
     4  C   -0.075119
     5  C   -0.111297
     6  N   -0.243027
     7  C   -0.062004
     8  C   -0.047428
     9  C   -0.052429
    10  C    0.015677
    11  C    0.105870
    12  C    0.057328
    13  C   -0.053894
    14  H    0.023568
    15  N   -0.393542
    16  C    0.179555
    17  C   -0.141574
    18  C   -0.075189
    19  C    0.104604
    20  C    0.096185
    21  C    0.057895
    22  O   -0.196845
    23  C    0.033361
    24  N   -0.301829
    25  C    0.062645
    26  C   -0.047736
    27  C    0.014851
    28  C    0.029783
    29  C    0.068824
    30  C    0.044636
    31  C    0.006245
    32  N   -0.283360
    33  C    0.112498
    34  C   -0.165597
    35  C    0.022738
    36  C    0.067173
    37  C    0.123691
    38  C    0.018840
    39  O   -0.167142
    40  C    0.053330
    41  C    0.179869
    42  O   -0.224395
    43  O   -0.371075
    44  C    0.187038
    45  H   -0.022540
    46  H   -0.009385
    47  H   -0.032015
    48  H   -0.002115
    49  H   -0.022998
    50  H    0.012564
    51  H    0.048830
    52  H    0.014406
    53  H    0.011104
    54  H    0.016558
    55  H    0.022721
    56  H    0.030198
    57  H    0.017723
    58  H    0.042034
    59  H    0.008678
    60  H    0.038368
    61  H    0.029157
    62  H    0.060226
    63  H    0.009217
    64  H    0.004414
    65  H    0.017341
    66  H    0.022838
    67  H    0.019454
    68  H    0.008861
    69  H    0.003228
    70  H   -0.003638
    71  H    0.027803
    72  H    0.017065
    73  H   -0.005936
    74  H    0.044018
    75  H    0.023751
    76  H    0.037114
    77  H    0.045014
    78  H    0.038860
    79  H    0.032001
    80  Mg   0.819825
    81  C   -0.024996
    82  C   -0.097592
    83  C   -0.086987
    84  C   -0.094197
    85  N   -0.283873
    86  C   -0.030003
    87  C   -0.040867
    88  C    0.001990
    89  C    0.000870
    90  C    0.064171
    91  C    0.029213
    92  C   -0.076381
    93  H    0.023217
    94  N   -0.359623
    95  C    0.167003
    96  C   -0.136605
    97  C   -0.064273
    98  C    0.184913
    99  C    0.126749
   100  C    0.000328
   101  O   -0.204543
   102  C    0.054791
   103  N   -0.295313
   104  C   -0.001613
   105  C   -0.033982
   106  C   -0.063464
   107  C    0.012424
   108  C    0.107193
   109  C    0.036509
   110  C    0.030422
   111  N   -0.342695
   112  C    0.151487
   113  C   -0.189611
   114  C   -0.004809
   115  C    0.088730
   116  C    0.130659
   117  C    0.030282
   118  O   -0.149121
   119  C    0.028506
   120  C    0.222583
   121  O   -0.208288
   122  O   -0.379738
   123  C    0.180165
   124  H   -0.029650
   125  H   -0.042335
   126  H   -0.043970
   127  H    0.010522
   128  H    0.006344
   129  H    0.011237
   130  H    0.026780
   131  H    0.022142
   132  H    0.028693
   133  H    0.010457
   134  H    0.047587
   135  H    0.030636
   136  H    0.035812
   137  H    0.016231
   138  H    0.041115
   139  H    0.048723
   140  H    0.044992
   141  H    0.024296
   142  H    0.004665
   143  H    0.008060
   144  H    0.019778
   145  H    0.014466
   146  H    0.025106
   147  H    0.015661
   148  H    0.007051
   149  H    0.005838
   150  H    0.014902
   151  H    0.023367
   152  H   -0.003585
   153  H    0.043727
   154  H    0.053219
   155  H    0.038638
   156  H    0.018927
   157  H    0.058653
   158  H    0.038459
 Sum of Mulliken charges =  -0.00000

 Dipole moment (field-independent basis, Debye):
    X=             -0.3621    Y=             -3.8358    Z=              4.3181  Tot=              5.7871
 Quadrupole moment (field-independent basis, Debye-Ang):
   XX=           -120.0698   YY=           -467.5837   ZZ=           -501.5623
   XY=             21.8352   XZ=             63.5628   YZ=             11.5369

 Normal termination of Gaussian 16 at Thu Sep 16 15:12:47 2021.
