 Gaussian 16, Revision A.03,
 Gaussian 16:  ES64L-G16RevA.03 25-Dec-2016

 ----------------------------------------------------------
 #p cam-b3lyp/Def2SVP td=(nstates=5) density=(transition=1)
 ----------------------------------------------------------

 --------------------------------
 TDDFT excited states in gaussian
 --------------------------------
 Symbolic Z-matrix:
 Charge =  0 Multiplicity = 1

                         Standard orientation:
 ---------------------------------------------------------------------
 Center     Atomic      Atomic             Coordinates (Angstroms)
 Number     Number       Type             X           Y           Z
 ---------------------------------------------------------------------
      1         12           0       25.940140   -0.764880    0.142260
      2          6           0       27.043493    2.482801   -0.416787
      3          6           0       25.743195   -0.112151    3.441452
      4          6           0       25.637242   -4.078024    0.750914
      5          6           0       26.959682   -1.593475   -3.148289
      6          7           0       26.278332    1.018148    1.253948
      7          6           0       26.575147    2.309359    0.875530
      8          6           0       26.653003    3.236662    2.119532
      9          6           0       26.770626    2.190659    3.270712
     10          6           0       26.119579    0.962503    2.651747
     11          6           0       28.239866    1.869058    3.718493
     12          6           0       25.475289    4.225565    2.044306
     13          6           0       25.825295    5.618307    2.407788
     14          1           0       24.894594    6.635046    1.921832
     15          7           0       25.502762   -1.864711    1.830240
     16          6           0       25.403164   -1.381133    3.095436
     17          6           0       24.770716   -2.382403    3.916986
     18          6           0       24.735099   -3.573585    3.105845
     19          6           0       25.392270   -3.216755    1.845103
     20          6           0       24.404221   -2.169064    5.341972
     21          6           0       24.296330   -5.036305    3.441196
     22          8           0       24.322588   -5.948896    2.612960
     23          6           0       23.676851   -5.379700    4.767053
     24          7           0       26.598197   -2.591997   -0.972222
     25          6           0       26.200713   -3.872858   -0.500639
     26          6           0       26.381229   -4.959319   -1.508518
     27          6           0       26.587431   -4.064237   -2.773527
     28          6           0       26.656810   -2.623263   -2.274817
     29          6           0       27.557481   -5.943249   -1.189838
     30          6           0       25.436237   -4.207194   -3.835065
     31          6           0       23.995393   -4.031364   -3.291534
     32          7           0       26.719597    0.222476   -1.509666
     33          6           0       27.036685   -0.231497   -2.799270
     34          6           0       27.501955    0.893993   -3.519701
     35          6           0       27.487295    1.960025   -2.628862
     36          6           0       27.022473    1.496101   -1.442590
     37          6           0       27.872059    0.904743   -4.968687
     38          6           0       27.843068    3.294570   -2.496520
     39          8           0       28.343069    4.066701   -3.334768
     40          6           0       27.577513    3.783420   -1.040729
     41          6           0       26.544138    4.937487   -1.230022
     42          8           0       25.364382    4.796754   -1.598350
     43          8           0       27.177410    6.136295   -0.920495
     44          6           0       26.481213    7.417048   -1.263332
     45          1           0       25.811361    0.192453    4.487960
     46          1           0       25.454939   -5.154884    0.718974
     47          1           0       27.089037   -1.743969   -4.222155
     48          1           0       27.526386    3.884644    2.054045
     49          1           0       26.149664    2.510178    4.107096
     50          1           0       29.026537    2.457119    3.244942
     51          1           0       28.515194    0.856267    3.427089
     52          1           0       28.331646    2.073142    4.785079
     53          1           0       24.778637    3.907242    2.818575
     54          1           0       25.053083    4.160061    1.041168
     55          1           0       26.778591    5.817608    1.918016
     56          1           0       25.994313    5.662280    3.483527
     57          1           0       24.343410   -1.108091    5.583588
     58          1           0       25.039887   -2.808678    5.955207
     59          1           0       23.389868   -2.531711    5.508694
     60          1           0       23.883825   -6.442579    4.893814
     61          1           0       22.594672   -5.251353    4.734721
     62          1           0       24.142639   -4.836677    5.589994
     63          1           0       25.490246   -5.568707   -1.666196
     64          1           0       27.539416   -4.327491   -3.235655
     65          1           0       28.248539   -5.455965   -0.501490
     66          1           0       28.157363   -6.281367   -2.034922
     67          1           0       27.277632   -6.883271   -0.713420
     68          1           0       25.603065   -5.167001   -4.324279
     69          1           0       25.695511   -3.461052   -4.586088
     70          1           0       23.460796   -3.213869   -3.775692
     71          1           0       24.086190   -3.858679   -2.218775
     72          1           0       23.381203   -4.920043   -3.433753
     73          1           0       28.895240    1.278308   -5.008315
     74          1           0       27.152320    1.536318   -5.489424
     75          1           0       27.908657   -0.072417   -5.450426
     76          1           0       28.504681    4.200875   -0.648957
     77          1           0       26.339082    7.402344   -2.343688
     78          1           0       26.982737    8.350731   -1.008942
     79          1           0       25.574958    7.229825   -0.687286
     80         12           0      -26.730627   -0.435786   -0.168857
     81          6           0      -24.629770    2.396700   -0.352291
     82          6           0      -28.362250    0.957601    2.490925
     83          6           0      -28.161085   -3.362036    0.341962
     84          6           0      -24.655585   -1.972626   -2.601588
     85          7           0      -26.566504    1.530405    0.852945
     86          6           0      -25.678925    2.470410    0.594558
     87          6           0      -26.130427    3.750626    1.273962
     88          6           0      -27.000127    3.229312    2.482112
     89          6           0      -27.347540    1.794186    1.936315
     90          6           0      -26.208389    3.319643    3.841796
     91          6           0      -27.013494    4.632120    0.353839
     92          6           0      -27.110443    6.169183    0.756260
     93          1           0      -26.404780    6.728450    1.994573
     94          7           0      -28.195739   -1.037269    1.065788
     95          6           0      -28.841269   -0.303968    2.094230
     96          6           0      -29.911620   -1.153561    2.666639
     97          6           0      -29.789626   -2.464165    2.079902
     98          6           0      -28.686087   -2.377879    1.098907
     99          6           0      -30.902056   -0.675409    3.668897
    100          6           0      -30.592765   -3.808068    2.279435
    101          8           0      -30.406544   -4.834099    1.611147
    102          6           0      -31.545486   -3.901597    3.435857
    103          7           0      -26.370490   -2.451562   -0.940620
    104          6           0      -27.126971   -3.465085   -0.612502
    105          6           0      -26.827382   -4.749446   -1.333456
    106          6           0      -25.670436   -4.318564   -2.302023
    107          6           0      -25.600537   -2.785540   -2.012013
    108          6           0      -26.582258   -5.905520   -0.359333
    109          6           0      -25.940017   -4.588297   -3.777054
    110          6           0      -24.729484   -5.109854   -4.631335
    111          7           0      -24.997690    0.069457   -1.373150
    112          6           0      -24.299828   -0.662455   -2.353786
    113          6           0      -23.359415    0.199781   -2.982854
    114          6           0      -23.303816    1.356459   -2.141544
    115          6           0      -24.327306    1.252085   -1.233992
    116          6           0      -22.644631   -0.076211   -4.274502
    117          6           0      -22.762767    2.713655   -1.889101
    118          8           0      -21.875298    3.317394   -2.455102
    119          6           0      -23.457019    3.277109   -0.559320
    120          6           0      -23.565652    4.765963   -0.610410
    121          8           0      -24.173446    5.411054   -1.412975
    122          8           0      -22.762248    5.371637    0.373741
    123          6           0      -22.207167    6.702338    0.047292
    124          1           0      -28.793037    1.246865    3.452204
    125          1           0      -28.664429   -4.330411    0.330249
    126          1           0      -24.085639   -2.450890   -3.400979
    127          1           0      -25.192550    4.282211    1.434571
    128          1           0      -27.919499    3.805336    2.592497
    129          1           0      -25.206354    3.711123    3.669606
    130          1           0      -26.046590    2.275202    4.108466
    131          1           0      -26.667865    3.958109    4.596449
    132          1           0      -28.006722    4.188415    0.433818
    133          1           0      -26.637736    4.509479   -0.661906
    134          1           0      -28.181640    6.360772    0.835323
    135          1           0      -26.772709    6.706955   -0.129984
    136          1           0      -30.966416    0.390211    3.885961
    137          1           0      -30.727848   -1.099138    4.657544
    138          1           0      -31.861006   -0.972417    3.243549
    139          1           0      -32.550251   -3.542148    3.214229
    140          1           0      -31.001075   -3.292471    4.158489
    141          1           0      -31.535943   -4.946029    3.746368
    142          1           0      -27.751697   -4.912158   -1.887622
    143          1           0      -24.709229   -4.778140   -2.075174
    144          1           0      -26.229501   -5.588751    0.622639
    145          1           0      -25.779093   -6.488714   -0.808057
    146          1           0      -27.467560   -6.523490   -0.207873
    147          1           0      -26.297464   -3.690744   -4.281479
    148          1           0      -26.835181   -5.209978   -3.768689
    149          1           0      -23.798454   -5.077772   -4.065683
    150          1           0      -24.659259   -4.402862   -5.457710
    151          1           0      -24.788767   -6.103688   -5.076264
    152          1           0      -22.243241   -1.083266   -4.160225
    153          1           0      -21.818081    0.601128   -4.490052
    154          1           0      -23.361444   -0.108720   -5.095622
    155          1           0      -22.761398    3.155271    0.270345
    156          1           0      -22.638697    7.422158    0.742966
    157          1           0      -22.400683    6.990054   -0.986673
    158          1           0      -21.133588    6.610332    0.211607
 ---------------------------------------------------------------------

 SCF Done:  E(RCAM-B3LYP) =  -4069.80517253     A.U. after   19 cycles

 Excitation energies and oscillator strengths:

 Excited State   1:      Singlet-A      1.6607 eV  746.56 nm  f=0.3775  <S**2>=0.000
     309 -> 316       -0.16223
     312 -> 313        0.68893
     309 <- 316       -0.10409
 This state for optimization and/or second-order correction.
 Total Energy, E(TD-HF/TD-DFT) =  -4069.74414142
 Copying the excited state density for this state as the 1-particle RhoCI density.

 Excited State   2:      Singlet-A      1.7949 eV  690.75 nm  f=0.3732  <S**2>=0.000
     310 -> 315       -0.18880
     311 -> 314        0.68032
     310 <- 315       -0.10304

 Excited State   3:      Singlet-A      2.1693 eV  571.55 nm  f=0.0986  <S**2>=0.000
     310 -> 314        0.64308
     311 -> 315        0.27288

 Excited State   4:      Singlet-A      2.2190 eV  558.75 nm  f=0.1283  <S**2>=0.000
     309 -> 313        0.64341
     312 -> 316        0.27225

 Excited State   5:      Singlet-A      3.1767 eV  390.30 nm  f=0.0000  <S**2>=0.000
     311 -> 313        0.70711

 The electronic state is 1-A.
 Alpha  occ. eigenvalues --  -46.88535 -46.88312 -19.24732 -19.23261 -19.20302
 Alpha  occ. eigenvalues --  -19.19999 -19.19571 -19.18727 -19.18361 -19.17644
 Alpha  occ. eigenvalues --  -14.41963 -14.41933 -14.41736 -14.41473 -14.39739
 Alpha  occ. eigenvalues --  -14.39337 -14.38495 -14.38000 -10.40018 -10.38543
 Alpha  occ. eigenvalues --  -10.36793 -10.35277 -10.34809 -10.33626 -10.32210
 Alpha  occ. eigenvalues --  -10.31964 -10.31544 -10.30947 -10.30879 -10.30811
 Alpha  occ. eigenvalues --  -10.30631 -10.30606 -10.30547 -10.30313 -10.30231
 Alpha  occ. eigenvalues --  -10.30216 -10.30091 -10.29728 -10.29300 -10.29203
 Alpha  occ. eigenvalues --  -10.29196 -10.28315 -10.28298 -10.28236 -10.28206
 Alpha  occ. eigenvalues --  -10.28205 -10.28184 -10.28087 -10.27976 -10.27900
 Alpha  occ. eigenvalues --  -10.27888 -10.27871 -10.27851 -10.27690 -10.27662
 Alpha  occ. eigenvalues --  -10.27627 -10.27622 -10.27589 -10.27545 -10.27446
 Alpha  occ. eigenvalues --  -10.27383 -10.27164 -10.27005 -10.27004 -10.26895
 Alpha  occ. eigenvalues --  -10.26722 -10.26693 -10.26520 -10.26392 -10.26367
 Alpha  occ. eigenvalues --  -10.26217 -10.26151 -10.26075 -10.25974 -10.25936
 Alpha  occ. eigenvalues --  -10.25929 -10.25869 -10.25860 -10.25822 -10.25738
 Alpha  occ. eigenvalues --  -10.25730 -10.25613 -10.25559 -10.25443 -10.24420
 Alpha  occ. eigenvalues --  -10.23773  -3.16996  -3.16908  -1.91909  -1.91788
 Alpha  occ. eigenvalues --   -1.91453  -1.91366  -1.91292  -1.91210  -1.15197
 Alpha  occ. eigenvalues --   -1.14406  -1.10480  -1.09537  -1.09466  -1.07936
 Alpha  occ. eigenvalues --   -1.06993  -1.06638  -1.05102  -1.04801  -1.04515
 Alpha  occ. eigenvalues --   -1.03893  -1.03509  -1.02218  -1.01690  -1.00966
 Alpha  occ. eigenvalues --   -0.92523  -0.91812  -0.89279  -0.89083  -0.89042
 Alpha  occ. eigenvalues --   -0.88898  -0.88578  -0.87789  -0.87742  -0.87591
 Alpha  occ. eigenvalues --   -0.87232  -0.87120  -0.86526  -0.85436  -0.84590
 Alpha  occ. eigenvalues --   -0.83978  -0.83684  -0.83497  -0.82864  -0.82158
 Alpha  occ. eigenvalues --   -0.81693  -0.81617  -0.80979  -0.80669  -0.80382
 Alpha  occ. eigenvalues --   -0.79861  -0.78596  -0.78199  -0.77185  -0.77064
 Alpha  occ. eigenvalues --   -0.76925  -0.76374  -0.76024  -0.75461  -0.75395
 Alpha  occ. eigenvalues --   -0.75145  -0.73241  -0.72503  -0.72040  -0.71692
 Alpha  occ. eigenvalues --   -0.69824  -0.69783  -0.68758  -0.68617  -0.67526
 Alpha  occ. eigenvalues --   -0.67248  -0.66627  -0.66523  -0.66040  -0.65328
 Alpha  occ. eigenvalues --   -0.65190  -0.64651  -0.64520  -0.64445  -0.64058
 Alpha  occ. eigenvalues --   -0.63461  -0.61553  -0.61044  -0.60200  -0.59878
 Alpha  occ. eigenvalues --   -0.59775  -0.59131  -0.59099  -0.58597  -0.58426
 Alpha  occ. eigenvalues --   -0.58052  -0.57557  -0.57537  -0.56990  -0.56826
 Alpha  occ. eigenvalues --   -0.56453  -0.55973  -0.55609  -0.55432  -0.55320
 Alpha  occ. eigenvalues --   -0.55076  -0.55069  -0.54754  -0.54262  -0.53677
 Alpha  occ. eigenvalues --   -0.53538  -0.53196  -0.53114  -0.53038  -0.52923
 Alpha  occ. eigenvalues --   -0.52820  -0.52799  -0.52455  -0.52174  -0.52015
 Alpha  occ. eigenvalues --   -0.51924  -0.51728  -0.51661  -0.51449  -0.51359
 Alpha  occ. eigenvalues --   -0.51196  -0.50905  -0.50505  -0.50483  -0.50339
 Alpha  occ. eigenvalues --   -0.50171  -0.50028  -0.49623  -0.49379  -0.49277
 Alpha  occ. eigenvalues --   -0.49187  -0.48935  -0.48905  -0.48752  -0.48648
 Alpha  occ. eigenvalues --   -0.48510  -0.48328  -0.48075  -0.48021  -0.47967
 Alpha  occ. eigenvalues --   -0.47834  -0.47676  -0.47516  -0.47355  -0.47312
 Alpha  occ. eigenvalues --   -0.47023  -0.47016  -0.46604  -0.46555  -0.46488
 Alpha  occ. eigenvalues --   -0.46288  -0.46147  -0.45981  -0.45692  -0.45556
 Alpha  occ. eigenvalues --   -0.45459  -0.45443  -0.45038  -0.44872  -0.44598
 Alpha  occ. eigenvalues --   -0.44478  -0.44249  -0.44171  -0.43939  -0.43742
 Alpha  occ. eigenvalues --   -0.43716  -0.43456  -0.43433  -0.43324  -0.43180
 Alpha  occ. eigenvalues --   -0.43071  -0.43046  -0.42734  -0.42686  -0.42597
 Alpha  occ. eigenvalues --   -0.42356  -0.42251  -0.42008  -0.41954  -0.41734
 Alpha  occ. eigenvalues --   -0.41685  -0.41579  -0.41549  -0.41352  -0.41145
 Alpha  occ. eigenvalues --   -0.41056  -0.40973  -0.40836  -0.40638  -0.40287
 Alpha  occ. eigenvalues --   -0.40133  -0.39997  -0.39945  -0.39151  -0.39054
 Alpha  occ. eigenvalues --   -0.38782  -0.38195  -0.38024  -0.37719  -0.37556
 Alpha  occ. eigenvalues --   -0.37357  -0.36821  -0.36588  -0.36374  -0.36065
 Alpha  occ. eigenvalues --   -0.35750  -0.35399  -0.34174  -0.34168  -0.34080
 Alpha  occ. eigenvalues --   -0.33792  -0.33217  -0.33096  -0.31898  -0.31307
 Alpha  occ. eigenvalues --   -0.31186  -0.30816  -0.30472  -0.30046  -0.29918
 Alpha  occ. eigenvalues --   -0.29713  -0.29392  -0.28296  -0.24232  -0.23723
 Alpha  occ. eigenvalues --   -0.21325  -0.21183
 Alpha virt. eigenvalues --   -0.08995  -0.08485  -0.02021  -0.01503  -0.00121
 Alpha virt. eigenvalues --    0.00541   0.02204   0.02434   0.02723   0.03014
 Alpha virt. eigenvalues --    0.04826   0.04970   0.05081   0.05771   0.06344

 Mulliken charges:
               1
     1  Mg  11.997496
     2  C    6.031941
     3  C    5.989981
     4  C    5.961693
     5  C    5.988610
     6  N    7.022517
     7  C    5.963206
     8  C    6.002582
     9  C    5.993245
    10  C    6.024623
    11  C    5.995878
    12  C    6.007092
    13  C    5.999640
    14  H    1.001058
    15  N    6.989187
    16  C    6.042885
    17  C    6.020206
    18  C    6.013606
    19  C    6.045644
    20  C    5.994560
    21  C    6.012903
    22  O    8.029695
    23  C    5.994148
    24  N    6.981958
    25  C    6.046910
    26  C    5.982957
    27  C    6.007528
    28  C    5.982209
    29  C    6.000066
    30  C    6.008675
    31  C    6.006775
    32  N    7.004884
    33  C    5.965043
    34  C    5.968801
    35  C    5.998460
    36  C    5.966610
    37  C    6.005160
    38  C    5.986612
    39  O    7.968695
    40  C    5.994604
    41  C    5.997238
    42  O    7.996739
    43  O    7.998422
    44  C    6.000913
    45  H    1.015083
    46  H    1.003769
    47  H    0.982139
    48  H    1.001072
    49  H    1.001619
    50  H    1.017379
    51  H    0.999443
    52  H    1.003624
    53  H    0.986489
    54  H    1.006092
    55  H    1.003852
    56  H    0.993855
    57  H    1.016740
    58  H    1.021018
    59  H    1.019932
    60  H    1.014211
    61  H    1.011350
    62  H    1.003894
    63  H    1.001782
    64  H    0.996852
    65  H    0.999810
    66  H    1.010776
    67  H    0.996818
    68  H    0.989303
    69  H    1.007143
    70  H    1.003154
    71  H    0.984745
    72  H    0.992627
    73  H    0.980053
    74  H    0.978680
    75  H    0.981374
    76  H    0.991794
    77  H    1.001117
    78  H    0.995333
    79  H    0.995425
    80  Mg  11.999999
    81  C    6.000033
    82  C    6.000022
    83  C    5.999954
    84  C    5.999964
    85  N    6.999996
    86  C    6.000002
    87  C    5.999993
    88  C    6.000028
    89  C    5.999961
    90  C    5.999994
    91  C    6.000001
    92  C    5.999997
    93  H    0.999991
    94  N    7.000015
    95  C    5.999963
    96  C    6.000027
    97  C    5.999985
    98  C    6.000024
    99  C    5.999993
   100  C    5.999981
   101  O    7.999993
   102  C    6.000005
   103  N    7.000011
   104  C    6.000013
   105  C    5.999995
   106  C    5.999974
   107  C    6.000034
   108  C    6.000007
   109  C    5.999996
   110  C    5.999997
   111  N    6.999989
   112  C    6.000017
   113  C    5.999998
   114  C    5.999996
   115  C    5.999984
   116  C    6.000014
   117  C    6.000029
   118  O    8.000015
   119  C    5.999985
   120  C    6.000016
   121  O    8.000019
   122  O    7.999983
   123  C    6.000002
   124  H    0.999981
   125  H    0.999999
   126  H    1.000017
   127  H    0.999988
   128  H    1.000009
   129  H    0.999984
   130  H    0.999986
   131  H    0.999998
   132  H    1.000013
   133  H    1.000009
   134  H    1.000012
   135  H    1.000014
   136  H    0.999992
   137  H    0.999973
   138  H    1.000003
   139  H    1.000006
   140  H    0.999985
   141  H    0.999982
   142  H    1.000015
   143  H    0.999985
   144  H    0.999980
   145  H    0.999983
   146  H    1.000004
   147  H    1.000019
   148  H    1.000013
   149  H    0.999980
   150  H    1.000017
   151  H    1.000008
   152  H    0.999995
   153  H    1.000018
   154  H    1.000035
   155  H    0.999984
   156  H    1.000003
   157  H    1.000026
   158  H    0.999988
 Sum of Mulliken charges = 624.00000

 Dipole moment (field-independent basis, Debye):
    X=             -3.0132    Y=             -4.9338    Z=              9.2990  Tot=             10.9496
 Quadrupole moment (field-independent basis, Debye-Ang):
   XX=           -157.3195   YY=              6.4867   ZZ=              3.0977
   XY=           -126.0312   XZ=            243.2298   YZ=             -9.2635

 Normal termination of Gaussian 16 at Wed Sep 22 10:11:13 2021.
