 Gaussian 16, Revision A.03,
 Gaussian 16:  ES64L-G16RevA.03 25-Dec-2016

 ----------------------------------------------------------
 #p cam-b3lyp/Def2SVP td=(nstates=5) density=(transition=1)
 ----------------------------------------------------------

 --------------------------------
 TDDFT excited states in gaussian
 --------------------------------
 Symbolic Z-matrix:
 Charge =  0 Multiplicity = 1

                         Standard orientation:
 ---------------------------------------------------------------------
 Center     Atomic      Atomic             Coordinates (Angstroms)
 Number     Number       Type             X           Y           Z
 ---------------------------------------------------------------------
      1         12           0      -28.868136   -0.275176   -0.075659
      2          6           0      -26.013499    1.448172   -0.762035
      3          6           0      -26.864909   -2.847724    1.106847
      4          6           0      -31.676860   -1.804034    0.947211
      5          6           0      -30.777949    2.621806   -0.663776
      6          7           0      -26.673297   -0.533727    0.380199
      7          6           0      -25.729811    0.326199   -0.053088
      8          6           0      -24.360718   -0.075893    0.358351
      9          6           0      -24.638589   -1.682506    0.630531
     10          6           0      -26.178615   -1.728016    0.718713
     11          6           0      -24.012578   -2.598087   -0.462545
     12          6           0      -23.965650    0.668329    1.623980
     13          6           0      -24.909021    0.576168    2.911340
     14          1           0      -24.303306    0.452999    4.303940
     15          7           0      -29.231565   -2.061772    0.887403
     16          6           0      -28.274769   -3.067312    1.176729
     17          6           0      -28.997643   -4.227943    1.577400
     18          6           0      -30.363100   -3.972175    1.598743
     19          6           0      -30.520363   -2.594998    1.101521
     20          6           0      -28.208254   -5.475951    1.916711
     21          6           0      -31.462183   -4.879094    2.098485
     22          8           0      -31.088878   -5.997736    2.531498
     23          6           0      -32.821491   -4.510943    2.312456
     24          7           0      -30.904687    0.421594    0.311931
     25          6           0      -31.890110   -0.448858    0.674645
     26          6           0      -33.262456    0.261145    0.759865
     27          6           0      -32.934117    1.697954    0.230940
     28          6           0      -31.433206    1.612778    0.010920
     29          6           0      -34.358282   -0.447782   -0.007039
     30          6           0      -33.381617    2.832477    1.298713
     31          6           0      -34.043780    4.061054    0.664585
     32          7           0      -28.540933    1.723900   -0.628963
     33          6           0      -29.381190    2.715131   -1.024020
     34          6           0      -28.574116    3.714915   -1.668952
     35          6           0      -27.201793    3.285875   -1.656772
     36          6           0      -27.249536    2.076331   -0.983591
     37          6           0      -29.030765    5.086194   -2.032729
     38          6           0      -25.833900    3.582842   -1.937351
     39          8           0      -25.444510    4.598250   -2.527842
     40          6           0      -25.036997    2.404674   -1.408450
     41          6           0      -24.276961    1.806101   -2.532661
     42          8           0      -23.506745    2.501928   -3.164770
     43          8           0      -24.462772    0.467085   -2.694182
     44          6           0      -23.699663   -0.139676   -3.786620
     45          1           0      -26.255050   -3.746841    1.215853
     46          1           0      -32.588688   -2.394299    1.057980
     47          1           0      -31.316896    3.495583   -1.036796
     48          1           0      -23.542748    0.089165   -0.342992
     49          1           0      -24.091174   -2.027963    1.508478
     50          1           0      -23.314345   -3.298641   -0.005970
     51          1           0      -23.443405   -1.948889   -1.128421
     52          1           0      -24.736310   -3.142154   -1.070816
     53          1           0      -23.766997    1.700881    1.336064
     54          1           0      -22.945025    0.320132    1.782227
     55          1           0      -25.617601   -0.252149    2.920326
     56          1           0      -25.398343    1.549531    2.891795
     57          1           0      -27.918320   -5.358649    2.961045
     58          1           0      -27.301506   -5.494229    1.313375
     59          1           0      -28.721625   -6.427632    1.776163
     60          1           0      -33.273590   -5.083281    3.123094
     61          1           0      -33.419120   -4.496656    1.400098
     62          1           0      -32.770452   -3.510168    2.739194
     63          1           0      -33.463286    0.277655    1.831647
     64          1           0      -33.370211    1.827031   -0.759459
     65          1           0      -34.058127   -1.409120   -0.423124
     66          1           0      -34.951116    0.072975   -0.758527
     67          1           0      -35.019034   -0.787202    0.791182
     68          1           0      -32.561188    3.215578    1.905624
     69          1           0      -34.045434    2.433593    2.065540
     70          1           0      -35.108194    4.026290    0.895190
     71          1           0      -33.974127    3.963046   -0.418973
     72          1           0      -33.623764    5.002218    1.019745
     73          1           0      -29.739135    5.179815   -2.854980
     74          1           0      -28.117431    5.639535   -2.254441
     75          1           0      -29.541673    5.581109   -1.206745
     76          1           0      -24.337150    2.816020   -0.680465
     77          1           0      -22.643335    0.060448   -3.604831
     78          1           0      -24.023199    0.186107   -4.775329
     79          1           0      -23.925790   -1.202697   -3.868707
     80         12           0       28.187786    0.406725    0.756054
     81          6           0       27.823632   -2.150164   -1.726794
     82          6           0       27.316352    2.687349   -1.790105
     83          6           0       29.152243    2.892046    2.652674
     84          6           0       29.343577   -1.935555    2.933286
     85          7           0       27.590627    0.239727   -1.473057
     86          6           0       27.430979   -0.921845   -2.151702
     87          6           0       26.808123   -0.612526   -3.503076
     88          6           0       26.587310    0.923992   -3.589756
     89          6           0       27.156378    1.323023   -2.214576
     90          6           0       27.315323    1.619078   -4.873849
     91          6           0       25.428197   -1.365953   -3.731064
     92          6           0       25.255575   -2.087972   -5.067789
     93          1           0       25.914451   -1.523614   -6.389994
     94          7           0       28.277568    2.519883    0.445848
     95          6           0       27.863695    3.200803   -0.601731
     96          6           0       28.104422    4.590348   -0.332164
     97          6           0       28.507621    4.758132    1.016872
     98          6           0       28.696993    3.385820    1.408065
     99          6           0       27.654769    5.704363   -1.276061
    100          6           0       28.645477    5.955298    1.944329
    101          8           0       29.084853    5.869377    3.076400
    102          6           0       28.145927    7.268384    1.407490
    103          7           0       29.435248    0.451461    2.380468
    104          6           0       29.514634    1.630092    3.124527
    105          6           0       29.996720    1.398629    4.582444
    106          6           0       29.875310   -0.170868    4.639848
    107          6           0       29.520859   -0.601948    3.216732
    108          6           0       31.405981    1.971953    4.790388
    109          6           0       28.702385   -0.687813    5.600209
    110          6           0       29.071870   -1.283465    6.917283
    111          7           0       28.414805   -1.598021    0.703276
    112          6           0       28.937084   -2.421285    1.677340
    113          6           0       29.090424   -3.802837    1.228948
    114          6           0       28.649455   -3.755500   -0.141630
    115          6           0       28.377740   -2.398365   -0.435292
    116          6           0       29.410996   -4.942401    2.127038
    117          6           0       28.330676   -4.550428   -1.317644
    118          8           0       28.417745   -5.786370   -1.434653
    119          6           0       27.789539   -3.509501   -2.453885
    120          6           0       28.741723   -3.624701   -3.547147
    121          8           0       29.933749   -3.446716   -3.423281
    122          8           0       28.133013   -3.937661   -4.697145
    123          6           0       28.892515   -4.172410   -5.965137
    124          1           0       26.982495    3.430514   -2.517103
    125          1           0       29.104272    3.602268    3.481555
    126          1           0       29.640080   -2.661515    3.692880
    127          1           0       27.535984   -0.899286   -4.262097
    128          1           0       25.540940    1.176753   -3.761828
    129          1           0       27.492256    0.887694   -5.662497
    130          1           0       28.240470    2.036339   -4.475393
    131          1           0       26.697641    2.435279   -5.248173
    132          1           0       24.538090   -0.759825   -3.568128
    133          1           0       25.329113   -2.160602   -2.991693
    134          1           0       24.203404   -2.242334   -5.307899
    135          1           0       25.634998   -3.086117   -4.849021
    136          1           0       26.696913    6.153296   -1.012722
    137          1           0       27.704151    5.391713   -2.319528
    138          1           0       28.420814    6.476932   -1.213606
    139          1           0       27.212200    7.216364    0.846726
    140          1           0       28.843768    7.790595    0.754448
    141          1           0       27.803215    7.881422    2.241098
    142          1           0       29.294627    1.910860    5.239743
    143          1           0       30.829246   -0.566072    4.989267
    144          1           0       31.765078    2.596432    3.972473
    145          1           0       32.150792    1.182787    4.887041
    146          1           0       31.422985    2.554681    5.711970
    147          1           0       28.059326   -1.453268    5.165901
    148          1           0       27.961291    0.083044    5.808303
    149          1           0       28.681627   -0.671852    7.729754
    150          1           0       30.161663   -1.266172    6.894969
    151          1           0       28.657615   -2.287163    7.012108
    152          1           0       28.899262   -5.851507    1.813026
    153          1           0       29.202364   -4.599005    3.140108
    154          1           0       30.485700   -5.109952    2.043911
    155          1           0       26.798689   -3.783426   -2.813704
    156          1           0       29.701658   -4.878067   -5.775982
    157          1           0       29.334123   -3.259236   -6.364886
    158          1           0       28.263527   -4.467803   -6.804456
 ---------------------------------------------------------------------

 SCF Done:  E(RCAM-B3LYP) =  -4069.80440758     A.U. after   17 cycles

 Excitation energies and oscillator strengths:

 Excited State   1:      Singlet-A      1.6835 eV  736.49 nm  f=0.4012  <S**2>=0.000
     310 -> 316       -0.17293
     312 -> 314        0.68701
     310 <- 316       -0.10715
 This state for optimization and/or second-order correction.
 Total Energy, E(TD-HF/TD-DFT) =  -4069.74254187
 Copying the excited state density for this state as the 1-particle RhoCI density.

 Excited State   2:      Singlet-A      1.7418 eV  711.80 nm  f=0.3942  <S**2>=0.000
     309 -> 315        0.17694
     311 -> 313        0.68527
     309 <- 315        0.10391

 Excited State   3:      Singlet-A      2.1994 eV  563.73 nm  f=0.1326  <S**2>=0.000
     310 -> 314        0.65028
     312 -> 316        0.26295

 Excited State   4:      Singlet-A      2.2176 eV  559.10 nm  f=0.1294  <S**2>=0.000
     309 -> 313        0.65047
     311 -> 315       -0.25335

 Excited State   5:      Singlet-A      3.0460 eV  407.04 nm  f=0.0000  <S**2>=0.000
     312 -> 313        0.70711

 The electronic state is 1-A.
 Alpha  occ. eigenvalues --  -46.89132 -46.88616 -19.26418 -19.25259 -19.19526
 Alpha  occ. eigenvalues --  -19.19503 -19.19009 -19.18515 -19.18302 -19.18185
 Alpha  occ. eigenvalues --  -14.42103 -14.42085 -14.41875 -14.41709 -14.39813
 Alpha  occ. eigenvalues --  -14.39371 -14.39084 -14.38629 -10.39492 -10.38498
 Alpha  occ. eigenvalues --  -10.35783 -10.35457 -10.34859 -10.34473 -10.32769
 Alpha  occ. eigenvalues --  -10.32537 -10.31702 -10.31329 -10.31241 -10.31211
 Alpha  occ. eigenvalues --  -10.30740 -10.30543 -10.30515 -10.30411 -10.30266
 Alpha  occ. eigenvalues --  -10.30235 -10.29646 -10.29580 -10.29224 -10.29175
 Alpha  occ. eigenvalues --  -10.29071 -10.29022 -10.28744 -10.28585 -10.28562
 Alpha  occ. eigenvalues --  -10.28480 -10.28398 -10.28366 -10.28302 -10.28231
 Alpha  occ. eigenvalues --  -10.28204 -10.28178 -10.28046 -10.28016 -10.27932
 Alpha  occ. eigenvalues --  -10.27794 -10.27755 -10.27723 -10.27613 -10.27423
 Alpha  occ. eigenvalues --  -10.27384 -10.27316 -10.27255 -10.27199 -10.27083
 Alpha  occ. eigenvalues --  -10.27017 -10.27003 -10.26795 -10.26656 -10.26568
 Alpha  occ. eigenvalues --  -10.26567 -10.26489 -10.26423 -10.26366 -10.26222
 Alpha  occ. eigenvalues --  -10.26064 -10.26054 -10.25804 -10.25639 -10.25577
 Alpha  occ. eigenvalues --  -10.25574 -10.25565 -10.25460 -10.25019 -10.24995
 Alpha  occ. eigenvalues --  -10.24575  -3.17585  -3.17245  -1.92461  -1.92111
 Alpha  occ. eigenvalues --   -1.92060  -1.91867  -1.91706  -1.91555  -1.17442
 Alpha  occ. eigenvalues --   -1.16557  -1.10841  -1.09078  -1.08435  -1.08420
 Alpha  occ. eigenvalues --   -1.08018  -1.07366  -1.05008  -1.04646  -1.04566
 Alpha  occ. eigenvalues --   -1.03506  -1.03141  -1.02755  -1.01882  -1.01539
 Alpha  occ. eigenvalues --   -0.94096  -0.92160  -0.89306  -0.89068  -0.88775
 Alpha  occ. eigenvalues --   -0.88633  -0.88261  -0.88094  -0.87816  -0.87105
 Alpha  occ. eigenvalues --   -0.87018  -0.86403  -0.86350  -0.85870  -0.85124
 Alpha  occ. eigenvalues --   -0.84224  -0.84153  -0.84122  -0.83376  -0.82828
 Alpha  occ. eigenvalues --   -0.82662  -0.81830  -0.81483  -0.81284  -0.80924
 Alpha  occ. eigenvalues --   -0.80694  -0.78650  -0.78262  -0.78017  -0.77672
 Alpha  occ. eigenvalues --   -0.77084  -0.76864  -0.76276  -0.76189  -0.74983
 Alpha  occ. eigenvalues --   -0.74839  -0.72538  -0.72483  -0.72150  -0.71412
 Alpha  occ. eigenvalues --   -0.70174  -0.69147  -0.68869  -0.68748  -0.67798
 Alpha  occ. eigenvalues --   -0.67647  -0.67154  -0.66972  -0.66584  -0.65555
 Alpha  occ. eigenvalues --   -0.65362  -0.65241  -0.65159  -0.64621  -0.64497
 Alpha  occ. eigenvalues --   -0.64417  -0.63852  -0.62421  -0.60499  -0.60267
 Alpha  occ. eigenvalues --   -0.59760  -0.59365  -0.59227  -0.58853  -0.58815
 Alpha  occ. eigenvalues --   -0.58488  -0.58412  -0.58047  -0.58040  -0.57469
 Alpha  occ. eigenvalues --   -0.56868  -0.56611  -0.56080  -0.55830  -0.55755
 Alpha  occ. eigenvalues --   -0.55184  -0.55160  -0.54546  -0.54364  -0.54278
 Alpha  occ. eigenvalues --   -0.53780  -0.53508  -0.53499  -0.53314  -0.53099
 Alpha  occ. eigenvalues --   -0.52988  -0.52913  -0.52617  -0.52510  -0.52359
 Alpha  occ. eigenvalues --   -0.52091  -0.51913  -0.51850  -0.51459  -0.51284
 Alpha  occ. eigenvalues --   -0.51189  -0.51105  -0.50944  -0.50586  -0.50525
 Alpha  occ. eigenvalues --   -0.50356  -0.50069  -0.49970  -0.49624  -0.49495
 Alpha  occ. eigenvalues --   -0.49261  -0.49142  -0.49025  -0.48778  -0.48752
 Alpha  occ. eigenvalues --   -0.48710  -0.48565  -0.48502  -0.48396  -0.48185
 Alpha  occ. eigenvalues --   -0.48141  -0.47716  -0.47653  -0.47427  -0.47121
 Alpha  occ. eigenvalues --   -0.46749  -0.46741  -0.46600  -0.46453  -0.46431
 Alpha  occ. eigenvalues --   -0.46191  -0.46116  -0.46077  -0.45888  -0.45761
 Alpha  occ. eigenvalues --   -0.45666  -0.45303  -0.45258  -0.45098  -0.44884
 Alpha  occ. eigenvalues --   -0.44683  -0.44645  -0.44565  -0.44508  -0.44234
 Alpha  occ. eigenvalues --   -0.43821  -0.43757  -0.43590  -0.43574  -0.43296
 Alpha  occ. eigenvalues --   -0.43016  -0.42838  -0.42756  -0.42607  -0.42470
 Alpha  occ. eigenvalues --   -0.42465  -0.42329  -0.42271  -0.41929  -0.41840
 Alpha  occ. eigenvalues --   -0.41808  -0.41513  -0.41412  -0.41299  -0.41286
 Alpha  occ. eigenvalues --   -0.41177  -0.41007  -0.40985  -0.40548  -0.40505
 Alpha  occ. eigenvalues --   -0.40289  -0.39718  -0.39551  -0.39322  -0.39218
 Alpha  occ. eigenvalues --   -0.38705  -0.38391  -0.37918  -0.37855  -0.37719
 Alpha  occ. eigenvalues --   -0.37544  -0.36971  -0.36913  -0.36549  -0.36219
 Alpha  occ. eigenvalues --   -0.36146  -0.35993  -0.34720  -0.34451  -0.34018
 Alpha  occ. eigenvalues --   -0.33760  -0.33130  -0.33007  -0.31804  -0.31691
 Alpha  occ. eigenvalues --   -0.31236  -0.30901  -0.30737  -0.30468  -0.30124
 Alpha  occ. eigenvalues --   -0.30084  -0.29391  -0.29012  -0.24321  -0.23829
 Alpha  occ. eigenvalues --   -0.21691  -0.20958
 Alpha virt. eigenvalues --   -0.09164  -0.08716  -0.01906  -0.01115   0.00119
 Alpha virt. eigenvalues --    0.00126   0.01320   0.01782   0.01991   0.02079
 Alpha virt. eigenvalues --    0.04770   0.04963   0.05486   0.05525   0.06038

 Mulliken charges:
               1
     1  Mg  11.999995
     2  C    6.000040
     3  C    6.000039
     4  C    5.999924
     5  C    5.999943
     6  N    7.000007
     7  C    5.999921
     8  C    6.000042
     9  C    5.999961
    10  C    6.000020
    11  C    5.999984
    12  C    6.000018
    13  C    6.000015
    14  H    0.999975
    15  N    6.999991
    16  C    6.000122
    17  C    6.000054
    18  C    6.000034
    19  C    6.000169
    20  C    5.999970
    21  C    6.000053
    22  O    8.000080
    23  C    5.999982
    24  N    6.999995
    25  C    6.000093
    26  C    5.999973
    27  C    6.000023
    28  C    5.999992
    29  C    5.999992
    30  C    6.000010
    31  C    6.000008
    32  N    6.999982
    33  C    5.999930
    34  C    5.999886
    35  C    6.000027
    36  C    5.999897
    37  C    6.000029
    38  C    5.999900
    39  O    7.999899
    40  C    5.999994
    41  C    5.999986
    42  O    7.999972
    43  O    8.000006
    44  C    6.000004
    45  H    1.000029
    46  H    1.000032
    47  H    0.999990
    48  H    0.999992
    49  H    1.000023
    50  H    1.000021
    51  H    1.000042
    52  H    1.000001
    53  H    1.000004
    54  H    0.999972
    55  H    0.999960
    56  H    1.000012
    57  H    1.000081
    58  H    1.000075
    59  H    1.000073
    60  H    1.000056
    61  H    1.000044
    62  H    1.000016
    63  H    1.000003
    64  H    1.000001
    65  H    0.999994
    66  H    1.000033
    67  H    1.000008
    68  H    0.999995
    69  H    0.999971
    70  H    0.999984
    71  H    1.000006
    72  H    0.999993
    73  H    0.999907
    74  H    0.999937
    75  H    0.999903
    76  H    0.999950
    77  H    0.999979
    78  H    0.999990
    79  H    0.999985
    80  Mg  11.997540
    81  C    6.024470
    82  C    5.984095
    83  C    5.968053
    84  C    6.011388
    85  N    7.008194
    86  C    5.972380
    87  C    6.010858
    88  C    5.984745
    89  C    6.034055
    90  C    5.999278
    91  C    6.001257
    92  C    6.000827
    93  H    0.992364
    94  N    6.991472
    95  C    6.041521
    96  C    6.025481
    97  C    6.012561
    98  C    6.040685
    99  C    5.995563
   100  C    6.014074
   101  O    8.027125
   102  C    5.991660
   103  N    6.990649
   104  C    6.047696
   105  C    5.988422
   106  C    6.009168
   107  C    5.971793
   108  C    5.996111
   109  C    6.008694
   110  C    6.000486
   111  N    7.000194
   112  C    5.964291
   113  C    5.961461
   114  C    5.999763
   115  C    5.962122
   116  C    6.004961
   117  C    5.985624
   118  O    7.971373
   119  C    5.992524
   120  C    5.994787
   121  O    7.997845
   122  O    7.997946
   123  C    6.002595
   124  H    1.010423
   125  H    1.005336
   126  H    0.987764
   127  H    0.999906
   128  H    1.006143
   129  H    1.013909
   130  H    0.998180
   131  H    1.000388
   132  H    0.990890
   133  H    1.008202
   134  H    0.997595
   135  H    1.006336
   136  H    1.022914
   137  H    1.018931
   138  H    1.018094
   139  H    1.004991
   140  H    1.009941
   141  H    1.015089
   142  H    1.000299
   143  H    0.996744
   144  H    0.995394
   145  H    1.012851
   146  H    1.003252
   147  H    1.005746
   148  H    0.985918
   149  H    0.992670
   150  H    0.997315
   151  H    1.002150
   152  H    0.980682
   153  H    0.980475
   154  H    0.975142
   155  H    0.990660
   156  H    0.999410
   157  H    0.993158
   158  H    0.994952
 Sum of Mulliken charges = 624.00000

 Dipole moment (field-independent basis, Debye):
    X=             -0.9463    Y=             11.1501    Z=             -0.6914  Tot=             11.2115
 Quadrupole moment (field-independent basis, Debye-Ang):
   XX=            -52.5234   YY=              9.8580   ZZ=             -3.3159
   XY=            320.3376   XZ=            -20.1248   YZ=              4.4528

 Normal termination of Gaussian 16 at Wed Sep 22 18:02:25 2021.
