 Gaussian 16, Revision A.03,
 Gaussian 16:  ES64L-G16RevA.03 25-Dec-2016

 -----------------------------------
 #p cam-b3lyp/Def2SVP td=(nstates=5)
 -----------------------------------

 --------------------------------
 TDDFT excited states in gaussian
 --------------------------------
 Symbolic Z-matrix:
 Charge =  0 Multiplicity = 1

                         Standard orientation:
 ---------------------------------------------------------------------
 Center     Atomic      Atomic             Coordinates (Angstroms)
 Number     Number       Type             X           Y           Z
 ---------------------------------------------------------------------
      1         12           0      -21.614187    0.085616   -0.648538
      2          6           0      -18.359999   -0.287968    0.506336
      3          6           0      -22.267423   -3.256769    0.331413
      4          6           0      -24.894670    0.720110   -0.649880
      5          6           0      -20.985823    3.543986   -0.919646
      6          7           0      -20.486035   -1.510395    0.667560
      7          6           0      -19.115143   -1.464099    0.750310
      8          6           0      -18.554855   -2.739466    1.297200
      9          6           0      -19.744020   -3.764025    0.999631
     10          6           0      -20.952358   -2.819217    0.666403
     11          6           0      -19.472613   -4.839185   -0.169576
     12          6           0      -18.078850   -2.542256    2.827549
     13          6           0      -17.038343   -3.446277    3.259181
     14          1           0      -17.405271   -4.253678    4.522341
     15          7           0      -23.341911   -1.110805   -0.404724
     16          6           0      -23.400354   -2.475431   -0.005473
     17          6           0      -24.797450   -2.875001   -0.018051
     18          6           0      -25.596725   -1.746222   -0.322027
     19          6           0      -24.601921   -0.647453   -0.562420
     20          6           0      -25.232955   -4.226191    0.411754
     21          6           0      -27.182703   -1.748361   -0.324497
     22          8           0      -27.737593   -2.814059   -0.061109
     23          6           0      -27.992037   -0.605174   -0.927139
     24          7           0      -22.714688    1.890930   -0.667607
     25          6           0      -24.065386    1.832081   -0.785975
     26          6           0      -24.771181    3.326398   -0.803353
     27          6           0      -23.482262    4.229340   -1.111540
     28          6           0      -22.305553    3.219597   -0.927296
     29          6           0      -25.881192    3.549230   -1.899185
     30          6           0      -23.346927    5.425969   -0.168042
     31          6           0      -23.307134    6.871110   -0.720144
     32          7           0      -19.958719    1.317019   -0.565419
     33          6           0      -19.858046    2.667718   -0.732358
     34          6           0      -18.471672    3.043828   -0.695579
     35          6           0      -17.853510    1.862149   -0.137554
     36          6           0      -18.844733    0.869815   -0.049913
     37          6           0      -17.915647    4.426279   -0.879745
     38          6           0      -16.612975    1.357198    0.412830
     39          8           0      -15.514473    1.822789    0.382698
     40          6           0      -16.840524   -0.147010    0.833373
     41          6           0      -16.036668   -1.176801    0.009248
     42          8           0      -15.997409   -1.210327   -1.201908
     43          8           0      -15.285844   -1.994968    0.878399
     44          6           0      -14.349321   -2.891881    0.271410
     45          1           0      -22.386049   -4.311299    0.585940
     46          1           0      -25.920160    1.021709   -0.427347
     47          1           0      -20.834718    4.619001   -1.033523
     48          1           0      -17.780507   -3.161795    0.655954
     49          1           0      -19.960680   -4.304075    1.922023
     50          1           0      -19.560347   -5.812098    0.313829
     51          1           0      -18.497243   -4.717621   -0.639705
     52          1           0      -20.277903   -4.710348   -0.893349
     53          1           0      -18.983869   -2.748816    3.398595
     54          1           0      -17.875817   -1.471113    2.843666
     55          1           0      -16.164323   -2.826326    3.455178
     56          1           0      -16.840871   -4.186571    2.483943
     57          1           0      -24.392895   -4.917298    0.478509
     58          1           0      -25.879485   -4.667240   -0.347324
     59          1           0      -25.704689   -4.196523    1.394219
     60          1           0      -27.901227    0.333782   -0.380139
     61          1           0      -29.032917   -0.928055   -0.965815
     62          1           0      -27.657235   -0.481254   -1.957082
     63          1           0      -25.092131    3.459811    0.229382
     64          1           0      -23.371966    4.532435   -2.152954
     65          1           0      -26.850904    3.676952   -1.418976
     66          1           0      -25.924441    2.678196   -2.554141
     67          1           0      -25.599396    4.448199   -2.448458
     68          1           0      -22.512757    5.301042    0.521987
     69          1           0      -24.110455    5.482814    0.607610
     70          1           0      -22.362644    7.411349   -0.649991
     71          1           0      -24.002384    7.428356   -0.091822
     72          1           0      -23.603530    6.902042   -1.769306
     73          1           0      -16.853428    4.314508   -1.098634
     74          1           0      -17.771292    4.992746    0.039704
     75          1           0      -18.464975    5.055270   -1.579755
     76          1           0      -16.476334   -0.167638    1.860907
     77          1           0      -14.314329   -3.673883    1.030622
     78          1           0      -13.338441   -2.484604    0.264850
     79          1           0      -14.668049   -3.166440   -0.733343
     80         12           0       20.844967    0.851263   -0.347669
     81          6           0       21.220855   -2.693137   -0.200601
     82          6           0       18.290995    0.461266    1.734906
     83          6           0       21.021433    4.144790    0.389243
     84          6           0       24.127810    0.883154   -1.734075
     85          7           0       19.833958   -0.856916    0.519298
     86          6           0       20.082211   -2.240816    0.391997
     87          6           0       19.066525   -3.121940    1.185315
     88          6           0       18.103910   -2.038781    1.749355
     89          6           0       18.713994   -0.716408    1.238384
     90          6           0       16.685760   -2.385456    1.266257
     91          6           0       19.643281   -4.066597    2.326287
     92          6           0       19.519926   -5.568983    2.100143
     93          1           0       18.792977   -6.392724    3.182671
     94          7           0       19.784779    2.141517    0.782571
     95          6           0       18.726675    1.759290    1.606938
     96          6           0       18.099694    2.890197    2.161549
     97          6           0       18.751402    4.015247    1.691076
     98          6           0       19.887686    3.512294    0.945913
     99          6           0       16.849908    2.956418    3.115766
    100          6           0       18.298761    5.421598    2.006649
    101          8           0       17.286323    5.688572    2.582714
    102          6           0       19.206017    6.594564    1.386389
    103          7           0       22.378415    2.307251   -0.559233
    104          6           0       22.170297    3.612489   -0.205535
    105          6           0       23.543202    4.372268   -0.418069
    106          6           0       24.478338    3.425476   -1.188735
    107          6           0       23.628283    2.098487   -1.155490
    108          6           0       23.417301    5.764831   -0.967528
    109          6           0       25.762182    3.221611   -0.393980
    110          6           0       26.984810    2.785221   -1.156689
    111          7           0       22.290471   -0.598146   -1.103928
    112          6           0       23.539357   -0.421751   -1.650174
    113          6           0       24.085605   -1.670943   -2.039067
    114          6           0       23.195316   -2.665206   -1.568915
    115          6           0       22.179112   -1.926164   -0.899944
    116          6           0       25.403465   -1.924873   -2.653491
    117          6           0       22.871491   -4.088895   -1.405652
    118          8           0       23.474537   -5.073913   -1.852414
    119          6           0       21.562061   -4.186802   -0.532463
    120          6           0       20.483344   -4.670026   -1.352542
    121          8           0       19.929131   -3.928027   -2.197680
    122          8           0       20.297015   -5.968901   -1.045878
    123          6           0       19.110286   -6.670289   -1.607791
    124          1           0       17.422176    0.368670    2.390445
    125          1           0       21.010016    5.218247    0.589860
    126          1           0       25.077381    0.835889   -2.270622
    127          1           0       18.518224   -3.762362    0.494495
    128          1           0       18.104181   -1.980080    2.837351
    129          1           0       16.050428   -1.538968    1.525251
    130          1           0       16.241913   -3.283252    1.696237
    131          1           0       16.638357   -2.527686    0.186032
    132          1           0       18.979676   -3.885724    3.171899
    133          1           0       20.665488   -3.777375    2.570543
    134          1           0       20.529067   -5.958508    1.961656
    135          1           0       18.949999   -5.747122    1.187567
    136          1           0       17.168060    3.549760    3.973230
    137          1           0       16.542369    1.967293    3.454751
    138          1           0       15.926380    3.320574    2.665744
    139          1           0       18.677439    7.521088    1.608577
    140          1           0       19.249616    6.334031    0.328614
    141          1           0       20.147852    6.451794    1.916081
    142          1           0       23.918545    4.490848    0.598987
    143          1           0       24.751606    3.720207   -2.201880
    144          1           0       24.315385    5.987233   -1.543148
    145          1           0       23.316604    6.418374   -0.100787
    146          1           0       22.501637    5.947314   -1.528777
    147          1           0       25.644385    2.527816    0.438916
    148          1           0       26.049194    4.115566    0.159670
    149          1           0       26.857658    2.851946   -2.237036
    150          1           0       27.188346    1.747629   -0.891189
    151          1           0       27.874245    3.292148   -0.782608
    152          1           0       25.740396   -1.076522   -3.250051
    153          1           0       25.265160   -2.803285   -3.284327
    154          1           0       26.089897   -2.061230   -1.817522
    155          1           0       21.678953   -4.726267    0.407450
    156          1           0       19.524634   -7.671909   -1.731489
    157          1           0       18.728195   -6.229070   -2.527881
    158          1           0       18.348558   -6.839867   -0.846048
 ---------------------------------------------------------------------

 SCF Done:  E(RCAM-B3LYP) =  -4069.78164306     A.U. after   18 cycles

 Excitation energies and oscillator strengths:

 Excited State   1:      Singlet-A      1.6845 eV  736.01 nm  f=0.3935  <S**2>=0.000
     309 -> 316       -0.17407
     312 -> 313        0.68805
     309 <- 316       -0.10833
 This state for optimization and/or second-order correction.
 Total Energy, E(TD-HF/TD-DFT) =  -4069.71973737
 Copying the excited state density for this state as the 1-particle RhoCI density.

 Excited State   2:      Singlet-A      1.7226 eV  719.75 nm  f=0.3835  <S**2>=0.000
     310 -> 315        0.17107
     311 -> 314        0.68735
     310 <- 315        0.10384

 Excited State   3:      Singlet-A      2.2457 eV  552.10 nm  f=0.1062  <S**2>=0.000
     309 -> 313        0.63688
     312 -> 316        0.29181

 Excited State   4:      Singlet-A      2.2584 eV  548.99 nm  f=0.1182  <S**2>=0.000
     310 -> 314        0.63721
     311 -> 315       -0.28973

 Excited State   5:      Singlet-A      3.1631 eV  391.97 nm  f=0.0000  <S**2>=0.000
     312 -> 314        0.70710

 The electronic state is 1-A.
 Alpha  occ. eigenvalues --  -46.89812 -46.88494 -19.26492 -19.25146 -19.20757
 Alpha  occ. eigenvalues --  -19.19707 -19.19646 -19.19624 -19.18718 -19.18270
 Alpha  occ. eigenvalues --  -14.42517 -14.42324 -14.42165 -14.42023 -14.40209
 Alpha  occ. eigenvalues --  -14.39489 -14.39093 -14.38452 -10.40096 -10.39491
 Alpha  occ. eigenvalues --  -10.36391 -10.35459 -10.35375 -10.34032 -10.32826
 Alpha  occ. eigenvalues --  -10.31823 -10.31632 -10.31621 -10.31478 -10.31473
 Alpha  occ. eigenvalues --  -10.31199 -10.30981 -10.30973 -10.30583 -10.30572
 Alpha  occ. eigenvalues --  -10.30486 -10.30460 -10.29665 -10.29600 -10.29291
 Alpha  occ. eigenvalues --  -10.28994 -10.28670 -10.28659 -10.28521 -10.28520
 Alpha  occ. eigenvalues --  -10.28492 -10.28322 -10.28233 -10.28196 -10.28178
 Alpha  occ. eigenvalues --  -10.28146 -10.28128 -10.28120 -10.28007 -10.27939
 Alpha  occ. eigenvalues --  -10.27822 -10.27762 -10.27662 -10.27632 -10.27604
 Alpha  occ. eigenvalues --  -10.27296 -10.27168 -10.27093 -10.27072 -10.27051
 Alpha  occ. eigenvalues --  -10.26905 -10.26875 -10.26820 -10.26709 -10.26450
 Alpha  occ. eigenvalues --  -10.26441 -10.26422 -10.26408 -10.26341 -10.26304
 Alpha  occ. eigenvalues --  -10.26237 -10.25982 -10.25869 -10.25828 -10.25740
 Alpha  occ. eigenvalues --  -10.25707 -10.25471 -10.25422 -10.25153 -10.24819
 Alpha  occ. eigenvalues --  -10.24643  -3.18230  -3.17092  -1.93079  -1.92739
 Alpha  occ. eigenvalues --   -1.92497  -1.91969  -1.91528  -1.91419  -1.16628
 Alpha  occ. eigenvalues --   -1.16094  -1.11963  -1.10808  -1.10303  -1.08750
 Alpha  occ. eigenvalues --   -1.08650  -1.07381  -1.04924  -1.04101  -1.03164
 Alpha  occ. eigenvalues --   -1.02927  -1.02819  -1.02396  -1.01729  -1.01608
 Alpha  occ. eigenvalues --   -0.92257  -0.92196  -0.89651  -0.89330  -0.89228
 Alpha  occ. eigenvalues --   -0.88694  -0.88384  -0.88197  -0.87316  -0.86886
 Alpha  occ. eigenvalues --   -0.86627  -0.86490  -0.86441  -0.85826  -0.84801
 Alpha  occ. eigenvalues --   -0.84222  -0.84104  -0.83381  -0.83280  -0.82713
 Alpha  occ. eigenvalues --   -0.82245  -0.81894  -0.81162  -0.81118  -0.80295
 Alpha  occ. eigenvalues --   -0.80267  -0.77848  -0.77713  -0.77361  -0.77344
 Alpha  occ. eigenvalues --   -0.76777  -0.76667  -0.76241  -0.76138  -0.75113
 Alpha  occ. eigenvalues --   -0.74948  -0.72736  -0.72675  -0.71707  -0.71358
 Alpha  occ. eigenvalues --   -0.69253  -0.69241  -0.68602  -0.68450  -0.67739
 Alpha  occ. eigenvalues --   -0.67468  -0.67226  -0.66520  -0.65932  -0.65681
 Alpha  occ. eigenvalues --   -0.65587  -0.64981  -0.64827  -0.64544  -0.64518
 Alpha  occ. eigenvalues --   -0.64108  -0.62836  -0.62223  -0.60129  -0.59664
 Alpha  occ. eigenvalues --   -0.59617  -0.59492  -0.59414  -0.59007  -0.58580
 Alpha  occ. eigenvalues --   -0.58503  -0.58197  -0.58021  -0.57478  -0.57130
 Alpha  occ. eigenvalues --   -0.56394  -0.56344  -0.56028  -0.55346  -0.54980
 Alpha  occ. eigenvalues --   -0.54958  -0.54848  -0.54675  -0.54263  -0.54019
 Alpha  occ. eigenvalues --   -0.53798  -0.53259  -0.53151  -0.52859  -0.52735
 Alpha  occ. eigenvalues --   -0.52613  -0.52461  -0.52460  -0.52387  -0.52105
 Alpha  occ. eigenvalues --   -0.51749  -0.51665  -0.51655  -0.51461  -0.51220
 Alpha  occ. eigenvalues --   -0.51053  -0.50812  -0.50563  -0.50332  -0.50215
 Alpha  occ. eigenvalues --   -0.50140  -0.50098  -0.49948  -0.49848  -0.49718
 Alpha  occ. eigenvalues --   -0.49628  -0.49230  -0.49161  -0.49157  -0.48905
 Alpha  occ. eigenvalues --   -0.48775  -0.48464  -0.48411  -0.48241  -0.48044
 Alpha  occ. eigenvalues --   -0.48027  -0.47904  -0.47503  -0.47465  -0.47320
 Alpha  occ. eigenvalues --   -0.47039  -0.46964  -0.46941  -0.46435  -0.46401
 Alpha  occ. eigenvalues --   -0.46278  -0.46184  -0.46071  -0.45936  -0.45689
 Alpha  occ. eigenvalues --   -0.45596  -0.45289  -0.45252  -0.45136  -0.44971
 Alpha  occ. eigenvalues --   -0.44905  -0.44777  -0.44716  -0.44524  -0.44300
 Alpha  occ. eigenvalues --   -0.44107  -0.44088  -0.43979  -0.43695  -0.43545
 Alpha  occ. eigenvalues --   -0.43449  -0.43395  -0.43270  -0.43123  -0.43067
 Alpha  occ. eigenvalues --   -0.42780  -0.42724  -0.42694  -0.42542  -0.42509
 Alpha  occ. eigenvalues --   -0.42290  -0.42207  -0.41919  -0.41643  -0.41622
 Alpha  occ. eigenvalues --   -0.41439  -0.41088  -0.40989  -0.40569  -0.40476
 Alpha  occ. eigenvalues --   -0.40197  -0.40096  -0.39815  -0.39141  -0.38665
 Alpha  occ. eigenvalues --   -0.38369  -0.38208  -0.38198  -0.37741  -0.37590
 Alpha  occ. eigenvalues --   -0.37200  -0.37081  -0.36708  -0.36686  -0.36243
 Alpha  occ. eigenvalues --   -0.35984  -0.35620  -0.34801  -0.34322  -0.34275
 Alpha  occ. eigenvalues --   -0.34149  -0.33293  -0.32915  -0.31773  -0.31596
 Alpha  occ. eigenvalues --   -0.31265  -0.30875  -0.30740  -0.30536  -0.30231
 Alpha  occ. eigenvalues --   -0.29981  -0.29186  -0.28912  -0.24329  -0.24254
 Alpha  occ. eigenvalues --   -0.21235  -0.21182
 Alpha virt. eigenvalues --   -0.08796  -0.08736  -0.01682  -0.01661   0.00378
 Alpha virt. eigenvalues --    0.00585   0.01320   0.02151   0.02201   0.02754
 Alpha virt. eigenvalues --    0.04557   0.04572   0.04656   0.04766   0.05655

 Mulliken charges:
               1
     1  Mg   0.828007
     2  C   -0.072429
     3  C   -0.057815
     4  C   -0.081609
     5  C   -0.081434
     6  N   -0.265419
     7  C   -0.081253
     8  C   -0.050741
     9  C   -0.081857
    10  C    0.007725
    11  C    0.060795
    12  C    0.092498
    13  C   -0.035249
    14  H    0.002921
    15  N   -0.385506
    16  C    0.158088
    17  C   -0.142462
    18  C   -0.067428
    19  C    0.178866
    20  C    0.144045
    21  C    0.031870
    22  O   -0.206486
    23  C    0.035039
    24  N   -0.335711
    25  C    0.049457
    26  C   -0.075282
    27  C    0.031369
    28  C    0.005894
    29  C    0.071052
    30  C    0.013951
    31  C   -0.000428
    32  N   -0.323368
    33  C    0.132913
    34  C   -0.155252
    35  C   -0.032977
    36  C    0.194956
    37  C    0.109650
    38  C    0.027419
    39  O   -0.144000
    40  C   -0.010154
    41  C    0.212587
    42  O   -0.191222
    43  O   -0.358190
    44  C    0.169361
    45  H   -0.013838
    46  H   -0.041827
    47  H   -0.032947
    48  H    0.008078
    49  H    0.010247
    50  H    0.021944
    51  H    0.030836
    52  H    0.021839
    53  H    0.012240
    54  H    0.014213
    55  H    0.040367
    56  H    0.028141
    57  H   -0.012265
    58  H    0.032707
    59  H    0.042220
    60  H    0.049855
    61  H    0.031287
    62  H    0.045631
    63  H    0.029953
    64  H    0.018162
    65  H    0.017710
    66  H    0.025638
    67  H    0.023980
    68  H    0.007632
    69  H   -0.005475
    70  H    0.018763
    71  H    0.012249
    72  H    0.011903
    73  H    0.026185
    74  H    0.020819
    75  H    0.022590
    76  H    0.044393
    77  H    0.028329
    78  H    0.035813
    79  H    0.050437
    80  Mg   0.849668
    81  C   -0.035864
    82  C   -0.127557
    83  C   -0.088496
    84  C   -0.059174
    85  N   -0.306893
    86  C   -0.024907
    87  C   -0.013006
    88  C   -0.067189
    89  C    0.093623
    90  C    0.060682
    91  C    0.056373
    92  C   -0.082540
    93  H    0.016204
    94  N   -0.421941
    95  C    0.201568
    96  C   -0.158732
    97  C   -0.012268
    98  C    0.124728
    99  C    0.150601
   100  C   -0.039982
   101  O   -0.163444
   102  C    0.032930
   103  N   -0.321059
   104  C    0.081248
   105  C   -0.032054
   106  C   -0.024567
   107  C    0.083671
   108  C    0.078937
   109  C   -0.005211
   110  C    0.032839
   111  N   -0.303147
   112  C    0.079970
   113  C   -0.204858
   114  C    0.040291
   115  C    0.083688
   116  C    0.124728
   117  C    0.054355
   118  O   -0.186675
   119  C   -0.001727
   120  C    0.227739
   121  O   -0.252759
   122  O   -0.320004
   123  C    0.163777
   124  H   -0.038998
   125  H   -0.061725
   126  H   -0.037203
   127  H    0.007705
   128  H    0.019300
   129  H    0.005418
   130  H    0.019892
   131  H    0.021168
   132  H    0.017042
   133  H    0.023283
   134  H    0.047032
   135  H    0.015747
   136  H    0.039278
   137  H   -0.011711
   138  H    0.039032
   139  H    0.030982
   140  H    0.046626
   141  H    0.048711
   142  H    0.020542
   143  H    0.012691
   144  H    0.018338
   145  H    0.010019
   146  H    0.016857
   147  H    0.005618
   148  H   -0.002438
   149  H    0.015933
   150  H    0.008826
   151  H    0.008716
   152  H    0.009157
   153  H    0.043170
   154  H    0.037448
   155  H    0.028161
   156  H    0.043845
   157  H    0.067969
   158  H    0.040007
 Sum of Mulliken charges =  -0.00000

 Dipole moment (field-independent basis, Debye):
    X=             -3.2241    Y=              1.7962    Z=              0.8421  Tot=              3.7856
 Quadrupole moment (field-independent basis, Debye-Ang):
   XX=           -431.5275   YY=           -491.2093   ZZ=           -521.4265
   XY=             13.4308   XZ=             48.9560   YZ=            -22.4543

 Normal termination of Gaussian 16 at Wed Sep 15 05:09:53 2021.
