 Gaussian 16, Revision A.03,
 Gaussian 16:  ES64L-G16RevA.03 25-Dec-2016

 ---------------------------------------------------
 #p cam-b3lyp/Def2SVP td=(nstates=5) density=(CIS=1)
 ---------------------------------------------------

 --------------------------------
 TDDFT excited states in gaussian
 --------------------------------
 Symbolic Z-matrix:
 Charge =  0 Multiplicity = 1

                         Standard orientation:
 ---------------------------------------------------------------------
 Center     Atomic      Atomic             Coordinates (Angstroms)
 Number     Number       Type             X           Y           Z
 ---------------------------------------------------------------------
      1         12           0       -0.720818    0.040264    0.230750
      2          6           0        2.745253    0.481000    0.039047
      3          6           0       -0.282474   -3.349195    0.235909
      4          6           0       -4.007351   -0.295452    0.065856
      5          6           0       -1.040800    3.594378    0.025061
      6          7           0        1.063573   -1.267369    0.097237
      7          6           0        2.394460   -0.913206    0.095942
      8          6           0        3.268703   -2.130030    0.336762
      9          6           0        2.272174   -3.334098    0.106485
     10          6           0        0.910892   -2.571313    0.247265
     11          6           0        2.424295   -4.001229   -1.254587
     12          6           0        4.017318   -1.989765    1.712182
     13          6           0        4.767943   -3.280919    2.141371
     14          1           0        5.287687   -4.167031    1.028439
     15          7           0       -1.928000   -1.542341    0.180056
     16          6           0       -1.579186   -2.883386    0.081294
     17          6           0       -2.766446   -3.749460   -0.026014
     18          6           0       -3.857053   -2.826315   -0.033992
     19          6           0       -3.274781   -1.490445    0.063814
     20          6           0       -2.692746   -5.230212   -0.051852
     21          6           0       -5.318173   -3.179449   -0.140717
     22          8           0       -6.223020   -2.300593   -0.094146
     23          6           0       -5.771525   -4.611577   -0.227661
     24          7           0       -2.312016    1.475621    0.123765
     25          6           0       -3.566128    1.026301    0.070426
     26          6           0       -4.578093    2.234674   -0.152923
     27          6           0       -3.590130    3.529183   -0.208800
     28          6           0       -2.237320    2.839833   -0.025974
     29          6           0       -5.393384    1.967981   -1.484115
     30          6           0       -3.816753    4.580253    0.960406
     31          6           0       -4.912896    5.653815    0.703147
     32          7           0        0.507287    1.701687    0.002794
     33          6           0        0.275634    3.101833    0.049302
     34          6           0        1.611813    3.842118    0.006098
     35          6           0        2.601846    2.867861   -0.072431
     36          6           0        1.872826    1.576583    0.011232
     37          6           0        1.845321    5.318421    0.082972
     38          6           0        4.020515    2.600464   -0.111908
     39          8           0        5.003926    3.346838   -0.146898
     40          6           0        4.191977    1.021574    0.144704
     41          6           0        5.148672    0.371213   -0.828225
     42          8           0        4.828973   -0.047730   -1.907834
     43          8           0        6.395344    0.106801   -0.217408
     44          6           0        7.257603   -0.899845   -0.854509
     45          1           0        0.019477   -4.397574    0.181974
     46          1           0       -5.090883   -0.412996   -0.004181
     47          1           0       -1.066486    4.672908   -0.144543
     48          1           0        4.042823   -2.132100   -0.429539
     49          1           0        2.281802   -4.107050    0.875639
     50          1           0        2.618441   -5.053014   -1.044995
     51          1           0        3.193613   -3.470017   -1.814530
     52          1           0        1.480563   -4.080497   -1.793678
     53          1           0        3.245563   -1.528044    2.327276
     54          1           0        4.745979   -1.194160    1.560393
     55          1           0        4.029362   -3.801715    2.750839
     56          1           0        5.622483   -2.986011    2.750213
     57          1           0       -3.075274   -5.464425   -1.045140
     58          1           0       -3.245841   -5.703106    0.759225
     59          1           0       -1.718737   -5.719751   -0.014446
     60          1           0       -5.499903   -5.124249    0.694081
     61          1           0       -5.217401   -4.898183   -1.122343
     62          1           0       -6.825401   -4.774365   -0.451667
     63          1           0       -5.142283    2.179943    0.778910
     64          1           0       -3.419534    3.991120   -1.182155
     65          1           0       -5.114945    1.054928   -2.010053
     66          1           0       -5.240251    2.791150   -2.182515
     67          1           0       -6.424574    1.817183   -1.166094
     68          1           0       -2.879185    4.982904    1.342667
     69          1           0       -4.187179    4.000797    1.805429
     70          1           0       -5.613899    5.588558    1.534524
     71          1           0       -5.344485    5.477339   -0.282173
     72          1           0       -4.503904    6.664455    0.703140
     73          1           0        2.254407    5.507988    1.075588
     74          1           0        0.911754    5.857487   -0.082632
     75          1           0        2.574860    5.754476   -0.599155
     76          1           0        4.540023    0.921895    1.172414
     77          1           0        7.713976   -0.380224   -1.696596
     78          1           0        6.696153   -1.808869   -1.071206
     79          1           0        7.991285   -1.188174   -0.102205
 ---------------------------------------------------------------------

 SCF Done:  E(RCAM-B3LYP) =  -2034.91794160     A.U. after   17 cycles

 Excitation energies and oscillator strengths:

 Excited State   1:      Singlet-A      1.7141 eV  723.31 nm  f=0.0000  <S**2>=0.000
     155 ->158        -0.19955
     156 ->157         0.68035
     155 <-158        -0.11166
 This state for optimization and/or second-order correction.
 Total Energy, E(TD-HF/TD-DFT) =  -2034.85494884
 Copying the excited state density for this state as the 1-particle RhoCI density.

 Excited State   2:      Singlet-A      2.2903 eV  541.34 nm  f=0.0000  <S**2>=0.000
     155 ->157         0.58794
     156 ->158         0.38619

 Excited State   3:      Singlet-A      3.3682 eV  368.10 nm  f=0.0000  <S**2>=0.000
     151 ->157        -0.12286
     155 ->157        -0.37316
     156 ->158         0.57616
     155 <-157         0.10890

 Excited State   4:      Singlet-A      3.5179 eV  352.44 nm  f=0.0000  <S**2>=0.000
     152 ->157         0.50393
     152 ->158         0.11464
     152 ->159        -0.31463
     152 ->160        -0.30627

 Excited State   5:      Singlet-A      3.5541 eV  348.85 nm  f=0.0000  <S**2>=0.000
     150 ->157         0.27208
     150 ->159         0.21606
     150 ->160        -0.11698
     151 ->157         0.20569
     151 ->159         0.20537
     153 ->157         0.36737
     153 ->159         0.23535
     153 ->160        -0.12356
     154 ->157         0.14315

 The electronic state is 1-A.
 Alpha  occ. eigenvalues --  -46.88065 -19.23971 -19.20294 -19.19177 -19.18386
 Alpha  occ. eigenvalues --  -14.42144 -14.41553 -14.39946 -14.39871 -10.39414
 Alpha  occ. eigenvalues --  -10.35528 -10.35241 -10.31754 -10.30909 -10.30749
 Alpha  occ. eigenvalues --  -10.30605 -10.30360 -10.30351 -10.30309 -10.30107
 Alpha  occ. eigenvalues --  -10.29614 -10.29471 -10.29220 -10.29099 -10.28536
 Alpha  occ. eigenvalues --  -10.28292 -10.28185 -10.28134 -10.27733 -10.27702
 Alpha  occ. eigenvalues --  -10.27606 -10.27570 -10.27156 -10.26898 -10.26614
 Alpha  occ. eigenvalues --  -10.26436 -10.26430 -10.26215 -10.25981 -10.25759
 Alpha  occ. eigenvalues --  -10.25563 -10.25393 -10.25145  -3.16747  -1.91652
 Alpha  occ. eigenvalues --   -1.91188  -1.91078  -1.15470  -1.09109  -1.07800
 Alpha  occ. eigenvalues --   -1.07769  -1.04323  -1.03461  -1.02792  -1.01370
 Alpha  occ. eigenvalues --   -0.91600  -0.88908  -0.88571  -0.87822  -0.87558
 Alpha  occ. eigenvalues --   -0.86720  -0.86316  -0.84242  -0.82932  -0.82186
 Alpha  occ. eigenvalues --   -0.81925  -0.80750  -0.79996  -0.78957  -0.77412
 Alpha  occ. eigenvalues --   -0.76971  -0.75756  -0.74538  -0.72061  -0.71464
 Alpha  occ. eigenvalues --   -0.69405  -0.68609  -0.68269  -0.67059  -0.65505
 Alpha  occ. eigenvalues --   -0.65123  -0.63937  -0.63758  -0.61259  -0.60631
 Alpha  occ. eigenvalues --   -0.59488  -0.58690  -0.57790  -0.57506  -0.56767
 Alpha  occ. eigenvalues --   -0.56145  -0.55941  -0.54516  -0.54232  -0.53947
 Alpha  occ. eigenvalues --   -0.53676  -0.53238  -0.52505  -0.52203  -0.51894
 Alpha  occ. eigenvalues --   -0.51742  -0.51432  -0.51149  -0.50825  -0.50475
 Alpha  occ. eigenvalues --   -0.50057  -0.49528  -0.49421  -0.49314  -0.48998
 Alpha  occ. eigenvalues --   -0.48875  -0.48497  -0.48100  -0.48047  -0.47379
 Alpha  occ. eigenvalues --   -0.46870  -0.46173  -0.46068  -0.45724  -0.45588
 Alpha  occ. eigenvalues --   -0.45199  -0.45152  -0.44848  -0.44642  -0.44170
 Alpha  occ. eigenvalues --   -0.43984  -0.43460  -0.43115  -0.43063  -0.42887
 Alpha  occ. eigenvalues --   -0.42543  -0.42334  -0.42092  -0.41506  -0.41277
 Alpha  occ. eigenvalues --   -0.40902  -0.40324  -0.40178  -0.39218  -0.39067
 Alpha  occ. eigenvalues --   -0.38491  -0.38213  -0.37979  -0.36643  -0.36265
 Alpha  occ. eigenvalues --   -0.35885  -0.34527  -0.34136  -0.33168  -0.31306
 Alpha  occ. eigenvalues --   -0.30922  -0.30505  -0.30481  -0.30021  -0.23976
 Alpha  occ. eigenvalues --   -0.20419
 Alpha virt. eigenvalues --   -0.07878  -0.02130  -0.00203   0.02178   0.03268
 Alpha virt. eigenvalues --    0.04498   0.04964   0.05886   0.06624   0.08110
 Alpha virt. eigenvalues --    0.08436   0.09308   0.09524   0.09857   0.10477

 Mulliken charges:
               1
     1  Mg   0.832341
     2  C   -0.066429
     3  C   -0.130642
     4  C   -0.123371
     5  C   -0.100957
     6  N   -0.304457
     7  C    0.025938
     8  C   -0.010572
     9  C   -0.081225
    10  C    0.039138
    11  C    0.094474
    12  C    0.019444
    13  C   -0.043631
    14  H    0.032231
    15  N   -0.414966
    16  C    0.219564
    17  C   -0.176050
    18  C   -0.051415
    19  C    0.185364
    20  C    0.122115
    21  C   -0.019314
    22  O   -0.252106
    23  C    0.080329
    24  N   -0.321190
    25  C    0.063072
    26  C   -0.034731
    27  C    0.004603
    28  C    0.076089
    29  C    0.061871
    30  C    0.005018
    31  C    0.024489
    32  N   -0.374541
    33  C    0.148131
    34  C   -0.186411
    35  C    0.021667
    36  C    0.164012
    37  C    0.111425
    38  C    0.056520
    39  O   -0.193780
    40  C   -0.070759
    41  C    0.225077
    42  O   -0.190806
    43  O   -0.375489
    44  C    0.183834
    45  H   -0.035321
    46  H   -0.006435
    47  H   -0.024220
    48  H    0.011059
    49  H    0.004636
    50  H    0.006609
    51  H    0.036612
    52  H    0.014546
    53  H    0.016975
    54  H    0.015087
    55  H    0.036646
    56  H    0.035921
    57  H    0.031206
    58  H    0.034386
    59  H    0.011979
    60  H    0.044313
    61  H    0.019701
    62  H    0.028023
    63  H    0.026150
    64  H    0.021209
    65  H    0.031351
    66  H    0.016738
    67  H    0.027907
    68  H    0.011150
    69  H   -0.004569
    70  H    0.020011
    71  H    0.018704
    72  H    0.014661
    73  H    0.037656
    74  H    0.005588
    75  H    0.037259
    76  H    0.063410
    77  H    0.049879
    78  H    0.033300
    79  H    0.033968
 Sum of Mulliken charges =  -0.00000

 Dipole moment (field-independent basis, Debye):
    X=             -0.1517    Y=             -2.7548    Z=              2.0094  Tot=              3.4131
 Quadrupole moment (field-independent basis, Debye-Ang):
   XX=           -281.5092   YY=           -228.5728   ZZ=           -258.3401
   XY=            -34.3573   XZ=              7.6505   YZ=              1.1564

 Normal termination of Gaussian 16 at Fri Oct  8 18:55:17 2021.
