 Gaussian 16, Revision A.03,
 Gaussian 16:  ES64L-G16RevA.03 25-Dec-2016

 -----------------------------------
 #p cam-b3lyp/Def2SVP td=(nstates=5)
 -----------------------------------

 --------------------------------
 TDDFT excited states in gaussian
 --------------------------------
 Symbolic Z-matrix:
 Charge =  0 Multiplicity = 1

                         Standard orientation:
 ---------------------------------------------------------------------
 Center     Atomic      Atomic             Coordinates (Angstroms)
 Number     Number       Type             X           Y           Z
 ---------------------------------------------------------------------
      1         12           0       -8.766412    0.336003    0.717744
      2          6           0       -8.381061   -2.042914   -1.854288
      3          6           0       -6.539232   -1.438683    2.488281
      4          6           0       -8.823561    2.853814    2.800525
      5          6           0      -10.521346    2.316798   -1.683739
      6          7           0       -7.569789   -1.509071    0.313950
      7          6           0       -7.604028   -2.368125   -0.732279
      8          6           0       -6.720034   -3.585161   -0.549591
      9          6           0       -6.379683   -3.449393    0.988803
     10          6           0       -6.829263   -2.044411    1.332509
     11          6           0       -7.063299   -4.532254    1.921766
     12          6           0       -5.412569   -3.811801   -1.427121
     13          6           0       -4.781911   -2.661335   -2.255862
     14          1           0       -3.216494   -2.645015   -2.423114
     15          7           0       -7.869759    0.560576    2.509674
     16          6           0       -6.915835   -0.200574    3.028997
     17          6           0       -6.409650    0.442030    4.272381
     18          6           0       -7.239143    1.668315    4.443610
     19          6           0       -8.016455    1.734322    3.205726
     20          6           0       -5.424121   -0.199347    5.211669
     21          6           0       -7.139907    2.646139    5.585124
     22          8           0       -6.368710    2.397558    6.508581
     23          6           0       -7.902217    4.019117    5.679718
     24          7           0       -9.492932    2.430562    0.544247
     25          6           0       -9.491641    3.101620    1.643702
     26          6           0      -10.311800    4.442927    1.384145
     27          6           0      -10.603166    4.313767   -0.112384
     28          6           0      -10.158760    2.910356   -0.476892
     29          6           0      -11.560134    4.734041    2.233665
     30          6           0       -9.708428    5.294031   -1.033924
     31          6           0      -10.460956    6.412229   -1.778230
     32          7           0       -9.303882    0.263659   -1.336564
     33          6           0      -10.099014    1.051168   -2.126575
     34          6           0      -10.459844    0.340099   -3.380464
     35          6           0       -9.694821   -0.860471   -3.389076
     36          6           0       -9.108262   -0.871494   -2.050138
     37          6           0      -11.301150    0.887793   -4.554923
     38          6           0       -9.310229   -2.035942   -4.096593
     39          8           0       -9.459968   -2.434006   -5.264515
     40          6           0       -8.496243   -2.903194   -3.102850
     41          6           0       -9.237267   -4.236749   -2.969319
     42          8           0       -9.009297   -5.341905   -3.384393
     43          8           0      -10.258096   -4.061950   -2.028643
     44          6           0      -11.055468   -5.266019   -1.638427
     45          1           0       -5.805918   -2.032041    3.038746
     46          1           0       -8.842684    3.651501    3.547073
     47          1           0      -11.271022    2.820357   -2.297048
     48          1           0       -7.395956   -4.432679   -0.661920
     49          1           0       -5.305944   -3.572879    1.130749
     50          1           0       -7.720775   -5.182860    1.346081
     51          1           0       -7.734514   -3.911667    2.514426
     52          1           0       -6.298298   -5.065511    2.486432
     53          1           0       -5.629548   -4.640287   -2.101509
     54          1           0       -4.622367   -4.201655   -0.784592
     55          1           0       -5.081235   -1.741611   -1.753206
     56          1           0       -5.036908   -2.690484   -3.314768
     57          1           0       -5.377725    0.287896    6.185374
     58          1           0       -4.483346   -0.270875    4.664557
     59          1           0       -5.762080   -1.234590    5.268628
     60          1           0       -8.984110    4.072974    5.552716
     61          1           0       -7.542536    4.658377    4.873438
     62          1           0       -7.738651    4.513033    6.637093
     63          1           0       -9.709445    5.325113    1.598336
     64          1           0      -11.617179    4.497177   -0.469389
     65          1           0      -11.736933    3.955136    2.975558
     66          1           0      -12.442017    4.894826    1.612654
     67          1           0      -11.472565    5.636179    2.839129
     68          1           0       -9.189384    4.746440   -1.819396
     69          1           0       -8.963817    5.722301   -0.362576
     70          1           0      -10.049462    6.690108   -2.748885
     71          1           0      -10.358409    7.293239   -1.144725
     72          1           0      -11.467542    6.007235   -1.883174
     73          1           0      -11.481911    1.961957   -4.531951
     74          1           0      -12.254515    0.368870   -4.458418
     75          1           0      -10.849537    0.542980   -5.484783
     76          1           0       -7.500616   -3.078313   -3.509139
     77          1           0      -11.198179   -6.057545   -2.373777
     78          1           0      -12.050011   -4.856187   -1.463309
     79          1           0      -10.808370   -5.773929   -0.705965
     80         12           0        8.842767    0.686210   -0.357465
     81          6           0        7.858280   -2.524858    0.649806
     82          6           0        5.515222    1.468660   -0.769071
     83          6           0        9.795684    3.691852   -1.332013
     84          6           0       12.185985   -0.343155   -0.031895
     85          7           0        6.956575   -0.416887    0.007071
     86          6           0        6.749353   -1.738640    0.402093
     87          6           0        5.255026   -2.040150    0.814088
     88          6           0        4.596125   -0.818385    0.203475
     89          6           0        5.760788    0.169945   -0.217843
     90          6           0        3.808795   -1.208001   -1.130529
     91          6           0        5.265179   -1.937327    2.403850
     92          6           0        4.422323   -3.023809    3.205879
     93          1           0        3.203009   -3.409987    2.408255
     94          7           0        7.823971    2.247703   -1.085299
     95          6           0        6.507044    2.400838   -1.191877
     96          6           0        6.138361    3.702924   -1.681083
     97          6           0        7.337386    4.442849   -1.686685
     98          6           0        8.426090    3.431580   -1.410262
     99          6           0        4.763582    4.158511   -2.008388
    100          6           0        7.572741    5.932533   -1.828516
    101          8           0        8.653707    6.469852   -1.561674
    102          6           0        6.480244    6.824579   -2.424584
    103          7           0       10.763306    1.526459   -0.685585
    104          6           0       10.821777    2.856244   -1.030124
    105          6           0       12.280602    3.304904   -0.976238
    106          6           0       13.076343    2.020759   -0.431190
    107          6           0       11.971492    1.004760   -0.307130
    108          6           0       12.708686    3.892581   -2.367283
    109          6           0       13.904356    2.208198    0.830425
    110          6           0       15.384112    1.732721    0.687541
    111          7           0        9.823323   -1.071651    0.170085
    112          6           0       11.223077   -1.356795    0.240909
    113          6           0       11.433157   -2.710498    0.612176
    114          6           0       10.123688   -3.190847    0.781841
    115          6           0        9.210147   -2.168675    0.450708
    116          6           0       12.696908   -3.475863    0.839303
    117          6           0        9.339477   -4.326433    1.148476
    118          8           0        9.628020   -5.458916    1.456648
    119          6           0        7.849325   -3.883209    1.176287
    120          6           0        7.034973   -4.886005    0.442674
    121          8           0        7.011026   -5.091987   -0.767463
    122          8           0        6.271646   -5.502322    1.350351
    123          6           0        5.321196   -6.476153    0.855722
    124          1           0        4.509034    1.890619   -0.810686
    125          1           0       10.045019    4.699818   -1.672984
    126          1           0       13.207732   -0.687118    0.142200
    127          1           0        5.077394   -3.065098    0.489934
    128          1           0        3.954649   -0.330686    0.936714
    129          1           0        3.905995   -2.265473   -1.377097
    130          1           0        4.211562   -0.613787   -1.950540
    131          1           0        2.777715   -0.924304   -0.919312
    132          1           0        4.886871   -0.985849    2.776405
    133          1           0        6.313711   -1.969568    2.701046
    134          1           0        3.956766   -2.575575    4.083706
    135          1           0        5.066359   -3.787336    3.642933
    136          1           0        4.499757    4.907624   -1.260602
    137          1           0        4.044498    3.344417   -1.928831
    138          1           0        4.678523    4.599022   -3.001329
    139          1           0        7.086464    7.682525   -2.714408
    140          1           0        5.678090    7.069137   -1.727277
    141          1           0        6.028519    6.502867   -3.362767
    142          1           0       12.497974    4.122674   -0.289202
    143          1           0       13.745782    1.674580   -1.218769
    144          1           0       13.242557    4.816153   -2.143175
    145          1           0       11.879345    4.046383   -3.057746
    146          1           0       13.534559    3.325572   -2.798477
    147          1           0       13.485205    1.732543    1.716529
    148          1           0       14.008330    3.290800    0.915652
    149          1           0       15.601159    1.452264   -0.343284
    150          1           0       15.553701    0.785610    1.199313
    151          1           0       16.082171    2.510182    0.998661
    152          1           0       13.015723   -3.075068    1.801897
    153          1           0       13.336658   -3.280050   -0.020926
    154          1           0       12.520107   -4.541138    0.980917
    155          1           0        7.578747   -3.997119    2.226855
    156          1           0        5.833205   -7.216838    0.240811
    157          1           0        4.539949   -6.106622    0.190636
    158          1           0        4.892414   -6.953309    1.737138
 ---------------------------------------------------------------------

 SCF Done:  E(RCAM-B3LYP) =  -4069.81971556     A.U. after   19 cycles

 Excitation energies and oscillator strengths:

 Excited State   1:      Singlet-A      1.7260 eV  718.33 nm  f=0.3814  <S**2>=0.000
     310 -> 316       -0.16122
     312 -> 314        0.68775
 This state for optimization and/or second-order correction.
 Total Energy, E(TD-HF/TD-DFT) =  -4069.75628563
 Copying the excited state density for this state as the 1-particle RhoCI density.

 Excited State   2:      Singlet-A      1.7695 eV  700.66 nm  f=0.4034  <S**2>=0.000
     309 -> 315        0.18504
     311 -> 313        0.68376
     309 <- 315        0.10628

 Excited State   3:      Singlet-A      2.2820 eV  543.30 nm  f=0.0796  <S**2>=0.000
     309 -> 313        0.48556
     310 -> 314        0.41384
     311 -> 315       -0.22423
     312 -> 316        0.18234

 Excited State   4:      Singlet-A      2.2856 eV  542.45 nm  f=0.1412  <S**2>=0.000
     309 -> 313       -0.41250
     310 -> 314        0.48431
     311 -> 315        0.19362
     312 -> 316        0.21635

 Excited State   5:      Singlet-A      2.7154 eV  456.60 nm  f=0.0000  <S**2>=0.000
     312 -> 313        0.70695

 The electronic state is 1-A.
 Alpha  occ. eigenvalues --  -46.90266 -46.87712 -19.25221 -19.24750 -19.20568
 Alpha  occ. eigenvalues --  -19.19866 -19.19646 -19.18801 -19.18748 -19.17353
 Alpha  occ. eigenvalues --  -14.42514 -14.42184 -14.42037 -14.41564 -14.40631
 Alpha  occ. eigenvalues --  -14.40363 -14.40165 -14.38413 -10.40036 -10.38268
 Alpha  occ. eigenvalues --  -10.36182 -10.35869 -10.35806 -10.33102 -10.32002
 Alpha  occ. eigenvalues --  -10.31848 -10.31724 -10.31337 -10.31321 -10.31225
 Alpha  occ. eigenvalues --  -10.30964 -10.30959 -10.30920 -10.30627 -10.30571
 Alpha  occ. eigenvalues --  -10.30393 -10.30369 -10.30306 -10.30297 -10.30062
 Alpha  occ. eigenvalues --  -10.30060 -10.29651 -10.29148 -10.29010 -10.28999
 Alpha  occ. eigenvalues --  -10.28973 -10.28950 -10.28856 -10.28386 -10.28279
 Alpha  occ. eigenvalues --  -10.28220 -10.28096 -10.28015 -10.27922 -10.27813
 Alpha  occ. eigenvalues --  -10.27779 -10.27763 -10.27568 -10.27499 -10.27470
 Alpha  occ. eigenvalues --  -10.27468 -10.27446 -10.27356 -10.27284 -10.27094
 Alpha  occ. eigenvalues --  -10.27040 -10.27026 -10.27023 -10.26766 -10.26763
 Alpha  occ. eigenvalues --  -10.26639 -10.26580 -10.26576 -10.26546 -10.26479
 Alpha  occ. eigenvalues --  -10.26348 -10.26175 -10.26113 -10.25975 -10.25968
 Alpha  occ. eigenvalues --  -10.25832 -10.25748 -10.25660 -10.25600 -10.25377
 Alpha  occ. eigenvalues --  -10.23528  -3.18744  -3.16421  -1.93632  -1.93198
 Alpha  occ. eigenvalues --   -1.93047  -1.91331  -1.90856  -1.90752  -1.17060
 Alpha  occ. eigenvalues --   -1.16211  -1.10303  -1.09772  -1.09507  -1.09318
 Alpha  occ. eigenvalues --   -1.07431  -1.07040  -1.06940  -1.05024  -1.04928
 Alpha  occ. eigenvalues --   -1.04209  -1.03858  -1.03502  -1.02866  -1.02288
 Alpha  occ. eigenvalues --   -0.93774  -0.92598  -0.90002  -0.89587  -0.89019
 Alpha  occ. eigenvalues --   -0.88820  -0.88494  -0.88428  -0.88367  -0.87923
 Alpha  occ. eigenvalues --   -0.87094  -0.86978  -0.86580  -0.85617  -0.85087
 Alpha  occ. eigenvalues --   -0.84146  -0.83903  -0.83477  -0.83103  -0.82302
 Alpha  occ. eigenvalues --   -0.81990  -0.81793  -0.81222  -0.80987  -0.80742
 Alpha  occ. eigenvalues --   -0.80326  -0.78848  -0.78711  -0.77887  -0.77373
 Alpha  occ. eigenvalues --   -0.77232  -0.76869  -0.76715  -0.75566  -0.75552
 Alpha  occ. eigenvalues --   -0.74926  -0.73516  -0.73047  -0.72591  -0.71351
 Alpha  occ. eigenvalues --   -0.69759  -0.69482  -0.69133  -0.68882  -0.68820
 Alpha  occ. eigenvalues --   -0.67732  -0.67556  -0.67340  -0.67053  -0.65898
 Alpha  occ. eigenvalues --   -0.65705  -0.65359  -0.65193  -0.65067  -0.64962
 Alpha  occ. eigenvalues --   -0.64453  -0.63331  -0.62428  -0.60796  -0.60733
 Alpha  occ. eigenvalues --   -0.60399  -0.59660  -0.59541  -0.59085  -0.58752
 Alpha  occ. eigenvalues --   -0.58574  -0.58286  -0.57714  -0.57485  -0.57247
 Alpha  occ. eigenvalues --   -0.56586  -0.56569  -0.56064  -0.55886  -0.55618
 Alpha  occ. eigenvalues --   -0.55276  -0.55275  -0.54704  -0.54416  -0.54132
 Alpha  occ. eigenvalues --   -0.53796  -0.53774  -0.53482  -0.53195  -0.53108
 Alpha  occ. eigenvalues --   -0.53009  -0.52541  -0.52490  -0.52213  -0.52105
 Alpha  occ. eigenvalues --   -0.51972  -0.51721  -0.51718  -0.51435  -0.51314
 Alpha  occ. eigenvalues --   -0.51263  -0.50979  -0.50808  -0.50681  -0.50360
 Alpha  occ. eigenvalues --   -0.50248  -0.50216  -0.49995  -0.49929  -0.49678
 Alpha  occ. eigenvalues --   -0.49587  -0.49220  -0.49208  -0.49063  -0.48738
 Alpha  occ. eigenvalues --   -0.48704  -0.48578  -0.48470  -0.48467  -0.48358
 Alpha  occ. eigenvalues --   -0.48093  -0.47846  -0.47823  -0.47633  -0.47623
 Alpha  occ. eigenvalues --   -0.47487  -0.47427  -0.47126  -0.47125  -0.46837
 Alpha  occ. eigenvalues --   -0.46689  -0.46510  -0.46487  -0.46342  -0.46270
 Alpha  occ. eigenvalues --   -0.46112  -0.46024  -0.45712  -0.45551  -0.45220
 Alpha  occ. eigenvalues --   -0.45071  -0.45010  -0.44656  -0.44501  -0.44404
 Alpha  occ. eigenvalues --   -0.44396  -0.44239  -0.44118  -0.43770  -0.43642
 Alpha  occ. eigenvalues --   -0.43608  -0.43489  -0.43309  -0.43031  -0.42883
 Alpha  occ. eigenvalues --   -0.42796  -0.42565  -0.42417  -0.42295  -0.42273
 Alpha  occ. eigenvalues --   -0.42203  -0.41891  -0.41665  -0.41523  -0.41437
 Alpha  occ. eigenvalues --   -0.41126  -0.41065  -0.40879  -0.40762  -0.40326
 Alpha  occ. eigenvalues --   -0.40159  -0.40012  -0.39682  -0.39436  -0.39054
 Alpha  occ. eigenvalues --   -0.38761  -0.38406  -0.38224  -0.37859  -0.37582
 Alpha  occ. eigenvalues --   -0.37361  -0.37100  -0.36858  -0.36820  -0.36550
 Alpha  occ. eigenvalues --   -0.36419  -0.36262  -0.35183  -0.34457  -0.34184
 Alpha  occ. eigenvalues --   -0.33839  -0.33796  -0.32754  -0.32211  -0.32101
 Alpha  occ. eigenvalues --   -0.31596  -0.31335  -0.31239  -0.31165  -0.30843
 Alpha  occ. eigenvalues --   -0.29632  -0.29474  -0.29211  -0.24690  -0.24066
 Alpha  occ. eigenvalues --   -0.21732  -0.21001
 Alpha virt. eigenvalues --   -0.09108  -0.08526  -0.02229  -0.01642  -0.00809
 Alpha virt. eigenvalues --    0.00577   0.01007   0.01671   0.02868   0.03473
 Alpha virt. eigenvalues --    0.04065   0.04795   0.05227   0.05623   0.05912

 Mulliken charges:
               1
     1  Mg   0.823309
     2  C   -0.024890
     3  C   -0.082345
     4  C   -0.031365
     5  C   -0.095616
     6  N   -0.272549
     7  C   -0.080835
     8  C    0.045123
     9  C   -0.107988
    10  C    0.036355
    11  C    0.079877
    12  C    0.047711
    13  C   -0.094361
    14  H    0.008761
    15  N   -0.388489
    16  C    0.149129
    17  C   -0.158583
    18  C   -0.043674
    19  C    0.147507
    20  C    0.134861
    21  C    0.013267
    22  O   -0.209566
    23  C    0.034132
    24  N   -0.199616
    25  C    0.025661
    26  C   -0.006853
    27  C   -0.076279
    28  C    0.051546
    29  C    0.059844
    30  C   -0.001647
    31  C    0.015479
    32  N   -0.315991
    33  C    0.114020
    34  C   -0.179416
    35  C    0.031613
    36  C    0.134929
    37  C    0.119638
    38  C    0.021493
    39  O   -0.182120
    40  C   -0.017480
    41  C    0.214413
    42  O   -0.175525
    43  O   -0.370501
    44  C    0.173291
    45  H   -0.037014
    46  H   -0.077697
    47  H   -0.023931
    48  H    0.013425
    49  H    0.010379
    50  H    0.014299
    51  H    0.017128
    52  H    0.032895
    53  H    0.020588
    54  H    0.020854
    55  H    0.051033
    56  H    0.053040
    57  H    0.053517
    58  H    0.016249
    59  H    0.016287
    60  H    0.037112
    61  H    0.036405
    62  H    0.025429
    63  H    0.009668
    64  H    0.001357
    65  H    0.012185
    66  H    0.015019
    67  H    0.005412
    68  H    0.019262
    69  H    0.000728
    70  H    0.020928
    71  H    0.015959
    72  H    0.009620
    73  H    0.021248
    74  H    0.031722
    75  H    0.046482
    76  H    0.038422
    77  H    0.049040
    78  H    0.026597
    79  H    0.030081
    80  Mg   0.840790
    81  C    0.028179
    82  C   -0.106693
    83  C   -0.066800
    84  C   -0.071357
    85  N   -0.281542
    86  C   -0.102039
    87  C   -0.000482
    88  C   -0.046059
    89  C    0.075568
    90  C    0.066970
    91  C    0.037819
    92  C   -0.060728
    93  H    0.016497
    94  N   -0.375436
    95  C    0.135935
    96  C   -0.158057
    97  C   -0.029526
    98  C    0.112235
    99  C    0.127532
   100  C    0.018965
   101  O   -0.213726
   102  C    0.015297
   103  N   -0.316321
   104  C    0.098127
   105  C   -0.060679
   106  C   -0.001790
   107  C    0.049120
   108  C    0.056798
   109  C    0.053053
   110  C   -0.019139
   111  N   -0.321808
   112  C    0.076447
   113  C   -0.187225
   114  C    0.016441
   115  C    0.096314
   116  C    0.134224
   117  C    0.001210
   118  O   -0.166889
   119  C   -0.002509
   120  C    0.159838
   121  O   -0.226793
   122  O   -0.302959
   123  C    0.183745
   124  H   -0.025447
   125  H    0.002320
   126  H   -0.035611
   127  H    0.026635
   128  H    0.014676
   129  H    0.029490
   130  H    0.022936
   131  H    0.018272
   132  H    0.007487
   133  H    0.020014
   134  H    0.019726
   135  H    0.040662
   136  H    0.030052
   137  H    0.018157
   138  H    0.035630
   139  H    0.033274
   140  H    0.043111
   141  H    0.031312
   142  H    0.017384
   143  H    0.009730
   144  H    0.005257
   145  H    0.040373
   146  H    0.003556
   147  H    0.024263
   148  H    0.003326
   149  H    0.001172
   150  H    0.016261
   151  H    0.023336
   152  H    0.031444
   153  H    0.031540
   154  H    0.036652
   155  H    0.038046
   156  H    0.036850
   157  H    0.027704
   158  H    0.037858
 Sum of Mulliken charges =  -0.00000

 Dipole moment (field-independent basis, Debye):
    X=             -6.4726    Y=              6.6838    Z=              2.3760  Tot=              9.6028
 Quadrupole moment (field-independent basis, Debye-Ang):
   XX=           -464.5972   YY=           -524.8793   ZZ=           -563.2980
   XY=              9.1858   XZ=            -21.0317   YZ=            -35.2277

 Normal termination of Gaussian 16 at Wed Sep 15 16:21:37 2021.
