 Gaussian 16, Revision A.03,
 Gaussian 16:  ES64L-G16RevA.03 25-Dec-2016

 ----------------------------------------------------------
 #p cam-b3lyp/Def2SVP td=(nstates=5) density=(transition=1)
 ----------------------------------------------------------

 --------------------------------
 TDDFT excited states in gaussian
 --------------------------------
 Symbolic Z-matrix:
 Charge =  0 Multiplicity = 1

                         Standard orientation:
 ---------------------------------------------------------------------
 Center     Atomic      Atomic             Coordinates (Angstroms)
 Number     Number       Type             X           Y           Z
 ---------------------------------------------------------------------
      1         12           0       -4.347648   -0.716676    0.998988
      2          6           0       -5.374637    2.440074   -0.102446
      3          6           0       -2.660876    0.936621    3.540523
      4          6           0       -3.040032   -3.589517    1.778857
      5          6           0       -5.969133   -2.121450   -1.819003
      6          7           0       -3.714724    1.517541    1.421526
      7          6           0       -4.392007    2.563271    0.936595
      8          6           0       -3.941590    3.778711    1.675837
      9          6           0       -2.744416    3.306087    2.536634
     10          6           0       -3.047105    1.820794    2.546258
     11          6           0       -1.315242    3.629451    2.097478
     12          6           0       -5.083240    4.385389    2.551873
     13          6           0       -5.377513    5.917467    2.458482
     14          1           0       -4.211853    6.896607    2.115081
     15          7           0       -3.120034   -1.286720    2.583845
     16          6           0       -2.705582   -0.450443    3.611966
     17          6           0       -2.014476   -1.273425    4.550396
     18          6           0       -1.987650   -2.616984    3.999330
     19          6           0       -2.732180   -2.573785    2.749653
     20          6           0       -1.319135   -0.754362    5.827962
     21          6           0       -1.273626   -3.895382    4.525061
     22          8           0       -1.299377   -4.953683    3.981232
     23          6           0       -0.560895   -3.757542    5.856001
     24          7           0       -4.517774   -2.560503    0.093404
     25          6           0       -3.810717   -3.602955    0.584062
     26          6           0       -4.013418   -4.927816   -0.201577
     27          6           0       -5.173904   -4.482063   -1.191273
     28          6           0       -5.273475   -2.977380   -0.970237
     29          6           0       -2.613653   -5.402844   -0.902746
     30          6           0       -6.488183   -5.309105   -1.031657
     31          6           0       -7.604997   -4.712680   -0.193832
     32          7           0       -5.505464   -0.051469   -0.657634
     33          6           0       -6.156535   -0.737594   -1.647025
     34          6           0       -6.899199    0.258604   -2.496355
     35          6           0       -6.607474    1.509392   -1.906749
     36          6           0       -5.715919    1.299766   -0.803030
     37          6           0       -7.621689    0.007859   -3.792091
     38          6           0       -6.837480    2.949157   -1.997507
     39          8           0       -7.511371    3.559229   -2.832526
     40          6           0       -6.187533    3.548951   -0.754176
     41          6           0       -5.334742    4.682343   -1.247977
     42          8           0       -4.243120    4.561735   -1.773169
     43          8           0       -6.091675    5.764254   -1.167049
     44          6           0       -5.705370    6.933626   -1.940917
     45          1           0       -2.015220    1.455178    4.251681
     46          1           0       -2.762178   -4.587181    2.124246
     47          1           0       -6.481444   -2.557895   -2.679312
     48          1           0       -3.643197    4.535133    0.950661
     49          1           0       -2.850485    3.808947    3.497962
     50          1           0       -1.210320    4.232804    1.195606
     51          1           0       -0.750064    2.709239    1.946929
     52          1           0       -0.862837    4.172966    2.926654
     53          1           0       -5.017471    4.109596    3.604145
     54          1           0       -5.925169    3.825119    2.145473
     55          1           0       -5.750876    6.162385    3.453625
     56          1           0       -6.168846    6.074146    1.725888
     57          1           0       -0.275023   -1.058113    5.903877
     58          1           0       -1.740405   -1.189562    6.734313
     59          1           0       -1.369269    0.326995    5.962140
     60          1           0       -1.192890   -3.323957    6.631317
     61          1           0        0.352973   -3.187161    5.689367
     62          1           0       -0.149241   -4.717961    6.166168
     63          1           0       -4.345711   -5.746100    0.437009
     64          1           0       -4.931934   -4.658027   -2.239313
     65          1           0       -2.770395   -5.219640   -1.965831
     66          1           0       -2.448395   -6.479512   -0.857259
     67          1           0       -1.749230   -4.798611   -0.625161
     68          1           0       -6.175289   -6.182614   -0.459490
     69          1           0       -6.885642   -5.650746   -1.987162
     70          1           0       -7.090829   -4.309026    0.679256
     71          1           0       -8.205451   -5.597396    0.016604
     72          1           0       -8.185365   -3.865207   -0.557707
     73          1           0       -7.570448   -0.986425   -4.235899
     74          1           0       -7.235615    0.685897   -4.553349
     75          1           0       -8.646830    0.328418   -3.609235
     76          1           0       -6.874521    4.064475   -0.082781
     77          1           0       -4.871423    6.875500   -2.639652
     78          1           0       -5.371943    7.627264   -1.168428
     79          1           0       -6.608972    7.493812   -2.181641
     80         12           0        3.930409   -0.498243   -0.975696
     81          6           0        6.630983    1.475183   -0.377373
     82          6           0        1.731778    2.159526   -1.048882
     83          6           0        1.339523   -2.700947   -1.374156
     84          6           0        6.052331   -3.387369   -0.484489
     85          7           0        4.146513    1.536415   -0.532172
     86          6           0        5.417257    2.202970   -0.560459
     87          6           0        5.245881    3.659253   -0.732535
     88          6           0        3.672758    3.816067   -0.525415
     89          6           0        3.097785    2.428532   -0.703585
     90          6           0        3.280157    4.416371    0.916005
     91          6           0        5.891305    4.244936   -2.025973
     92          6           0        6.662326    5.511526   -1.836914
     93          1           0        6.035866    6.563978   -0.839529
     94          7           0        1.830091   -0.291423   -1.255798
     95          6           0        1.177448    0.905122   -1.229310
     96          6           0       -0.201482    0.645424   -1.464569
     97          6           0       -0.372316   -0.780646   -1.660424
     98          6           0        1.001173   -1.366845   -1.506277
     99          6           0       -1.270947    1.757472   -1.396675
    100          6           0       -1.556014   -1.633267   -1.995450
    101          8           0       -1.626779   -2.866566   -2.040485
    102          6           0       -2.860941   -0.841827   -2.386873
    103          7           0        3.684975   -2.785486   -0.832022
    104          6           0        2.563533   -3.391321   -1.133421
    105          6           0        2.748645   -4.894019   -1.334092
    106          6           0        4.263963   -5.093018   -1.044942
    107          6           0        4.712236   -3.663662   -0.746609
    108          6           0        1.812134   -5.794729   -0.378821
    109          6           0        4.958796   -5.693160   -2.345809
    110          6           0        5.075108   -4.859607   -3.645877
    111          7           0        5.903254   -0.902601   -0.362850
    112          6           0        6.597937   -2.094036   -0.272782
    113          6           0        8.013635   -1.734086   -0.053635
    114          6           0        8.138785   -0.377784   -0.090027
    115          6           0        6.787610    0.087443   -0.283784
    116          6           0        9.076540   -2.711968    0.312106
    117          6           0        9.042759    0.768504    0.001400
    118          8           0       10.246200    0.829722    0.189592
    119          6           0        8.063611    2.010583   -0.177105
    120          6           0        8.116265    2.789378    1.076836
    121          8           0        7.888092    2.394456    2.233532
    122          8           0        8.487809    4.054730    0.669786
    123          6           0        8.430894    5.073609    1.726144
    124          1           0        1.012224    2.976542   -1.131855
    125          1           0        0.487448   -3.338090   -1.622716
    126          1           0        6.722492   -4.245656   -0.410795
    127          1           0        5.787850    4.094549    0.107998
    128          1           0        3.295269    4.464492   -1.315493
    129          1           0        4.120657    4.863522    1.446775
    130          1           0        3.026670    3.558558    1.538744
    131          1           0        2.421905    5.050755    0.698430
    132          1           0        5.114673    4.450448   -2.762715
    133          1           0        6.565839    3.447132   -2.336478
    134          1           0        6.746302    6.099852   -2.749808
    135          1           0        7.712567    5.502660   -1.545015
    136          1           0       -1.319770    2.422746   -2.258644
    137          1           0       -1.021026    2.260652   -0.462772
    138          1           0       -2.289288    1.369558   -1.408748
    139          1           0       -3.288789   -0.399835   -1.487010
    140          1           0       -3.474960   -1.493858   -3.007842
    141          1           0       -2.687932   -0.045325   -3.110871
    142          1           0        2.549572   -5.129417   -2.379316
    143          1           0        4.465265   -5.775382   -0.219083
    144          1           0        1.032688   -6.200694   -1.024610
    145          1           0        1.347050   -5.172221    0.386247
    146          1           0        2.231129   -6.666627    0.121889
    147          1           0        4.576274   -6.661590   -2.667768
    148          1           0        5.985306   -5.805631   -1.995397
    149          1           0        6.153190   -4.735243   -3.748672
    150          1           0        4.530736   -3.917647   -3.592009
    151          1           0        4.681363   -5.361726   -4.529555
    152          1           0        9.964520   -2.277763   -0.146272
    153          1           0        8.873573   -3.717501   -0.056885
    154          1           0        9.289242   -2.575218    1.371564
    155          1           0        8.603735    2.546054   -0.957450
    156          1           0        8.865847    5.940606    1.228075
    157          1           0        9.125080    4.740443    2.497647
    158          1           0        7.463026    5.200217    2.211663
 ---------------------------------------------------------------------

 SCF Done:  E(RCAM-B3LYP) =  -4069.80549727     A.U. after   19 cycles

 Excitation energies and oscillator strengths:

 Excited State   1:      Singlet-A      1.6850 eV  735.82 nm  f=0.1720  <S**2>=0.000
     309 -> 315       -0.15589
     311 -> 313        0.34956
     312 -> 314        0.58926
 This state for optimization and/or second-order correction.
 Total Energy, E(TD-HF/TD-DFT) =  -4069.74357553
 Copying the excited state density for this state as the 1-particle RhoCI density.

 Excited State   2:      Singlet-A      1.7061 eV  726.69 nm  f=0.6052  <S**2>=0.000
     310 -> 316        0.15930
     311 -> 313        0.58853
     312 -> 314       -0.34800

 Excited State   3:      Singlet-A      2.1923 eV  565.54 nm  f=0.0631  <S**2>=0.000
     310 -> 313        0.64028
     311 -> 316       -0.26922

 Excited State   4:      Singlet-A      2.2667 eV  546.97 nm  f=0.0488  <S**2>=0.000
     309 -> 314        0.59408
     312 -> 313       -0.10260
     312 -> 315        0.34278

 Excited State   5:      Singlet-A      2.2812 eV  543.49 nm  f=0.0010  <S**2>=0.000
     312 -> 313        0.69789

 The electronic state is 1-A.
 Alpha  occ. eigenvalues --  -46.88999 -46.88957 -19.26646 -19.25540 -19.20152
 Alpha  occ. eigenvalues --  -19.20132 -19.19558 -19.19448 -19.19346 -19.18611
 Alpha  occ. eigenvalues --  -14.42065 -14.41923 -14.41759 -14.41669 -14.39454
 Alpha  occ. eigenvalues --  -14.39258 -14.39217 -14.38765 -10.39579 -10.39391
 Alpha  occ. eigenvalues --  -10.35626 -10.35443 -10.35204 -10.34481 -10.32412
 Alpha  occ. eigenvalues --  -10.31759 -10.31756 -10.31512 -10.31384 -10.30880
 Alpha  occ. eigenvalues --  -10.30647 -10.30642 -10.30602 -10.30084 -10.29930
 Alpha  occ. eigenvalues --  -10.29900 -10.29724 -10.29607 -10.29593 -10.29441
 Alpha  occ. eigenvalues --  -10.29376 -10.29305 -10.29093 -10.28958 -10.28877
 Alpha  occ. eigenvalues --  -10.28545 -10.28513 -10.28329 -10.28160 -10.28128
 Alpha  occ. eigenvalues --  -10.28112 -10.27948 -10.27704 -10.27613 -10.27485
 Alpha  occ. eigenvalues --  -10.27481 -10.27400 -10.27384 -10.27362 -10.27334
 Alpha  occ. eigenvalues --  -10.27307 -10.27239 -10.27109 -10.27077 -10.26999
 Alpha  occ. eigenvalues --  -10.26694 -10.26680 -10.26645 -10.26594 -10.26494
 Alpha  occ. eigenvalues --  -10.26360 -10.26281 -10.26273 -10.25987 -10.25967
 Alpha  occ. eigenvalues --  -10.25896 -10.25893 -10.25793 -10.25470 -10.25365
 Alpha  occ. eigenvalues --  -10.25306 -10.25151 -10.24883 -10.24826 -10.24481
 Alpha  occ. eigenvalues --  -10.24207  -3.17426  -3.17404  -1.92347  -1.92307
 Alpha  occ. eigenvalues --   -1.91910  -1.91848  -1.91704  -1.91683  -1.18733
 Alpha  occ. eigenvalues --   -1.15847  -1.11345  -1.09999  -1.09785  -1.09578
 Alpha  occ. eigenvalues --   -1.09118  -1.07351  -1.05204  -1.04867  -1.03642
 Alpha  occ. eigenvalues --   -1.03521  -1.02664  -1.02623  -1.01887  -1.01477
 Alpha  occ. eigenvalues --   -0.93526  -0.92159  -0.88884  -0.88847  -0.88582
 Alpha  occ. eigenvalues --   -0.88514  -0.87968  -0.87738  -0.87024  -0.86957
 Alpha  occ. eigenvalues --   -0.86609  -0.86307  -0.85811  -0.85615  -0.84567
 Alpha  occ. eigenvalues --   -0.84450  -0.83846  -0.83170  -0.82220  -0.82197
 Alpha  occ. eigenvalues --   -0.81530  -0.81313  -0.80880  -0.80707  -0.80060
 Alpha  occ. eigenvalues --   -0.79449  -0.77943  -0.77680  -0.77482  -0.77175
 Alpha  occ. eigenvalues --   -0.77109  -0.76779  -0.76145  -0.75600  -0.74665
 Alpha  occ. eigenvalues --   -0.74646  -0.72705  -0.72216  -0.71907  -0.71589
 Alpha  occ. eigenvalues --   -0.69607  -0.69295  -0.69029  -0.68818  -0.68201
 Alpha  occ. eigenvalues --   -0.68152  -0.67134  -0.66173  -0.65487  -0.64993
 Alpha  occ. eigenvalues --   -0.64796  -0.64765  -0.64657  -0.64457  -0.64392
 Alpha  occ. eigenvalues --   -0.64168  -0.62953  -0.62371  -0.60013  -0.59931
 Alpha  occ. eigenvalues --   -0.59772  -0.59298  -0.59193  -0.58637  -0.58546
 Alpha  occ. eigenvalues --   -0.58488  -0.58359  -0.57781  -0.57380  -0.57234
 Alpha  occ. eigenvalues --   -0.56766  -0.56136  -0.55639  -0.55352  -0.55207
 Alpha  occ. eigenvalues --   -0.54910  -0.54742  -0.54645  -0.54414  -0.54216
 Alpha  occ. eigenvalues --   -0.53727  -0.53511  -0.53359  -0.53155  -0.53004
 Alpha  occ. eigenvalues --   -0.52929  -0.52473  -0.52178  -0.52081  -0.52058
 Alpha  occ. eigenvalues --   -0.51963  -0.51573  -0.51463  -0.51403  -0.51293
 Alpha  occ. eigenvalues --   -0.51271  -0.51066  -0.50809  -0.50542  -0.50302
 Alpha  occ. eigenvalues --   -0.49848  -0.49651  -0.49572  -0.49396  -0.49191
 Alpha  occ. eigenvalues --   -0.49167  -0.49013  -0.48808  -0.48497  -0.48383
 Alpha  occ. eigenvalues --   -0.48329  -0.48314  -0.48231  -0.48187  -0.47938
 Alpha  occ. eigenvalues --   -0.47719  -0.47539  -0.47176  -0.47142  -0.46936
 Alpha  occ. eigenvalues --   -0.46611  -0.46493  -0.46336  -0.46180  -0.46031
 Alpha  occ. eigenvalues --   -0.45970  -0.45828  -0.45698  -0.45607  -0.45571
 Alpha  occ. eigenvalues --   -0.45450  -0.45335  -0.45175  -0.44925  -0.44777
 Alpha  occ. eigenvalues --   -0.44633  -0.44540  -0.44421  -0.44300  -0.43856
 Alpha  occ. eigenvalues --   -0.43723  -0.43399  -0.43267  -0.43194  -0.43142
 Alpha  occ. eigenvalues --   -0.43021  -0.42885  -0.42772  -0.42632  -0.42532
 Alpha  occ. eigenvalues --   -0.42513  -0.42273  -0.41962  -0.41916  -0.41873
 Alpha  occ. eigenvalues --   -0.41798  -0.41717  -0.41618  -0.41461  -0.41330
 Alpha  occ. eigenvalues --   -0.40722  -0.40618  -0.40519  -0.40333  -0.40236
 Alpha  occ. eigenvalues --   -0.39875  -0.39820  -0.39565  -0.39319  -0.38698
 Alpha  occ. eigenvalues --   -0.38073  -0.37620  -0.37341  -0.37288  -0.37112
 Alpha  occ. eigenvalues --   -0.36962  -0.36884  -0.36560  -0.36437  -0.36223
 Alpha  occ. eigenvalues --   -0.36195  -0.36038  -0.34800  -0.34527  -0.34109
 Alpha  occ. eigenvalues --   -0.33956  -0.33223  -0.33190  -0.31569  -0.30981
 Alpha  occ. eigenvalues --   -0.30870  -0.30865  -0.30713  -0.30357  -0.30125
 Alpha  occ. eigenvalues --   -0.29961  -0.29574  -0.28964  -0.24159  -0.23796
 Alpha  occ. eigenvalues --   -0.21058  -0.20695
 Alpha virt. eigenvalues --   -0.08566  -0.08214  -0.02120  -0.01532  -0.00061
 Alpha virt. eigenvalues --    0.00073   0.02177   0.02361   0.02790   0.02929
 Alpha virt. eigenvalues --    0.04818   0.04864   0.05064   0.05465   0.05645

 Mulliken charges:
               1
     1  Mg  12.005030
     2  C    5.993120
     3  C    6.011540
     4  C    6.006342
     5  C    5.992898
     6  N    7.004998
     7  C    6.018829
     8  C    5.997116
     9  C    6.005010
    10  C    5.981251
    11  C    6.001691
    12  C    5.999454
    13  C    6.000254
    14  H    1.000958
    15  N    7.006853
    16  C    5.974561
    17  C    5.992547
    18  C    5.988394
    19  C    5.985247
    20  C    6.003120
    21  C    5.991616
    22  O    7.985124
    23  C    6.004706
    24  N    6.998997
    25  C    5.988551
    26  C    6.004314
    27  C    5.994438
    28  C    6.020029
    29  C    6.004977
    30  C    5.999846
    31  C    5.996041
    32  N    6.997903
    33  C    6.024448
    34  C    6.015626
    35  C    6.000147
    36  C    6.021840
    37  C    5.998401
    38  C    6.008868
    39  O    8.012047
    40  C    5.997819
    41  C    6.001648
    42  O    8.007364
    43  O    7.999293
    44  C    5.998771
    45  H    0.992929
    46  H    0.993351
    47  H    1.001218
    48  H    1.001098
    49  H    0.995489
    50  H    0.993629
    51  H    1.007573
    52  H    0.993453
    53  H    1.005685
    54  H    0.995916
    55  H    1.000318
    56  H    0.996908
    57  H    0.987742
    58  H    0.987810
    59  H    0.988854
    60  H    0.995989
    61  H    0.992977
    62  H    0.988627
    63  H    0.996326
    64  H    1.000981
    65  H    0.994454
    66  H    0.992186
    67  H    1.006247
    68  H    1.003892
    69  H    0.998372
    70  H    1.006062
    71  H    1.000354
    72  H    0.995450
    73  H    1.009510
    74  H    1.009153
    75  H    1.007184
    76  H    1.002877
    77  H    1.001675
    78  H    1.002007
    79  H    0.999726
    80  Mg  11.999802
    81  C    5.976412
    82  C    6.023573
    83  C    6.012151
    84  C    5.982684
    85  N    6.997845
    86  C    6.034268
    87  C    5.988652
    88  C    6.009576
    89  C    5.967351
    90  C    6.001488
    91  C    5.997914
    92  C    5.996542
    93  H    1.007948
    94  N    7.011481
    95  C    5.961407
    96  C    5.982636
    97  C    5.985434
    98  C    5.971967
    99  C    6.001760
   100  C    5.995661
   101  O    7.976754
   102  C    5.998758
   103  N    6.998440
   104  C    5.974915
   105  C    6.008283
   106  C    5.989828
   107  C    6.029314
   108  C    6.000529
   109  C    5.997604
   110  C    5.995665
   111  N    6.994329
   112  C    6.044985
   113  C    6.022081
   114  C    6.004068
   115  C    6.032984
   116  C    5.997418
   117  C    6.014194
   118  O    8.023693
   119  C    6.002117
   120  C    6.002826
   121  O    8.004066
   122  O    8.001201
   123  C    5.998137
   124  H    0.992538
   125  H    0.994674
   126  H    1.008297
   127  H    1.001670
   128  H    0.997505
   129  H    0.987193
   130  H    1.001346
   131  H    0.999872
   132  H    1.010529
   133  H    0.995178
   134  H    1.002803
   135  H    0.997191
   136  H    0.980082
   137  H    0.991940
   138  H    0.979855
   139  H    0.992852
   140  H    0.985555
   141  H    0.992488
   142  H    0.998113
   143  H    1.003403
   144  H    1.000689
   145  H    1.006766
   146  H    0.991975
   147  H    1.009097
   148  H    0.996001
   149  H    0.994889
   150  H    1.007600
   151  H    1.005854
   152  H    1.013979
   153  H    1.016826
   154  H    1.019053
   155  H    1.006115
   156  H    1.003553
   157  H    1.001330
   158  H    1.006395
 Sum of Mulliken charges = 624.00000

 Dipole moment (field-independent basis, Debye):
    X=              6.6168    Y=              1.1598    Z=             -2.9488  Tot=              7.3364
 Quadrupole moment (field-independent basis, Debye-Ang):
   XX=             94.9178   YY=             -0.5009   ZZ=            -13.9543
   XY=            -14.6288   XZ=             13.4601   YZ=              4.5201

 Normal termination of Gaussian 16 at Thu Sep 23 13:19:20 2021.
