 Gaussian 16, Revision A.03,
 Gaussian 16:  ES64L-G16RevA.03 25-Dec-2016

 -----------------------------------
 #p cam-b3lyp/Def2SVP td=(nstates=5)
 -----------------------------------

 --------------------------------
 TDDFT excited states in gaussian
 --------------------------------
 Symbolic Z-matrix:
 Charge =  0 Multiplicity = 1

                         Standard orientation:
 ---------------------------------------------------------------------
 Center     Atomic      Atomic             Coordinates (Angstroms)
 Number     Number       Type             X           Y           Z
 ---------------------------------------------------------------------
      1         12           0      -30.573716    0.278955    0.280848
      2          6           0      -27.954504   -1.820663   -0.815309
      3          6           0      -31.477283    0.833107   -2.967943
      4          6           0      -32.519987    2.713401    1.355832
      5          6           0      -29.241267    0.014630    3.558128
      6          7           0      -29.845989   -0.529074   -1.656786
      7          6           0      -28.820327   -1.339926   -1.826213
      8          6           0      -28.884003   -1.899307   -3.235977
      9          6           0      -29.669251   -0.785360   -4.029881
     10          6           0      -30.392489   -0.082717   -2.820999
     11          6           0      -28.695378    0.091368   -4.905478
     12          6           0      -29.673917   -3.231135   -3.311717
     13          6           0      -29.377836   -4.137860   -4.586115
     14          1           0      -28.402211   -3.700931   -5.682202
     15          7           0      -31.947946    1.425461   -0.630029
     16          6           0      -32.269233    1.491655   -2.010075
     17          6           0      -33.408131    2.424660   -2.175979
     18          6           0      -33.656509    3.042260   -0.897814
     19          6           0      -32.708160    2.422562    0.053081
     20          6           0      -34.121696    2.640367   -3.463771
     21          6           0      -34.696475    4.126371   -0.413978
     22          8           0      -34.832369    4.480792    0.764981
     23          6           0      -35.476258    4.877160   -1.454166
     24          7           0      -30.770874    1.326997    2.191713
     25          6           0      -31.676127    2.248730    2.386848
     26          6           0      -31.765909    2.772660    3.792747
     27          6           0      -30.689411    1.904769    4.534518
     28          6           0      -30.248656    0.940625    3.387647
     29          6           0      -31.644451    4.298589    3.840673
     30          6           0      -31.213805    1.128198    5.735806
     31          6           0      -30.276411    1.058305    6.994224
     32          7           0      -28.957392   -0.754738    1.294572
     33          6           0      -28.578587   -0.786896    2.650974
     34          6           0      -27.570374   -1.776198    2.819327
     35          6           0      -27.148387   -2.098351    1.490063
     36          6           0      -28.033548   -1.506696    0.624900
     37          6           0      -27.119534   -2.353898    4.130223
     38          6           0      -26.295827   -2.918301    0.596047
     39          8           0      -25.386110   -3.675295    0.864064
     40          6           0      -26.659108   -2.531399   -0.915945
     41          6           0      -26.447926   -3.697709   -1.824911
     42          8           0      -27.006839   -4.753519   -1.774420
     43          8           0      -25.403179   -3.453805   -2.735880
     44          6           0      -24.623414   -4.629381   -3.177962
     45          1           0      -31.696850    1.207379   -3.970450
     46          1           0      -33.218181    3.399121    1.839109
     47          1           0      -28.905744   -0.100932    4.590926
     48          1           0      -27.840083   -2.125123   -3.453293
     49          1           0      -30.417083   -1.218574   -4.694941
     50          1           0      -27.666224   -0.240292   -4.771966
     51          1           0      -28.728688    1.066258   -4.419033
     52          1           0      -28.895615    0.065181   -5.976681
     53          1           0      -30.718739   -2.919357   -3.341946
     54          1           0      -29.478923   -3.770914   -2.385116
     55          1           0      -30.360184   -4.312559   -5.027581
     56          1           0      -29.058163   -5.095190   -4.173778
     57          1           0      -33.922294    1.971667   -4.300362
     58          1           0      -33.907729    3.617081   -3.896859
     59          1           0      -35.171908    2.515084   -3.199043
     60          1           0      -36.399842    4.385022   -1.758577
     61          1           0      -34.717403    4.928594   -2.235900
     62          1           0      -35.650567    5.869003   -1.037978
     63          1           0      -32.771434    2.464724    4.079150
     64          1           0      -29.828922    2.472640    4.886188
     65          1           0      -31.098132    4.725093    2.998842
     66          1           0      -31.057558    4.508217    4.734068
     67          1           0      -32.612882    4.796739    3.891410
     68          1           0      -31.434517    0.094694    5.469403
     69          1           0      -32.212493    1.535285    5.893216
     70          1           0      -29.291159    1.472915    6.781651
     71          1           0      -30.170120   -0.008238    7.191337
     72          1           0      -30.611412    1.515094    7.926050
     73          1           0      -26.934461   -1.488213    4.766360
     74          1           0      -26.203901   -2.943072    4.076145
     75          1           0      -27.933478   -2.918150    4.586547
     76          1           0      -25.897960   -1.846590   -1.288462
     77          1           0      -24.787200   -4.753286   -4.248543
     78          1           0      -24.891876   -5.534297   -2.631732
     79          1           0      -23.583258   -4.371359   -2.979129
     80         12           0       30.585548    0.198756   -0.257192
     81          6           0       27.469134   -1.287849    0.156790
     82          6           0       28.967959    2.963686   -1.584688
     83          6           0       33.395916    1.937677   -0.200645
     84          6           0       32.028573   -2.389932    1.530238
     85          7           0       28.473817    0.841431   -0.517685
     86          6           0       27.374347    0.014818   -0.409187
     87          6           0       26.119788    0.641459   -0.941828
     88          6           0       26.705915    1.828026   -1.827157
     89          6           0       28.119974    1.936232   -1.272193
     90          6           0       26.537449    1.863970   -3.420085
     91          6           0       25.039519    1.056437    0.161270
     92          6           0       25.565259    1.511306    1.555233
     93          1           0       24.831704    2.694516    2.139623
     94          7           0       31.102395    2.224466   -0.705403
     95          6           0       30.277194    3.209224   -1.262640
     96          6           0       30.970466    4.460218   -1.404164
     97          6           0       32.294089    4.197414   -0.977504
     98          6           0       32.337128    2.761026   -0.571433
     99          6           0       30.325145    5.617144   -2.168702
    100          6           0       33.392952    5.283707   -1.017456
    101          8           0       33.147638    6.453160   -1.330448
    102          6           0       34.758649    4.829130   -0.715190
    103          7           0       32.390856   -0.177679    0.676933
    104          6           0       33.475459    0.595059    0.297468
    105          6           0       34.825705    0.010321    0.767179
    106          6           0       34.270656   -1.266291    1.522404
    107          6           0       32.826112   -1.268697    1.285132
    108          6           0       35.876872   -0.318545   -0.245409
    109          6           0       34.548836   -1.227308    3.109705
    110          6           0       35.087163   -2.546615    3.598697
    111          7           0       29.963887   -1.632067    0.519909
    112          6           0       30.673575   -2.585190    1.226592
    113          6           0       29.774561   -3.694402    1.619323
    114          6           0       28.481187   -3.218856    1.207203
    115          6           0       28.675452   -1.988713    0.568214
    116          6           0       30.015398   -4.858572    2.491994
    117          6           0       27.019647   -3.441617    1.213851
    118          8           0       26.381464   -4.325062    1.737908
    119          6           0       26.322936   -2.234860    0.506628
    120          6           0       25.498689   -2.705609   -0.607161
    121          8           0       24.283429   -2.618852   -0.785009
    122          8           0       26.311613   -3.577098   -1.378443
    123          6           0       25.677786   -4.122629   -2.597857
    124          1           0       28.457731    3.691758   -2.219560
    125          1           0       34.408758    2.331209   -0.307883
    126          1           0       32.592821   -3.187760    2.016406
    127          1           0       25.579848   -0.068924   -1.567765
    128          1           0       26.135335    2.667259   -1.428583
    129          1           0       25.917331    1.077354   -3.849589
    130          1           0       27.474335    1.743264   -3.963782
    131          1           0       25.962340    2.747248   -3.699240
    132          1           0       24.292028    0.272580    0.278938
    133          1           0       24.463407    1.871835   -0.276066
    134          1           0       26.633379    1.726552    1.512550
    135          1           0       25.443521    0.703456    2.276275
    136          1           0       30.633936    6.602689   -1.818775
    137          1           0       29.250893    5.610156   -1.986086
    138          1           0       30.632347    5.491789   -3.207245
    139          1           0       35.105945    4.206703   -1.539317
    140          1           0       34.768498    4.302436    0.239578
    141          1           0       35.352591    5.741575   -0.663277
    142          1           0       35.191145    0.646009    1.574025
    143          1           0       34.662686   -2.082976    0.916269
    144          1           0       36.629392   -0.899698    0.287833
    145          1           0       36.371018    0.617402   -0.506100
    146          1           0       35.434528   -0.821156   -1.106352
    147          1           0       33.605426   -0.948160    3.578732
    148          1           0       35.183490   -0.422630    3.483080
    149          1           0       34.318077   -3.012181    4.214554
    150          1           0       35.866133   -2.423743    4.351900
    151          1           0       35.246525   -3.216285    2.753812
    152          1           0       31.028297   -4.956598    2.885362
    153          1           0       29.852702   -5.736232    1.867384
    154          1           0       29.395656   -4.590406    3.347391
    155          1           0       25.714071   -1.778127    1.286518
    156          1           0       26.467886   -3.992093   -3.338206
    157          1           0       24.762043   -3.688035   -2.998757
    158          1           0       25.671024   -5.200908   -2.437505
 ---------------------------------------------------------------------

 SCF Done:  E(RCAM-B3LYP) =  -4069.79968507     A.U. after   19 cycles

 Excitation energies and oscillator strengths:

 Excited State   1:      Singlet-A      1.7179 eV  721.74 nm  f=0.3707  <S**2>=0.000
     309 -> 315        0.18176
     312 -> 313        0.68360
     309 <- 315        0.10500
 This state for optimization and/or second-order correction.
 Total Energy, E(TD-HF/TD-DFT) =  -4069.73655482
 Copying the excited state density for this state as the 1-particle RhoCI density.

 Excited State   2:      Singlet-A      1.7949 eV  690.78 nm  f=0.3742  <S**2>=0.000
     310 -> 316       -0.18886
     311 -> 314        0.68030
     310 <- 316       -0.10305

 Excited State   3:      Singlet-A      2.1692 eV  571.56 nm  f=0.0990  <S**2>=0.000
     310 -> 314        0.64308
     311 -> 316        0.27289

 Excited State   4:      Singlet-A      2.2043 eV  562.48 nm  f=0.0883  <S**2>=0.000
     309 -> 313        0.62966
     312 -> 315       -0.30515

 Excited State   5:      Singlet-A      3.2859 eV  377.32 nm  f=0.0000  <S**2>=0.000
     311 -> 313        0.70711

 The electronic state is 1-A.
 Alpha  occ. eigenvalues --  -46.89102 -46.88520 -19.24337 -19.23245 -19.20533
 Alpha  occ. eigenvalues --  -19.20287 -19.19555 -19.19021 -19.18816 -19.18345
 Alpha  occ. eigenvalues --  -14.42231 -14.42203 -14.41947 -14.41720 -14.39724
 Alpha  occ. eigenvalues --  -14.39640 -14.39180 -14.37984 -10.39727 -10.38527
 Alpha  occ. eigenvalues --  -10.36778 -10.35114 -10.35103 -10.34792 -10.32194
 Alpha  occ. eigenvalues --  -10.31619 -10.31528 -10.31293 -10.31179 -10.30861
 Alpha  occ. eigenvalues --  -10.30796 -10.30676 -10.30629 -10.30616 -10.30590
 Alpha  occ. eigenvalues --  -10.30189 -10.30075 -10.30075 -10.29713 -10.29349
 Alpha  occ. eigenvalues --  -10.29188 -10.28955 -10.28674 -10.28537 -10.28424
 Alpha  occ. eigenvalues --  -10.28409 -10.28336 -10.28203 -10.28189 -10.28168
 Alpha  occ. eigenvalues --  -10.28157 -10.28072 -10.28071 -10.27961 -10.27872
 Alpha  occ. eigenvalues --  -10.27836 -10.27675 -10.27669 -10.27611 -10.27606
 Alpha  occ. eigenvalues --  -10.27574 -10.27368 -10.27296 -10.27159 -10.27134
 Alpha  occ. eigenvalues --  -10.27124 -10.26964 -10.26901 -10.26880 -10.26725
 Alpha  occ. eigenvalues --  -10.26677 -10.26212 -10.26202 -10.26136 -10.26059
 Alpha  occ. eigenvalues --  -10.26052 -10.26019 -10.25958 -10.25958 -10.25853
 Alpha  occ. eigenvalues --  -10.25844 -10.25750 -10.25597 -10.25428 -10.25382
 Alpha  occ. eigenvalues --  -10.24404  -3.17627  -3.16980  -1.92511  -1.92098
 Alpha  occ. eigenvalues --   -1.91920  -1.91893  -1.91437  -1.91277  -1.15180
 Alpha  occ. eigenvalues --   -1.14813  -1.10465  -1.10357  -1.09521  -1.09370
 Alpha  occ. eigenvalues --   -1.06977  -1.06895  -1.05087  -1.05068  -1.04500
 Alpha  occ. eigenvalues --   -1.03714  -1.03181  -1.02339  -1.01674  -1.00950
 Alpha  occ. eigenvalues --   -0.92460  -0.91796  -0.89652  -0.89263  -0.89218
 Alpha  occ. eigenvalues --   -0.88882  -0.87982  -0.87726  -0.87664  -0.87575
 Alpha  occ. eigenvalues --   -0.87216  -0.86876  -0.86181  -0.85421  -0.84829
 Alpha  occ. eigenvalues --   -0.84452  -0.83963  -0.83668  -0.82849  -0.82718
 Alpha  occ. eigenvalues --   -0.82382  -0.81677  -0.80839  -0.80653  -0.80148
 Alpha  occ. eigenvalues --   -0.79845  -0.78580  -0.78317  -0.77498  -0.77169
 Alpha  occ. eigenvalues --   -0.76843  -0.76358  -0.76212  -0.75745  -0.75379
 Alpha  occ. eigenvalues --   -0.75130  -0.72640  -0.72487  -0.72136  -0.71677
 Alpha  occ. eigenvalues --   -0.69808  -0.69422  -0.69360  -0.68602  -0.68085
 Alpha  occ. eigenvalues --   -0.67233  -0.66825  -0.66611  -0.66410  -0.66024
 Alpha  occ. eigenvalues --   -0.65174  -0.64899  -0.64504  -0.64504  -0.63996
 Alpha  occ. eigenvalues --   -0.63445  -0.62539  -0.61028  -0.60273  -0.60184
 Alpha  occ. eigenvalues --   -0.59375  -0.59083  -0.58939  -0.58582  -0.58282
 Alpha  occ. eigenvalues --   -0.58036  -0.57523  -0.57521  -0.57247  -0.56810
 Alpha  occ. eigenvalues --   -0.56437  -0.56321  -0.55820  -0.55416  -0.55345
 Alpha  occ. eigenvalues --   -0.55095  -0.55060  -0.54606  -0.54246  -0.53886
 Alpha  occ. eigenvalues --   -0.53662  -0.53180  -0.53098  -0.52903  -0.52804
 Alpha  occ. eigenvalues --   -0.52711  -0.52621  -0.52172  -0.52159  -0.51999
 Alpha  occ. eigenvalues --   -0.51979  -0.51712  -0.51612  -0.51344  -0.51180
 Alpha  occ. eigenvalues --   -0.51107  -0.50889  -0.50846  -0.50489  -0.50468
 Alpha  occ. eigenvalues --   -0.50274  -0.50155  -0.50012  -0.49630  -0.49549
 Alpha  occ. eigenvalues --   -0.49268  -0.49261  -0.48919  -0.48818  -0.48633
 Alpha  occ. eigenvalues --   -0.48560  -0.48312  -0.48294  -0.48167  -0.48005
 Alpha  occ. eigenvalues --   -0.47818  -0.47736  -0.47500  -0.47296  -0.47249
 Alpha  occ. eigenvalues --   -0.47000  -0.46913  -0.46540  -0.46499  -0.46473
 Alpha  occ. eigenvalues --   -0.46270  -0.46205  -0.46132  -0.45727  -0.45541
 Alpha  occ. eigenvalues --   -0.45427  -0.45383  -0.45117  -0.45022  -0.44988
 Alpha  occ. eigenvalues --   -0.44972  -0.44856  -0.44687  -0.44643  -0.44233
 Alpha  occ. eigenvalues --   -0.43924  -0.43924  -0.43700  -0.43416  -0.43308
 Alpha  occ. eigenvalues --   -0.43217  -0.43105  -0.43055  -0.42746  -0.42718
 Alpha  occ. eigenvalues --   -0.42581  -0.42475  -0.42236  -0.42128  -0.41993
 Alpha  occ. eigenvalues --   -0.41960  -0.41707  -0.41681  -0.41669  -0.41533
 Alpha  occ. eigenvalues --   -0.41336  -0.41219  -0.41129  -0.40957  -0.40455
 Alpha  occ. eigenvalues --   -0.40117  -0.39990  -0.39981  -0.39101  -0.39039
 Alpha  occ. eigenvalues --   -0.38767  -0.38506  -0.37973  -0.37704  -0.37540
 Alpha  occ. eigenvalues --   -0.37429  -0.36892  -0.36555  -0.36358  -0.35735
 Alpha  occ. eigenvalues --   -0.35650  -0.35383  -0.35151  -0.34794  -0.34152
 Alpha  occ. eigenvalues --   -0.33776  -0.33316  -0.33080  -0.31883  -0.31270
 Alpha  occ. eigenvalues --   -0.31203  -0.31170  -0.30808  -0.30455  -0.29955
 Alpha  occ. eigenvalues --   -0.29902  -0.29652  -0.28280  -0.24093  -0.23707
 Alpha  occ. eigenvalues --   -0.21309  -0.21212
 Alpha virt. eigenvalues --   -0.08662  -0.08469  -0.02244  -0.02006  -0.00105
 Alpha virt. eigenvalues --    0.00635   0.01718   0.02531   0.02739   0.03028
 Alpha virt. eigenvalues --    0.04090   0.04842   0.04953   0.05786   0.05954

 Mulliken charges:
               1
     1  Mg   0.811757
     2  C    0.065932
     3  C   -0.080733
     4  C   -0.049834
     5  C   -0.080321
     6  N   -0.243705
     7  C   -0.044110
     8  C   -0.078550
     9  C   -0.052576
    10  C    0.070648
    11  C    0.081538
    12  C    0.031113
    13  C   -0.039724
    14  H    0.027230
    15  N   -0.472446
    16  C    0.156181
    17  C   -0.129862
    18  C   -0.044019
    19  C    0.185464
    20  C    0.083036
    21  C    0.032476
    22  O   -0.206813
    23  C    0.049066
    24  N   -0.232698
    25  C   -0.065522
    26  C    0.007725
    27  C   -0.051192
    28  C    0.034411
    29  C    0.080386
    30  C    0.038146
    31  C   -0.000214
    32  N   -0.356293
    33  C    0.124436
    34  C   -0.178833
    35  C    0.006965
    36  C    0.040665
    37  C    0.124962
    38  C    0.058962
    39  O   -0.165384
    40  C   -0.025063
    41  C    0.157037
    42  O   -0.178251
    43  O   -0.379232
    44  C    0.174382
    45  H   -0.025477
    46  H   -0.012916
    47  H   -0.046848
    48  H    0.010052
    49  H    0.009989
    50  H    0.016372
    51  H    0.011419
    52  H    0.026187
    53  H    0.000536
    54  H    0.030970
    55  H    0.019262
    56  H    0.041704
    57  H    0.019240
    58  H    0.042646
    59  H    0.038248
    60  H    0.056912
    61  H    0.022341
    62  H    0.039028
    63  H    0.015454
    64  H    0.015289
    65  H    0.024425
    66  H    0.009852
    67  H    0.034400
    68  H    0.006792
    69  H   -0.002346
    70  H    0.016808
    71  H    0.017339
    72  H    0.022482
    73  H    0.015613
    74  H    0.033883
    75  H    0.028236
    76  H    0.049817
    77  H    0.034570
    78  H    0.052970
    79  H    0.037606
    80  Mg   0.819801
    81  C   -0.024935
    82  C   -0.097591
    83  C   -0.086986
    84  C   -0.094172
    85  N   -0.283856
    86  C   -0.030095
    87  C   -0.040830
    88  C    0.001998
    89  C    0.000853
    90  C    0.064169
    91  C    0.029202
    92  C   -0.076366
    93  H    0.023196
    94  N   -0.359608
    95  C    0.167001
    96  C   -0.136619
    97  C   -0.064251
    98  C    0.184921
    99  C    0.126756
   100  C    0.000324
   101  O   -0.204529
   102  C    0.054790
   103  N   -0.295309
   104  C   -0.001578
   105  C   -0.034007
   106  C   -0.063441
   107  C    0.012392
   108  C    0.107194
   109  C    0.036500
   110  C    0.030429
   111  N   -0.342666
   112  C    0.151463
   113  C   -0.189600
   114  C   -0.004830
   115  C    0.088713
   116  C    0.130656
   117  C    0.030279
   118  O   -0.149158
   119  C    0.028491
   120  C    0.222595
   121  O   -0.208314
   122  O   -0.379730
   123  C    0.180157
   124  H   -0.029644
   125  H   -0.042320
   126  H   -0.043967
   127  H    0.010516
   128  H    0.006340
   129  H    0.011240
   130  H    0.026794
   131  H    0.022144
   132  H    0.028673
   133  H    0.010454
   134  H    0.047600
   135  H    0.030619
   136  H    0.035818
   137  H    0.016225
   138  H    0.041130
   139  H    0.048733
   140  H    0.044988
   141  H    0.024311
   142  H    0.004670
   143  H    0.008070
   144  H    0.019790
   145  H    0.014478
   146  H    0.025111
   147  H    0.015650
   148  H    0.007058
   149  H    0.005826
   150  H    0.014910
   151  H    0.023374
   152  H   -0.003582
   153  H    0.043726
   154  H    0.053197
   155  H    0.038612
   156  H    0.018947
   157  H    0.058647
   158  H    0.038456
 Sum of Mulliken charges =  -0.00000

 Dipole moment (field-independent basis, Debye):
    X=              1.2999    Y=              2.9704    Z=             -4.2634  Tot=              5.3562
 Quadrupole moment (field-independent basis, Debye-Ang):
   XX=             15.7003   YY=           -563.1515   ZZ=           -466.2668
   XY=           -163.6405   XZ=             19.4199   YZ=              9.0647

 Normal termination of Gaussian 16 at Wed Sep 15 02:36:17 2021.
