 Gaussian 16, Revision A.03,
 Gaussian 16:  ES64L-G16RevA.03 25-Dec-2016

 -----------------------------------
 #p cam-b3lyp/Def2SVP td=(nstates=5)
 -----------------------------------

 --------------------------------
 TDDFT excited states in gaussian
 --------------------------------
 Symbolic Z-matrix:
 Charge =  0 Multiplicity = 1

                         Standard orientation:
 ---------------------------------------------------------------------
 Center     Atomic      Atomic             Coordinates (Angstroms)
 Number     Number       Type             X           Y           Z
 ---------------------------------------------------------------------
      1         12           0       -9.482626   -0.972824    0.508231
      2          6           0       -9.979903    2.502664   -0.079792
      3          6           0       -7.548096   -0.148687    3.228704
      4          6           0       -9.080386   -4.233764    0.859443
      5          6           0      -11.093058   -1.671103   -2.628366
      6          7           0       -8.752235    1.017335    1.467734
      7          6           0       -9.205929    2.260856    1.067571
      8          6           0       -8.606922    3.290333    2.086117
      9          6           0       -7.761972    2.422803    3.163355
     10          6           0       -8.021253    1.029358    2.581656
     11          6           0       -6.285301    2.827516    3.353444
     12          6           0       -9.605266    4.350245    2.711164
     13          6           0       -9.257633    5.790878    2.472462
     14          1           0       -7.851058    6.287348    2.265420
     15          7           0       -8.514586   -2.095369    1.996611
     16          6           0       -7.778360   -1.559751    3.006007
     17          6           0       -7.431204   -2.660935    3.867069
     18          6           0       -7.764309   -3.840111    3.166207
     19          6           0       -8.479098   -3.460665    1.904289
     20          6           0       -6.668809   -2.402445    5.177564
     21          6           0       -7.367531   -5.242486    3.515617
     22          8           0       -7.620416   -6.205274    2.753162
     23          6           0       -6.607102   -5.493587    4.764672
     24          7           0       -9.989860   -2.691939   -0.805357
     25          6           0       -9.783390   -3.889679   -0.380595
     26          6           0      -10.338450   -5.102148   -1.302005
     27          6           0      -10.961079   -4.255593   -2.422643
     28          6           0      -10.693377   -2.841446   -1.968876
     29          6           0       -9.140709   -6.022773   -1.739049
     30          6           0      -12.481964   -4.492125   -2.727993
     31          6           0      -13.489012   -3.958299   -1.681757
     32          7           0      -10.216927    0.139566   -1.042378
     33          6           0      -10.809643   -0.306800   -2.246979
     34          6           0      -11.308468    0.873445   -2.965952
     35          6           0      -11.011930    1.990518   -2.148595
     36          6           0      -10.381313    1.488084   -0.960489
     37          6           0      -12.053053    0.850573   -4.334410
     38          6           0      -11.157306    3.347924   -2.095213
     39          8           0      -11.606160    4.153189   -2.885320
     40          6           0      -10.559567    3.793209   -0.731356
     41          6           0       -9.575946    4.822330   -0.977375
     42          8           0       -8.381402    4.613882   -1.217768
     43          8           0      -10.215521    6.057361   -1.137034
     44          6           0       -9.321602    7.155084   -1.582003
     45          1           0       -6.730221   -0.026716    3.942443
     46          1           0       -8.798363   -5.287778    0.905689
     47          1           0      -11.593280   -1.827521   -3.586317
     48          1           0       -8.022593    3.878674    1.379827
     49          1           0       -8.190260    2.580060    4.152276
     50          1           0       -6.077899    3.047152    4.401530
     51          1           0       -5.921476    3.657348    2.747784
     52          1           0       -5.731883    1.940601    3.044871
     53          1           0       -9.702683    4.183262    3.784063
     54          1           0      -10.555589    4.180162    2.205080
     55          1           0       -9.405802    6.302100    3.424336
     56          1           0       -9.895152    6.157697    1.668806
     57          1           0       -6.725710   -1.358528    5.486802
     58          1           0       -5.624419   -2.687069    5.056357
     59          1           0       -7.163892   -3.041264    5.908230
     60          1           0       -7.214622   -5.112717    5.585645
     61          1           0       -5.668930   -4.937506    4.778092
     62          1           0       -6.343944   -6.547196    4.849153
     63          1           0      -11.102433   -5.679353   -0.780589
     64          1           0      -10.339498   -4.321537   -3.315903
     65          1           0       -8.246446   -5.401633   -1.789068
     66          1           0       -9.343567   -6.385908   -2.747179
     67          1           0       -8.907701   -6.888753   -1.118927
     68          1           0      -12.644625   -5.532684   -3.007061
     69          1           0      -12.701021   -4.006046   -3.678185
     70          1           0      -13.164198   -3.960224   -0.641818
     71          1           0      -14.433384   -4.485246   -1.822721
     72          1           0      -13.695661   -2.933854   -1.991060
     73          1           0      -12.976982    1.428964   -4.329460
     74          1           0      -12.258284   -0.156088   -4.696824
     75          1           0      -11.514705    1.484373   -5.039543
     76          1           0      -11.437616    4.203958   -0.234028
     77          1           0       -9.000581    6.994528   -2.610894
     78          1           0       -8.398387    7.245055   -1.010719
     79          1           0       -9.837304    8.085036   -1.341923
     80         12           0        9.723872   -0.575723   -0.161592
     81          6           0        7.886063    2.448186   -0.232106
     82          6           0       12.415502    1.195582    0.841836
     83          6           0       11.409075   -3.381252   -0.247637
     84          6           0        6.987841   -2.087271   -1.921480
     85          7           0       10.169505    1.636200    0.174128
     86          6           0        9.176837    2.590882    0.318928
     87          6           0        9.803750    3.768058    0.984549
     88          6           0       11.307818    3.566568    0.797467
     89          6           0       11.356164    2.029164    0.612668
     90          6           0       11.816235    4.297604   -0.501304
     91          6           0        9.423461    4.014827    2.542455
     92          6           0        9.125579    5.453444    3.065432
     93          1           0       10.157748    6.559268    2.700410
     94          7           0       11.687213   -0.996703    0.244755
     95          6           0       12.589810   -0.151168    0.646583
     96          6           0       13.865610   -0.873077    0.793118
     97          6           0       13.576245   -2.267716    0.693145
     98          6           0       12.174730   -2.273550    0.185828
     99          6           0       15.299679   -0.288968    1.064541
    100          6           0       14.424941   -3.505736    0.981044
    101          8           0       14.069067   -4.673339    0.731618
    102          6           0       15.810960   -3.315209    1.379929
    103          7           0        9.278772   -2.462439   -1.160501
    104          6           0       10.142493   -3.529065   -0.925819
    105          6           0        9.449949   -4.861903   -1.407663
    106          6           0        8.020369   -4.402310   -1.787990
    107          6           0        8.067067   -2.887246   -1.577507
    108          6           0       10.256430   -5.602466   -2.474776
    109          6           0        6.854312   -5.142725   -1.085910
    110          6           0        5.599095   -5.471596   -1.927356
    111          7           0        7.831608    0.004037   -0.949973
    112          6           0        6.863321   -0.685331   -1.673083
    113          6           0        5.705952    0.161519   -1.812014
    114          6           0        6.085756    1.409054   -1.314672
    115          6           0        7.396045    1.291376   -0.774377
    116          6           0        4.449256   -0.199192   -2.322773
    117          6           0        5.642029    2.782648   -1.034771
    118          8           0        4.583211    3.364235   -1.210961
    119          6           0        6.809795    3.505690   -0.287165
    120          6           0        7.159060    4.746465   -1.089494
    121          8           0        7.862735    4.942835   -2.054318
    122          8           0        6.535660    5.725836   -0.371603
    123          6           0        6.920117    7.131399   -0.643759
    124          1           0       13.269761    1.739836    1.250799
    125          1           0       11.934616   -4.321057   -0.066258
    126          1           0        6.070651   -2.580493   -2.248630
    127          1           0        9.559948    4.742797    0.561271
    128          1           0       11.874977    3.760717    1.707491
    129          1           0       12.836816    4.671556   -0.426887
    130          1           0       11.270259    5.215662   -0.719892
    131          1           0       11.794992    3.533456   -1.277549
    132          1           0       10.158596    3.518077    3.174778
    133          1           0        8.533058    3.437824    2.794904
    134          1           0        9.212107    5.325441    4.145037
    135          1           0        8.124659    5.626389    2.669950
    136          1           0       15.716059   -0.510768    2.046895
    137          1           0       15.228532    0.792063    0.941254
    138          1           0       16.093735   -0.697658    0.439546
    139          1           0       15.879787   -2.661904    2.250131
    140          1           0       16.395376   -2.895066    0.561272
    141          1           0       16.159695   -4.271186    1.769336
    142          1           0        9.312682   -5.466894   -0.511298
    143          1           0        7.883375   -4.432673   -2.868747
    144          1           0        9.957029   -5.243529   -3.460023
    145          1           0       10.068038   -6.674507   -2.522950
    146          1           0       11.291816   -5.265997   -2.432622
    147          1           0        6.531713   -4.679852   -0.153419
    148          1           0        7.188468   -6.098843   -0.680836
    149          1           0        4.901622   -4.669375   -1.685931
    150          1           0        5.212521   -6.395607   -1.496198
    151          1           0        5.854206   -5.505618   -2.986181
    152          1           0        3.780816    0.565498   -2.717778
    153          1           0        3.953865   -0.783924   -1.547035
    154          1           0        4.661575   -0.833354   -3.182746
    155          1           0        6.500965    3.764142    0.725548
    156          1           0        7.011602    7.585639    0.342432
    157          1           0        6.204070    7.725843   -1.210655
    158          1           0        7.893204    7.162694   -1.133181
 ---------------------------------------------------------------------

 SCF Done:  E(RCAM-B3LYP) =  -4069.80367244     A.U. after   19 cycles

 Excitation energies and oscillator strengths:

 Excited State   1:      Singlet-A      1.7329 eV  715.47 nm  f=0.4120  <S**2>=0.000
     309 -> 315        0.19041
     312 -> 314        0.68103
     309 <- 315        0.10749
 This state for optimization and/or second-order correction.
 Total Energy, E(TD-HF/TD-DFT) =  -4069.73998913
 Copying the excited state density for this state as the 1-particle RhoCI density.

 Excited State   2:      Singlet-A      1.7524 eV  707.51 nm  f=0.3492  <S**2>=0.000
     310 -> 316        0.18823
     311 -> 313        0.68145
     310 <- 316        0.10755

 Excited State   3:      Singlet-A      2.2085 eV  561.39 nm  f=0.1036  <S**2>=0.000
     310 -> 313        0.64214
     311 -> 316       -0.28060

 Excited State   4:      Singlet-A      2.2618 eV  548.16 nm  f=0.0694  <S**2>=0.000
     309 -> 314        0.62157
     312 -> 315       -0.32240

 Excited State   5:      Singlet-A      2.9035 eV  427.02 nm  f=0.0000  <S**2>=0.000
     312 -> 313        0.70703

 The electronic state is 1-A.
 Alpha  occ. eigenvalues --  -46.89730 -46.89358 -19.24333 -19.24144 -19.20004
 Alpha  occ. eigenvalues --  -19.19249 -19.19167 -19.18715 -19.18654 -19.17431
 Alpha  occ. eigenvalues --  -14.42592 -14.41792 -14.41764 -14.41414 -14.39846
 Alpha  occ. eigenvalues --  -14.39681 -14.39588 -14.38940 -10.39207 -10.38488
 Alpha  occ. eigenvalues --  -10.35516 -10.35011 -10.34789 -10.33204 -10.31821
 Alpha  occ. eigenvalues --  -10.31683 -10.31622 -10.31426 -10.31336 -10.31007
 Alpha  occ. eigenvalues --  -10.30810 -10.30803 -10.30735 -10.30654 -10.30328
 Alpha  occ. eigenvalues --  -10.30122 -10.30028 -10.29972 -10.29873 -10.29771
 Alpha  occ. eigenvalues --  -10.29529 -10.29440 -10.29285 -10.28756 -10.28687
 Alpha  occ. eigenvalues --  -10.28267 -10.28198 -10.28034 -10.27974 -10.27912
 Alpha  occ. eigenvalues --  -10.27900 -10.27890 -10.27887 -10.27885 -10.27866
 Alpha  occ. eigenvalues --  -10.27699 -10.27659 -10.27588 -10.27573 -10.27526
 Alpha  occ. eigenvalues --  -10.27468 -10.27358 -10.27301 -10.27297 -10.27249
 Alpha  occ. eigenvalues --  -10.27164 -10.27163 -10.27054 -10.26942 -10.26677
 Alpha  occ. eigenvalues --  -10.26525 -10.26495 -10.26362 -10.26316 -10.26269
 Alpha  occ. eigenvalues --  -10.26194 -10.26045 -10.25886 -10.25869 -10.25809
 Alpha  occ. eigenvalues --  -10.25786 -10.25700 -10.25613 -10.25214 -10.24777
 Alpha  occ. eigenvalues --  -10.23808  -3.18066  -3.17745  -1.92980  -1.92643
 Alpha  occ. eigenvalues --   -1.92557  -1.92323  -1.92202  -1.92037  -1.16089
 Alpha  occ. eigenvalues --   -1.14230  -1.09562  -1.09356  -1.09151  -1.08408
 Alpha  occ. eigenvalues --   -1.07733  -1.06185  -1.06029  -1.05139  -1.03928
 Alpha  occ. eigenvalues --   -1.03611  -1.03040  -1.02942  -1.02054  -1.01613
 Alpha  occ. eigenvalues --   -0.92750  -0.92186  -0.89677  -0.88867  -0.88467
 Alpha  occ. eigenvalues --   -0.88206  -0.87971  -0.87718  -0.87541  -0.87171
 Alpha  occ. eigenvalues --   -0.87115  -0.86871  -0.86707  -0.85393  -0.84227
 Alpha  occ. eigenvalues --   -0.84220  -0.83575  -0.83293  -0.82723  -0.82460
 Alpha  occ. eigenvalues --   -0.82439  -0.82164  -0.81484  -0.80585  -0.80580
 Alpha  occ. eigenvalues --   -0.79959  -0.78372  -0.78249  -0.77503  -0.77434
 Alpha  occ. eigenvalues --   -0.77018  -0.76342  -0.75841  -0.75617  -0.75103
 Alpha  occ. eigenvalues --   -0.74886  -0.72489  -0.72437  -0.71802  -0.71468
 Alpha  occ. eigenvalues --   -0.70396  -0.68949  -0.68886  -0.68738  -0.67744
 Alpha  occ. eigenvalues --   -0.67683  -0.67361  -0.66829  -0.65460  -0.65295
 Alpha  occ. eigenvalues --   -0.65241  -0.65039  -0.64812  -0.64542  -0.64311
 Alpha  occ. eigenvalues --   -0.64144  -0.61917  -0.61307  -0.60469  -0.60154
 Alpha  occ. eigenvalues --   -0.59590  -0.59412  -0.59218  -0.58518  -0.58304
 Alpha  occ. eigenvalues --   -0.58033  -0.57921  -0.57840  -0.57482  -0.57437
 Alpha  occ. eigenvalues --   -0.56203  -0.56139  -0.55935  -0.55881  -0.55182
 Alpha  occ. eigenvalues --   -0.55178  -0.54863  -0.54439  -0.53682  -0.53553
 Alpha  occ. eigenvalues --   -0.53488  -0.53234  -0.53218  -0.53177  -0.52936
 Alpha  occ. eigenvalues --   -0.52914  -0.52736  -0.52530  -0.52415  -0.52107
 Alpha  occ. eigenvalues --   -0.51938  -0.51663  -0.51548  -0.51467  -0.51197
 Alpha  occ. eigenvalues --   -0.51178  -0.50784  -0.50717  -0.50391  -0.50391
 Alpha  occ. eigenvalues --   -0.49959  -0.49767  -0.49598  -0.49435  -0.49343
 Alpha  occ. eigenvalues --   -0.49174  -0.49129  -0.48969  -0.48891  -0.48826
 Alpha  occ. eigenvalues --   -0.48759  -0.48476  -0.48157  -0.47899  -0.47840
 Alpha  occ. eigenvalues --   -0.47645  -0.47402  -0.47376  -0.47208  -0.47117
 Alpha  occ. eigenvalues --   -0.46884  -0.46657  -0.46633  -0.46514  -0.46430
 Alpha  occ. eigenvalues --   -0.46236  -0.46084  -0.45901  -0.45742  -0.45530
 Alpha  occ. eigenvalues --   -0.45399  -0.45012  -0.44909  -0.44830  -0.44670
 Alpha  occ. eigenvalues --   -0.44497  -0.44337  -0.44130  -0.44035  -0.43833
 Alpha  occ. eigenvalues --   -0.43696  -0.43672  -0.43669  -0.43364  -0.43114
 Alpha  occ. eigenvalues --   -0.42997  -0.42950  -0.42704  -0.42623  -0.42395
 Alpha  occ. eigenvalues --   -0.42295  -0.42274  -0.42147  -0.41906  -0.41761
 Alpha  occ. eigenvalues --   -0.41704  -0.41519  -0.41509  -0.41306  -0.41232
 Alpha  occ. eigenvalues --   -0.41158  -0.41052  -0.40850  -0.40540  -0.40492
 Alpha  occ. eigenvalues --   -0.40232  -0.40044  -0.39849  -0.39671  -0.39597
 Alpha  occ. eigenvalues --   -0.39032  -0.38761  -0.37657  -0.37382  -0.36856
 Alpha  occ. eigenvalues --   -0.36543  -0.36515  -0.36422  -0.36274  -0.35974
 Alpha  occ. eigenvalues --   -0.35917  -0.35377  -0.34638  -0.33884  -0.33836
 Alpha  occ. eigenvalues --   -0.33550  -0.33087  -0.32960  -0.31678  -0.31235
 Alpha  occ. eigenvalues --   -0.31157  -0.31147  -0.30546  -0.30435  -0.30242
 Alpha  occ. eigenvalues --   -0.29868  -0.29466  -0.29238  -0.23955  -0.23702
 Alpha  occ. eigenvalues --   -0.21155  -0.20955
 Alpha virt. eigenvalues --   -0.08459  -0.08262  -0.02046  -0.01697  -0.00124
 Alpha virt. eigenvalues --    0.00222   0.01756   0.02336   0.02407   0.02665
 Alpha virt. eigenvalues --    0.05127   0.05195   0.05636   0.05794   0.05990

 Mulliken charges:
               1
     1  Mg   0.811903
     2  C    0.029341
     3  C   -0.077248
     4  C   -0.042383
     5  C   -0.081101
     6  N   -0.244473
     7  C   -0.056583
     8  C   -0.021302
     9  C   -0.055158
    10  C    0.051516
    11  C    0.065073
    12  C    0.043260
    13  C   -0.087337
    14  H    0.017879
    15  N   -0.401975
    16  C    0.117193
    17  C   -0.164317
    18  C   -0.023912
    19  C    0.133592
    20  C    0.120951
    21  C   -0.011849
    22  O   -0.231238
    23  C    0.068200
    24  N   -0.203147
    25  C   -0.004697
    26  C   -0.058800
    27  C    0.082937
    28  C   -0.064750
    29  C    0.045452
    30  C    0.013647
    31  C    0.021084
    32  N   -0.385646
    33  C    0.134346
    34  C   -0.166445
    35  C    0.054522
    36  C    0.106934
    37  C    0.127395
    38  C   -0.040098
    39  O   -0.163371
    40  C    0.002733
    41  C    0.206249
    42  O   -0.235339
    43  O   -0.349901
    44  C    0.190896
    45  H   -0.014009
    46  H    0.003330
    47  H   -0.032148
    48  H    0.035840
    49  H    0.018186
    50  H    0.012446
    51  H    0.030188
    52  H    0.013891
    53  H    0.007222
    54  H    0.011810
    55  H    0.024726
    56  H    0.041386
    57  H    0.024841
    58  H    0.041102
    59  H    0.023396
    60  H    0.030345
    61  H    0.029139
    62  H    0.031183
    63  H    0.024865
    64  H    0.007635
    65  H    0.023994
    66  H    0.013927
    67  H    0.041759
    68  H    0.005406
    69  H    0.000362
    70  H    0.029196
    71  H    0.017222
    72  H    0.017762
    73  H    0.021060
    74  H    0.010505
    75  H    0.028855
    76  H    0.043903
    77  H    0.046066
    78  H    0.025667
    79  H    0.034909
    80  Mg   0.807794
    81  C   -0.037968
    82  C   -0.089860
    83  C   -0.053072
    84  C   -0.086803
    85  N   -0.255027
    86  C    0.011357
    87  C   -0.052059
    88  C   -0.029247
    89  C   -0.033364
    90  C    0.087642
    91  C    0.015969
    92  C   -0.056982
    93  H    0.015597
    94  N   -0.338730
    95  C    0.178044
    96  C   -0.150837
    97  C   -0.029552
    98  C    0.090511
    99  C    0.102825
   100  C    0.020353
   101  O   -0.219920
   102  C    0.059594
   103  N   -0.286745
   104  C    0.009187
   105  C   -0.007503
   106  C   -0.009727
   107  C    0.041895
   108  C    0.096726
   109  C    0.007943
   110  C    0.017187
   111  N   -0.353014
   112  C    0.116917
   113  C   -0.178504
   114  C    0.027066
   115  C    0.138421
   116  C    0.109091
   117  C    0.030113
   118  O   -0.162342
   119  C   -0.011676
   120  C    0.215864
   121  O   -0.195306
   122  O   -0.343036
   123  C    0.168232
   124  H   -0.039409
   125  H   -0.000946
   126  H   -0.036737
   127  H    0.002072
   128  H   -0.005869
   129  H    0.006450
   130  H    0.024768
   131  H    0.036035
   132  H   -0.001676
   133  H   -0.000484
   134  H    0.041942
   135  H    0.049240
   136  H    0.021873
   137  H    0.018327
   138  H    0.019668
   139  H    0.016941
   140  H    0.053791
   141  H    0.028071
   142  H    0.011393
   143  H    0.009255
   144  H   -0.005784
   145  H    0.023776
   146  H    0.026155
   147  H   -0.000287
   148  H   -0.001290
   149  H    0.023471
   150  H    0.015886
   151  H    0.024257
   152  H    0.035695
   153  H    0.030297
   154  H    0.017087
   155  H    0.050923
   156  H    0.029635
   157  H    0.046215
   158  H    0.042205
 Sum of Mulliken charges =  -0.00000

 Dipole moment (field-independent basis, Debye):
    X=              2.8005    Y=             -2.4032    Z=              7.4470  Tot=              8.3112
 Quadrupole moment (field-independent basis, Debye-Ang):
   XX=           -463.6502   YY=           -512.0967   ZZ=           -491.5665
   XY=             56.0202   XZ=              7.4685   YZ=             42.3433

 Normal termination of Gaussian 16 at Wed Sep 15 06:08:29 2021.
