 Gaussian 16, Revision A.03,
 Gaussian 16:  ES64L-G16RevA.03 25-Dec-2016

 -----------------------------------
 #p cam-b3lyp/Def2SVP td=(nstates=5)
 -----------------------------------

 --------------------------------
 TDDFT excited states in gaussian
 --------------------------------
 Symbolic Z-matrix:
 Charge =  0 Multiplicity = 1

                         Standard orientation:
 ---------------------------------------------------------------------
 Center     Atomic      Atomic             Coordinates (Angstroms)
 Number     Number       Type             X           Y           Z
 ---------------------------------------------------------------------
      1         12           0       13.549271    0.574597   -0.153582
      2          6           0       11.679369   -1.684592    1.601829
      3          6           0       15.251168   -1.871647   -1.644132
      4          6           0       15.371541    2.883760   -1.557019
      5          6           0       12.090855    3.069387    1.932467
      6          7           0       13.596017   -1.581437    0.090150
      7          6           0       12.566665   -2.260061    0.655763
      8          6           0       12.515813   -3.690326    0.192697
      9          6           0       13.861083   -3.782660   -0.633449
     10          6           0       14.331452   -2.345002   -0.678940
     11          6           0       14.895960   -4.787481   -0.072801
     12          6           0       11.126179   -4.101633   -0.592882
     13          6           0       10.417099   -5.405571   -0.196401
     14          1           0       11.294953   -6.514498    0.464318
     15          7           0       14.919620    0.523927   -1.499209
     16          6           0       15.545086   -0.557825   -2.032412
     17          6           0       16.639659   -0.209686   -2.905301
     18          6           0       16.553524    1.142347   -3.047188
     19          6           0       15.667452    1.572943   -1.921444
     20          6           0       17.539521   -1.338739   -3.373339
     21          6           0       17.356808    2.069369   -3.980989
     22          8           0       17.252881    3.273848   -3.993260
     23          6           0       18.326206    1.345727   -4.868226
     24          7           0       13.802171    2.668913    0.299571
     25          6           0       14.550674    3.387266   -0.556744
     26          6           0       14.434067    4.885769   -0.260706
     27          6           0       13.151794    4.965795    0.635476
     28          6           0       13.001830    3.478508    1.015922
     29          6           0       15.685805    5.630632    0.371799
     30          6           0       11.834127    5.461748   -0.070861
     31          6           0       11.237695    4.766309   -1.266217
     32          7           0       12.105617    0.777756    1.397508
     33          6           0       11.666612    1.818135    2.222755
     34          6           0       10.680472    1.350063    3.205003
     35          6           0       10.645150   -0.035847    2.989962
     36          6           0       11.523597   -0.289408    1.889852
     37          6           0        9.857690    2.167695    4.167309
     38          6           0       10.096866   -1.244103    3.407976
     39          8           0        9.334446   -1.546231    4.312704
     40          6           0       10.547910   -2.325972    2.392753
     41          6           0       10.975430   -3.434639    3.276596
     42          8           0       12.057371   -3.504171    3.864639
     43          8           0        9.967414   -4.336486    3.459025
     44          6           0       10.080125   -5.338424    4.523697
     45          1           0       15.649159   -2.687347   -2.251702
     46          1           0       15.904239    3.714585   -2.022787
     47          1           0       11.698313    3.937797    2.467010
     48          1           0       12.659291   -4.371079    1.031868
     49          1           0       13.622414   -4.040164   -1.665126
     50          1           0       15.679323   -4.234125    0.444975
     51          1           0       15.349608   -5.318315   -0.909785
     52          1           0       14.354354   -5.437937    0.614086
     53          1           0       11.410704   -4.154387   -1.643839
     54          1           0       10.364308   -3.336837   -0.445426
     55          1           0       10.040928   -5.913880   -1.083819
     56          1           0        9.532717   -5.177947    0.398589
     57          1           0       18.062416   -1.873879   -2.580527
     58          1           0       18.449052   -1.124360   -3.934177
     59          1           0       16.839458   -1.923496   -3.970089
     60          1           0       17.813715    0.588780   -5.461458
     61          1           0       19.070250    1.002873   -4.149532
     62          1           0       18.833234    1.901390   -5.656253
     63          1           0       14.309064    5.296558   -1.263201
     64          1           0       13.397387    5.511002    1.547082
     65          1           0       16.502640    4.920887    0.500504
     66          1           0       15.472082    5.945609    1.392487
     67          1           0       16.042025    6.517121   -0.155145
     68          1           0       12.135764    6.480944   -0.313779
     69          1           0       10.990322    5.506101    0.616969
     70          1           0       11.933115    4.009691   -1.631907
     71          1           0       11.087805    5.471967   -2.083193
     72          1           0       10.318338    4.206897   -1.094333
     73          1           0       10.188268    2.052675    5.198631
     74          1           0        8.807347    1.888216    4.083294
     75          1           0       10.093697    3.192344    3.878994
     76          1           0        9.756046   -2.576730    1.686700
     77          1           0        9.104974   -5.683041    4.869842
     78          1           0       10.773347   -5.028313    5.304107
     79          1           0       10.599382   -6.239110    4.196737
     80         12           0      -13.550163    0.642001   -0.227155
     81          6           0      -11.147288   -1.655693   -1.139709
     82          6           0      -15.913992   -2.035559   -0.493384
     83          6           0      -15.970467    2.769003    0.293571
     84          6           0      -11.218675    3.194935   -0.336214
     85          7           0      -13.511859   -1.592738   -0.981443
     86          6           0      -12.393917   -2.294778   -1.060459
     87          6           0      -12.683044   -3.817926   -0.942059
     88          6           0      -14.207996   -3.828504   -1.309969
     89          6           0      -14.632766   -2.404771   -0.916052
     90          6           0      -14.454733   -4.126712   -2.831622
     91          6           0      -12.382083   -4.198003    0.524834
     92          6           0      -12.449148   -5.691143    0.873349
     93          1           0      -13.034429   -6.679277   -0.115510
     94          7           0      -15.609716    0.477857    0.003543
     95          6           0      -16.374574   -0.733543   -0.112405
     96          6           0      -17.722346   -0.398359    0.326474
     97          6           0      -17.715300    0.990800    0.665499
     98          6           0      -16.398302    1.505119    0.292646
     99          6           0      -18.909860   -1.425008    0.444717
    100          6           0      -18.873198    1.804707    1.332116
    101          8           0      -18.739411    2.993109    1.437100
    102          6           0      -20.121269    1.119454    1.785441
    103          7           0      -13.571858    2.706384    0.046134
    104          6           0      -14.714675    3.397522    0.257209
    105          6           0      -14.500096    4.908496    0.337243
    106          6           0      -12.958806    5.014784    0.272670
    107          6           0      -12.545641    3.517495   -0.031382
    108          6           0      -15.222768    5.758672   -0.771314
    109          6           0      -12.261782    5.695001    1.423243
    110          6           0      -12.607705    5.348617    2.891550
    111          7           0      -11.587039    0.835149   -0.652474
    112          6           0      -10.751839    1.915489   -0.652043
    113          6           0       -9.412626    1.418995   -0.888371
    114          6           0       -9.467690   -0.006463   -1.064333
    115          6           0      -10.852571   -0.293214   -0.918104
    116          6           0       -8.195182    2.288056   -0.944902
    117          6           0       -8.746381   -1.194970   -1.373959
    118          8           0       -7.543625   -1.417904   -1.632815
    119          6           0       -9.924550   -2.266740   -1.695380
    120          6           0       -9.442856   -3.614379   -1.155533
    121          8           0       -9.070578   -3.818110   -0.063669
    122          8           0       -9.482765   -4.515932   -2.180829
    123          6           0       -9.423996   -5.924926   -1.850197
    124          1           0      -16.636298   -2.840500   -0.641330
    125          1           0      -16.744635    3.529009    0.418248
    126          1           0      -10.438748    3.955239   -0.404077
    127          1           0      -12.145928   -4.399573   -1.691111
    128          1           0      -14.623681   -4.579568   -0.637815
    129          1           0      -14.807034   -5.151096   -2.946112
    130          1           0      -13.514828   -3.962954   -3.359098
    131          1           0      -15.241114   -3.514386   -3.273033
    132          1           0      -13.150651   -3.734057    1.142480
    133          1           0      -11.465947   -3.733918    0.888817
    134          1           0      -12.757218   -5.878012    1.902317
    135          1           0      -11.405807   -5.980128    1.001334
    136          1           0      -19.812727   -1.074663   -0.056353
    137          1           0      -19.045377   -1.591333    1.513274
    138          1           0      -18.592913   -2.393171    0.055149
    139          1           0      -20.444577    1.765591    2.601881
    140          1           0      -19.925727    0.154686    2.252109
    141          1           0      -20.858533    0.773193    1.061168
    142          1           0      -14.883335    5.193874    1.316676
    143          1           0      -12.603844    5.506340   -0.633104
    144          1           0      -14.546902    6.584896   -0.990290
    145          1           0      -16.118732    6.099251   -0.251902
    146          1           0      -15.524731    5.122587   -1.603311
    147          1           0      -12.702955    6.688218    1.346693
    148          1           0      -11.172901    5.747571    1.394951
    149          1           0      -13.012362    6.136319    3.525684
    150          1           0      -11.712142    5.107241    3.464045
    151          1           0      -13.339067    4.540385    2.905122
    152          1           0       -7.372094    1.620056   -1.197077
    153          1           0       -7.980671    2.694215    0.044503
    154          1           0       -8.282075    3.172443   -1.575413
    155          1           0      -10.046475   -2.227452   -2.778025
    156          1           0       -8.589625   -6.076102   -2.535234
    157          1           0      -10.365175   -6.452959   -2.004848
    158          1           0       -9.079605   -6.136559   -0.837584
 ---------------------------------------------------------------------

 SCF Done:  E(RCAM-B3LYP) =  -4069.79821170     A.U. after   19 cycles

 Excitation energies and oscillator strengths:

 Excited State   1:      Singlet-A      1.7337 eV  715.14 nm  f=0.4179  <S**2>=0.000
     309 -> 315       -0.19567
     311 -> 313        0.67959
     309 <- 315       -0.11044
 This state for optimization and/or second-order correction.
 Total Energy, E(TD-HF/TD-DFT) =  -4069.73449908
 Copying the excited state density for this state as the 1-particle RhoCI density.

 Excited State   2:      Singlet-A      1.7680 eV  701.25 nm  f=0.3395  <S**2>=0.000
     310 -> 316       -0.19134
     312 -> 314        0.68048
     310 <- 316       -0.10582

 Excited State   3:      Singlet-A      2.2194 eV  558.64 nm  f=0.0902  <S**2>=0.000
     309 -> 313        0.63498
     311 -> 315        0.29928

 Excited State   4:      Singlet-A      2.2754 eV  544.89 nm  f=0.0580  <S**2>=0.000
     310 -> 314        0.61593
     312 -> 316        0.33782

 Excited State   5:      Singlet-A      2.9347 eV  422.48 nm  f=0.0000  <S**2>=0.000
     312 -> 313        0.70704

 The electronic state is 1-A.
 Alpha  occ. eigenvalues --  -46.88245 -46.87868 -19.24362 -19.23807 -19.20234
 Alpha  occ. eigenvalues --  -19.19858 -19.19074 -19.18992 -19.18240 -19.17553
 Alpha  occ. eigenvalues --  -14.41710 -14.41707 -14.41619 -14.40974 -14.39914
 Alpha  occ. eigenvalues --  -14.39282 -14.39250 -14.38659 -10.38890 -10.38154
 Alpha  occ. eigenvalues --  -10.35889 -10.35253 -10.35033 -10.33447 -10.31441
 Alpha  occ. eigenvalues --  -10.30740 -10.30689 -10.30596 -10.30568 -10.30552
 Alpha  occ. eigenvalues --  -10.30492 -10.30404 -10.30361 -10.30260 -10.30155
 Alpha  occ. eigenvalues --  -10.30045 -10.29601 -10.29290 -10.28984 -10.28920
 Alpha  occ. eigenvalues --  -10.28881 -10.28841 -10.28744 -10.28629 -10.28576
 Alpha  occ. eigenvalues --  -10.28434 -10.28053 -10.27973 -10.27779 -10.27767
 Alpha  occ. eigenvalues --  -10.27759 -10.27730 -10.27721 -10.27673 -10.27670
 Alpha  occ. eigenvalues --  -10.27657 -10.27632 -10.27600 -10.27559 -10.27559
 Alpha  occ. eigenvalues --  -10.27512 -10.27477 -10.27398 -10.27226 -10.27147
 Alpha  occ. eigenvalues --  -10.26715 -10.26535 -10.26452 -10.26443 -10.26436
 Alpha  occ. eigenvalues --  -10.26407 -10.26257 -10.26248 -10.26186 -10.26177
 Alpha  occ. eigenvalues --  -10.25967 -10.25952 -10.25804 -10.25764 -10.25721
 Alpha  occ. eigenvalues --  -10.25478 -10.25241 -10.25123 -10.24969 -10.24923
 Alpha  occ. eigenvalues --  -10.23968  -3.16882  -3.16723  -1.91781  -1.91588
 Alpha  occ. eigenvalues --   -1.91354  -1.91192  -1.91172  -1.91056  -1.17586
 Alpha  occ. eigenvalues --   -1.14740  -1.11502  -1.11452  -1.09775  -1.08902
 Alpha  occ. eigenvalues --   -1.07984  -1.05820  -1.05498  -1.05213  -1.04609
 Alpha  occ. eigenvalues --   -1.04058  -1.04025  -1.03029  -1.02906  -1.02053
 Alpha  occ. eigenvalues --   -0.92997  -0.92246  -0.89544  -0.89356  -0.88646
 Alpha  occ. eigenvalues --   -0.88515  -0.88335  -0.87929  -0.87873  -0.87379
 Alpha  occ. eigenvalues --   -0.87285  -0.86466  -0.86410  -0.85658  -0.84280
 Alpha  occ. eigenvalues --   -0.84045  -0.83712  -0.83497  -0.82632  -0.82509
 Alpha  occ. eigenvalues --   -0.82407  -0.81743  -0.81402  -0.80970  -0.80434
 Alpha  occ. eigenvalues --   -0.80258  -0.78939  -0.77973  -0.77376  -0.77337
 Alpha  occ. eigenvalues --   -0.76888  -0.76799  -0.75851  -0.75608  -0.75491
 Alpha  occ. eigenvalues --   -0.75124  -0.72662  -0.72551  -0.71984  -0.71598
 Alpha  occ. eigenvalues --   -0.70248  -0.69556  -0.68938  -0.68861  -0.68083
 Alpha  occ. eigenvalues --   -0.68055  -0.67225  -0.66181  -0.65318  -0.65166
 Alpha  occ. eigenvalues --   -0.64900  -0.64888  -0.64656  -0.64277  -0.64134
 Alpha  occ. eigenvalues --   -0.63670  -0.62350  -0.61616  -0.61034  -0.60486
 Alpha  occ. eigenvalues --   -0.59629  -0.59226  -0.59193  -0.59141  -0.58800
 Alpha  occ. eigenvalues --   -0.58123  -0.57897  -0.57829  -0.57709  -0.57465
 Alpha  occ. eigenvalues --   -0.56221  -0.56203  -0.56118  -0.55630  -0.55329
 Alpha  occ. eigenvalues --   -0.55221  -0.55034  -0.54586  -0.54336  -0.54204
 Alpha  occ. eigenvalues --   -0.53614  -0.53543  -0.53499  -0.53111  -0.52944
 Alpha  occ. eigenvalues --   -0.52536  -0.52528  -0.52372  -0.52343  -0.52288
 Alpha  occ. eigenvalues --   -0.52209  -0.52062  -0.51788  -0.51544  -0.51169
 Alpha  occ. eigenvalues --   -0.50741  -0.50697  -0.50514  -0.50376  -0.50138
 Alpha  occ. eigenvalues --   -0.50128  -0.49968  -0.49673  -0.49539  -0.49416
 Alpha  occ. eigenvalues --   -0.49304  -0.49291  -0.49245  -0.48999  -0.48753
 Alpha  occ. eigenvalues --   -0.48689  -0.48491  -0.48213  -0.48120  -0.47971
 Alpha  occ. eigenvalues --   -0.47957  -0.47929  -0.47695  -0.47619  -0.47080
 Alpha  occ. eigenvalues --   -0.46828  -0.46712  -0.46603  -0.46558  -0.46526
 Alpha  occ. eigenvalues --   -0.46423  -0.45938  -0.45816  -0.45619  -0.45563
 Alpha  occ. eigenvalues --   -0.45395  -0.45186  -0.45159  -0.44992  -0.44735
 Alpha  occ. eigenvalues --   -0.44720  -0.44419  -0.44021  -0.43840  -0.43816
 Alpha  occ. eigenvalues --   -0.43745  -0.43386  -0.43340  -0.43243  -0.43088
 Alpha  occ. eigenvalues --   -0.42959  -0.42839  -0.42822  -0.42754  -0.42675
 Alpha  occ. eigenvalues --   -0.42353  -0.42286  -0.42067  -0.42049  -0.41970
 Alpha  occ. eigenvalues --   -0.41856  -0.41750  -0.41549  -0.41481  -0.41412
 Alpha  occ. eigenvalues --   -0.41158  -0.40972  -0.40971  -0.40654  -0.40421
 Alpha  occ. eigenvalues --   -0.40204  -0.39530  -0.39496  -0.39421  -0.39118
 Alpha  occ. eigenvalues --   -0.38381  -0.38378  -0.38107  -0.37930  -0.37490
 Alpha  occ. eigenvalues --   -0.37110  -0.36900  -0.36366  -0.36357  -0.36183
 Alpha  occ. eigenvalues --   -0.35831  -0.35112  -0.35050  -0.34270  -0.33939
 Alpha  occ. eigenvalues --   -0.33324  -0.33184  -0.32847  -0.32412  -0.31561
 Alpha  occ. eigenvalues --   -0.31283  -0.30991  -0.30624  -0.30398  -0.29992
 Alpha  occ. eigenvalues --   -0.29799  -0.29618  -0.29342  -0.23788  -0.23723
 Alpha  occ. eigenvalues --   -0.21075  -0.20518
 Alpha virt. eigenvalues --   -0.08414  -0.07740  -0.01867  -0.01664   0.00211
 Alpha virt. eigenvalues --    0.00310   0.02371   0.02631   0.03050   0.03115
 Alpha virt. eigenvalues --    0.05125   0.05359   0.05871   0.06089   0.06203

 Mulliken charges:
               1
     1  Mg   0.850621
     2  C    0.012102
     3  C   -0.109495
     4  C   -0.070357
     5  C   -0.108690
     6  N   -0.257972
     7  C   -0.051749
     8  C   -0.000910
     9  C   -0.101364
    10  C    0.045246
    11  C    0.094753
    12  C    0.048883
    13  C   -0.072531
    14  H    0.012721
    15  N   -0.419436
    16  C    0.163723
    17  C   -0.108965
    18  C   -0.091283
    19  C    0.161777
    20  C    0.094061
    21  C    0.026174
    22  O   -0.168544
    23  C    0.036244
    24  N   -0.251349
    25  C    0.003009
    26  C   -0.036945
    27  C    0.002002
    28  C   -0.034655
    29  C    0.070350
    30  C    0.035384
    31  C    0.008502
    32  N   -0.312668
    33  C    0.155304
    34  C   -0.182981
    35  C    0.078887
    36  C    0.062819
    37  C    0.144258
    38  C   -0.022360
    39  O   -0.177283
    40  C    0.001700
    41  C    0.195295
    42  O   -0.239607
    43  O   -0.323546
    44  C    0.190563
    45  H   -0.033143
    46  H   -0.010685
    47  H   -0.035084
    48  H    0.022010
    49  H    0.005891
    50  H    0.023307
    51  H    0.016443
    52  H    0.024987
    53  H    0.008962
    54  H    0.018397
    55  H    0.026084
    56  H    0.040348
    57  H    0.037258
    58  H    0.007268
    59  H    0.045243
    60  H    0.040708
    61  H    0.049099
    62  H    0.021130
    63  H    0.008470
    64  H    0.002423
    65  H    0.016595
    66  H    0.004963
    67  H    0.028073
    68  H    0.006428
    69  H    0.007714
    70  H    0.009862
    71  H    0.017864
    72  H    0.021603
    73  H    0.036215
    74  H    0.041928
    75  H   -0.001623
    76  H    0.044419
    77  H    0.043116
    78  H    0.040112
    79  H    0.011927
    80  Mg   0.826112
    81  C   -0.012326
    82  C   -0.069429
    83  C   -0.074880
    84  C   -0.110717
    85  N   -0.226815
    86  C   -0.083332
    87  C   -0.038270
    88  C   -0.040643
    89  C    0.001531
    90  C    0.086688
    91  C    0.038242
    92  C   -0.033814
    93  H    0.029931
    94  N   -0.395505
    95  C    0.163775
    96  C   -0.171021
    97  C   -0.041646
    98  C    0.168837
    99  C    0.109753
   100  C    0.017408
   101  O   -0.181349
   102  C    0.052846
   103  N   -0.266013
   104  C   -0.012094
   105  C   -0.046934
   106  C   -0.006089
   107  C    0.066922
   108  C    0.083995
   109  C    0.038646
   110  C   -0.018455
   111  N   -0.393986
   112  C    0.127036
   113  C   -0.170451
   114  C    0.015128
   115  C    0.149510
   116  C    0.114091
   117  C    0.076214
   118  O   -0.199704
   119  C   -0.076704
   120  C    0.177539
   121  O   -0.154372
   122  O   -0.338202
   123  C    0.149809
   124  H   -0.021786
   125  H   -0.018224
   126  H   -0.032779
   127  H   -0.002310
   128  H   -0.001998
   129  H    0.017223
   130  H    0.023421
   131  H    0.017992
   132  H    0.001303
   133  H    0.042192
   134  H    0.018776
   135  H    0.015739
   136  H    0.037136
   137  H    0.036390
   138  H    0.006390
   139  H    0.032716
   140  H   -0.000034
   141  H    0.047095
   142  H    0.021835
   143  H    0.003703
   144  H    0.024742
   145  H    0.025988
   146  H    0.031836
   147  H    0.004372
   148  H    0.015926
   149  H    0.010619
   150  H    0.010330
   151  H    0.020203
   152  H    0.037341
   153  H    0.019569
   154  H    0.024776
   155  H    0.054826
   156  H    0.050833
   157  H    0.046082
   158  H    0.046512
 Sum of Mulliken charges =  -0.00000

 Dipole moment (field-independent basis, Debye):
    X=             -2.6105    Y=             -1.4881    Z=             -4.5916  Tot=              5.4875
 Quadrupole moment (field-independent basis, Debye-Ang):
   XX=           -373.9333   YY=           -461.5952   ZZ=           -525.3330
   XY=             16.2710   XZ=            -63.4205   YZ=             25.0735

 Normal termination of Gaussian 16 at Tue Aug 31 14:50:12 2021.
