 Gaussian 16, Revision A.03,
 Gaussian 16:  ES64L-G16RevA.03 25-Dec-2016

 -----------------------------------
 #p cam-b3lyp/Def2SVP td=(nstates=5)
 -----------------------------------

 --------------------------------
 TDDFT excited states in gaussian
 --------------------------------
 Symbolic Z-matrix:
 Charge =  0 Multiplicity = 1

                         Standard orientation:
 ---------------------------------------------------------------------
 Center     Atomic      Atomic             Coordinates (Angstroms)
 Number     Number       Type             X           Y           Z
 ---------------------------------------------------------------------
      1         12           0       24.314990   -0.763628    0.049288
      2          6           0       26.053874    2.238843   -0.147703
      3          6           0       23.176135    0.115178    3.095633
      4          6           0       23.295998   -3.948598    0.555999
      5          6           0       26.189554   -1.939744   -2.717753
      6          7           0       24.563609    1.013405    1.193732
      7          6           0       25.172903    2.218863    0.921412
      8          6           0       24.996507    3.199256    2.113554
      9          6           0       24.565070    2.221098    3.249443
     10          6           0       23.956655    1.069396    2.462831
     11          6           0       25.738765    1.709564    4.156841
     12          6           0       24.083700    4.348210    1.647416
     13          6           0       24.520424    5.691910    2.092495
     14          1           0       23.974707    6.805456    1.318980
     15          7           0       23.184410   -1.677626    1.510999
     16          6           0       22.763288   -1.106849    2.669169
     17          6           0       21.745680   -1.947983    3.247480
     18          6           0       21.779115   -3.168185    2.480588
     19          6           0       22.855955   -2.993863    1.501456
     20          6           0       20.980121   -1.593533    4.471694
     21          6           0       21.023301   -4.524064    2.667315
     22          8           0       21.165403   -5.479836    1.901944
     23          6           0       19.962852   -4.686781    3.720187
     24          7           0       24.989218   -2.734927   -0.770996
     25          6           0       24.257745   -3.909165   -0.443734
     26          6           0       24.573153   -5.070954   -1.326664
     27          6           0       25.318605   -4.297714   -2.462595
     28          6           0       25.457960   -2.855604   -1.982146
     29          6           0       25.407063   -6.199648   -0.631044
     30          6           0       24.563235   -4.330719   -3.841316
     31          6           0       23.073228   -3.905665   -3.801495
     32          7           0       25.734652   -0.010061   -1.265240
     33          6           0       26.371300   -0.586025   -2.375493
     34          6           0       27.220720    0.409215   -2.914200
     35          6           0       27.094327    1.518505   -2.087316
     36          6           0       26.203369    1.204824   -1.114525
     37          6           0       28.033936    0.273803   -4.161997
     38          6           0       27.601315    2.789551   -1.858178
     39          8           0       28.463380    3.423609   -2.493520
     40          6           0       26.964940    3.402463   -0.574361
     41          6           0       26.250407    4.685451   -1.102519
     42          8           0       25.245685    4.702049   -1.835698
     43          8           0       26.937034    5.791653   -0.613803
     44          6           0       26.607049    7.139109   -1.177740
     45          1           0       22.952645    0.470435    4.103826
     46          1           0       22.960533   -4.985404    0.476145
     47          1           0       26.631211   -2.174521   -3.688519
     48          1           0       25.937869    3.702431    2.331775
     49          1           0       23.768925    2.682178    3.833208
     50          1           0       26.720794    2.141365    3.961689
     51          1           0       25.924057    0.650658    3.981186
     52          1           0       25.514435    1.963331    5.192678
     53          1           0       23.132870    4.187605    2.153652
     54          1           0       24.002058    4.285052    0.561977
     55          1           0       25.599638    5.713985    1.940234
     56          1           0       24.339057    5.776613    3.163777
     57          1           0       21.018781   -0.522616    4.670143
     58          1           0       21.271256   -2.282514    5.265280
     59          1           0       19.921267   -1.787608    4.300270
     60          1           0       19.941653   -5.758774    3.917672
     61          1           0       18.984917   -4.398586    3.333902
     62          1           0       20.221049   -4.170314    4.645207
     63          1           0       23.693490   -5.547266   -1.761850
     64          1           0       26.312220   -4.730059   -2.584853
     65          1           0       25.909574   -5.780589    0.241139
     66          1           0       26.183314   -6.676431   -1.229763
     67          1           0       24.839362   -7.055112   -0.263855
     68          1           0       24.719636   -5.333248   -4.239897
     69          1           0       25.168479   -3.680488   -4.472875
     70          1           0       22.863842   -3.048449   -4.441682
     71          1           0       22.840871   -3.682343   -2.759855
     72          1           0       22.401165   -4.698392   -4.128788
     73          1           0       29.061904    0.485215   -3.867709
     74          1           0       27.633312    0.973312   -4.895663
     75          1           0       28.063642   -0.725694   -4.596020
     76          1           0       27.771700    3.698505    0.095634
     77          1           0       26.819754    7.078931   -2.244849
     78          1           0       27.145284    8.000238   -0.781803
     79          1           0       25.545917    7.127204   -0.928671
     80         12           0      -25.179786   -0.522649   -0.295793
     81          6           0      -23.919810    2.787801   -0.555790
     82          6           0      -25.720991    0.213528    3.121393
     83          6           0      -26.022721   -3.639184    0.174319
     84          6           0      -24.276415   -1.069637   -3.609599
     85          7           0      -24.841581    1.329325    1.153124
     86          6           0      -24.408703    2.559960    0.723881
     87          6           0      -24.473888    3.626924    1.803542
     88          6           0      -24.942667    2.716392    3.018211
     89          6           0      -25.228251    1.337441    2.403710
     90          6           0      -23.941313    2.780166    4.167750
     91          6           0      -25.493154    4.724674    1.427289
     92          6           0      -25.178383    6.215689    1.830171
     93          1           0      -24.152457    6.463766    2.960988
     94          7           0      -25.866221   -1.566954    1.395956
     95          6           0      -25.935482   -1.100050    2.708858
     96          6           0      -26.449907   -2.189512    3.553698
     97          6           0      -26.636420   -3.301096    2.668659
     98          6           0      -26.201237   -2.815004    1.345273
     99          6           0      -26.606664   -2.077643    4.975458
    100          6           0      -27.148634   -4.700132    2.995904
    101          8           0      -27.163419   -5.593754    2.134526
    102          6           0      -27.802759   -4.981582    4.291367
    103          7           0      -25.055871   -2.157476   -1.516986
    104          6           0      -25.567094   -3.325696   -1.119736
    105          6           0      -25.400177   -4.417530   -2.226043
    106          6           0      -25.031395   -3.544992   -3.467658
    107          6           0      -24.749240   -2.197667   -2.880453
    108          6           0      -24.387549   -5.561314   -1.858889
    109          6           0      -26.333379   -3.521378   -4.356192
    110          6           0      -27.372276   -2.357007   -4.206849
    111          7           0      -24.385510    0.606735   -1.831086
    112          6           0      -24.059161    0.221433   -3.144001
    113          6           0      -23.419481    1.376512   -3.821478
    114          6           0      -23.308848    2.341666   -2.827367
    115          6           0      -23.905081    1.907562   -1.662353
    116          6           0      -22.795320    1.210303   -5.122717
    117          6           0      -22.692178    3.641063   -2.571769
    118          8           0      -22.019896    4.319978   -3.339761
    119          6           0      -23.040521    3.993844   -1.049920
    120          6           0      -21.808296    4.211807   -0.253778
    121          8           0      -21.223576    3.370014    0.421950
    122          8           0      -21.415355    5.557930   -0.377199
    123          6           0      -20.208529    6.053260    0.245329
    124          1           0      -26.144410    0.422659    4.106394
    125          1           0      -26.308749   -4.690138    0.257344
    126          1           0      -24.079667   -1.348981   -4.646482
    127          1           0      -23.505511    4.089336    1.996393
    128          1           0      -25.823128    3.206252    3.433155
    129          1           0      -24.361854    3.077453    5.127768
    130          1           0      -23.070373    3.416805    4.011827
    131          1           0      -23.608632    1.755957    4.341502
    132          1           0      -26.479747    4.490783    1.827147
    133          1           0      -25.529902    4.594119    0.345202
    134          1           0      -26.072659    6.697620    2.223871
    135          1           0      -25.043995    6.740401    0.884288
    136          1           0      -27.631064   -2.380754    5.192824
    137          1           0      -26.217253   -1.126573    5.337392
    138          1           0      -25.848386   -2.788079    5.306203
    139          1           0      -27.108828   -5.014367    5.131843
    140          1           0      -28.267248   -5.966780    4.254352
    141          1           0      -28.453962   -4.138641    4.520833
    142          1           0      -26.417091   -4.809488   -2.205809
    143          1           0      -24.229579   -3.992711   -4.055342
    144          1           0      -24.925370   -6.421733   -1.460513
    145          1           0      -23.645455   -5.119287   -1.194837
    146          1           0      -23.896446   -5.833633   -2.792957
    147          1           0      -26.775214   -4.517899   -4.371468
    148          1           0      -25.950095   -3.238779   -5.337119
    149          1           0      -28.330456   -2.875680   -4.218230
    150          1           0      -27.355969   -1.659990   -5.045696
    151          1           0      -27.328282   -1.789878   -3.277678
    152          1           0      -22.162515    0.324252   -5.091975
    153          1           0      -22.154136    2.080034   -5.269620
    154          1           0      -23.530580    1.291637   -5.922807
    155          1           0      -23.585914    4.934508   -1.132134
    156          1           0      -19.351883    6.074999   -0.427867
    157          1           0      -20.070490    5.627995    1.239524
    158          1           0      -20.523272    7.061450    0.516269
 ---------------------------------------------------------------------

 SCF Done:  E(RCAM-B3LYP) =  -4069.81426798     A.U. after   19 cycles

 Excitation energies and oscillator strengths:

 Excited State   1:      Singlet-A      1.6607 eV  746.56 nm  f=0.3772  <S**2>=0.000
     309 -> 316        0.16223
     311 -> 313        0.68893
     309 <- 316        0.10409
 This state for optimization and/or second-order correction.
 Total Energy, E(TD-HF/TD-DFT) =  -4069.75323700
 Copying the excited state density for this state as the 1-particle RhoCI density.

 Excited State   2:      Singlet-A      1.7491 eV  708.83 nm  f=0.3743  <S**2>=0.000
     310 -> 315        0.18984
     312 -> 314        0.68132
     310 <- 315        0.10804

 Excited State   3:      Singlet-A      2.2190 eV  558.75 nm  f=0.1278  <S**2>=0.000
     309 -> 313        0.64341
     311 -> 316       -0.27225

 Excited State   4:      Singlet-A      2.2728 eV  545.50 nm  f=0.0724  <S**2>=0.000
     310 -> 314        0.62313
     312 -> 315       -0.32197

 Excited State   5:      Singlet-A      3.0182 eV  410.79 nm  f=0.0000  <S**2>=0.000
     312 -> 313        0.70711

 The electronic state is 1-A.
 Alpha  occ. eigenvalues --  -46.88508 -46.88313 -19.24735 -19.23985 -19.20001
 Alpha  occ. eigenvalues --  -19.19887 -19.19322 -19.18739 -19.18727 -19.17646
 Alpha  occ. eigenvalues --  -14.42127 -14.41934 -14.41474 -14.41287 -14.39687
 Alpha  occ. eigenvalues --  -14.39338 -14.38921 -14.38496 -10.40020 -10.39486
 Alpha  occ. eigenvalues --  -10.35378 -10.35288 -10.35277 -10.33628 -10.31967
 Alpha  occ. eigenvalues --  -10.31189 -10.31011 -10.30948 -10.30772 -10.30548
 Alpha  occ. eigenvalues --  -10.30454 -10.30391 -10.30318 -10.30314 -10.30232
 Alpha  occ. eigenvalues --  -10.30218 -10.30217 -10.29301 -10.29237 -10.29197
 Alpha  occ. eigenvalues --  -10.29190 -10.29031 -10.28875 -10.28317 -10.28299
 Alpha  occ. eigenvalues --  -10.28239 -10.28237 -10.28207 -10.28043 -10.27901
 Alpha  occ. eigenvalues --  -10.27874 -10.27663 -10.27586 -10.27556 -10.27545
 Alpha  occ. eigenvalues --  -10.27449 -10.27447 -10.27396 -10.27285 -10.27242
 Alpha  occ. eigenvalues --  -10.27165 -10.27143 -10.27045 -10.27006 -10.27004
 Alpha  occ. eigenvalues --  -10.26813 -10.26723 -10.26521 -10.26509 -10.26433
 Alpha  occ. eigenvalues --  -10.26393 -10.26372 -10.26368 -10.25936 -10.25930
 Alpha  occ. eigenvalues --  -10.25823 -10.25754 -10.25740 -10.25732 -10.25560
 Alpha  occ. eigenvalues --  -10.25342 -10.25313 -10.25280 -10.25097 -10.24699
 Alpha  occ. eigenvalues --  -10.23774  -3.17051  -3.16909  -1.91958  -1.91789
 Alpha  occ. eigenvalues --   -1.91519  -1.91368  -1.91339  -1.91211  -1.14658
 Alpha  occ. eigenvalues --   -1.14408  -1.09661  -1.09466  -1.09206  -1.07938
 Alpha  occ. eigenvalues --   -1.07250  -1.06640  -1.04802  -1.04761  -1.04043
 Alpha  occ. eigenvalues --   -1.03894  -1.03510  -1.03095  -1.02219  -1.01376
 Alpha  occ. eigenvalues --   -0.92524  -0.91982  -0.89884  -0.89084  -0.89043
 Alpha  occ. eigenvalues --   -0.88660  -0.88579  -0.88387  -0.87790  -0.87335
 Alpha  occ. eigenvalues --   -0.87121  -0.86737  -0.86527  -0.86185  -0.84591
 Alpha  occ. eigenvalues --   -0.84134  -0.83498  -0.83301  -0.82645  -0.82159
 Alpha  occ. eigenvalues --   -0.81994  -0.81617  -0.80981  -0.80833  -0.80440
 Alpha  occ. eigenvalues --   -0.80384  -0.78946  -0.78199  -0.77105  -0.77065
 Alpha  occ. eigenvalues --   -0.76926  -0.76856  -0.76026  -0.75787  -0.75462
 Alpha  occ. eigenvalues --   -0.74780  -0.73242  -0.72127  -0.72041  -0.71303
 Alpha  occ. eigenvalues --   -0.69784  -0.69235  -0.68910  -0.68759  -0.67840
 Alpha  occ. eigenvalues --   -0.67527  -0.66706  -0.66524  -0.65330  -0.65003
 Alpha  occ. eigenvalues --   -0.64679  -0.64652  -0.64459  -0.64446  -0.64184
 Alpha  occ. eigenvalues --   -0.64059  -0.61555  -0.61533  -0.60328  -0.59879
 Alpha  occ. eigenvalues --   -0.59776  -0.59362  -0.59132  -0.59043  -0.58427
 Alpha  occ. eigenvalues --   -0.58061  -0.57872  -0.57558  -0.57164  -0.56992
 Alpha  occ. eigenvalues --   -0.56276  -0.55973  -0.55610  -0.55489  -0.55329
 Alpha  occ. eigenvalues --   -0.55321  -0.55071  -0.54756  -0.54275  -0.53955
 Alpha  occ. eigenvalues --   -0.53849  -0.53539  -0.53322  -0.53150  -0.53039
 Alpha  occ. eigenvalues --   -0.52925  -0.52800  -0.52766  -0.52456  -0.52324
 Alpha  occ. eigenvalues --   -0.51925  -0.51807  -0.51662  -0.51497  -0.51450
 Alpha  occ. eigenvalues --   -0.51303  -0.50760  -0.50605  -0.50483  -0.50339
 Alpha  occ. eigenvalues --   -0.49901  -0.49782  -0.49625  -0.49556  -0.49379
 Alpha  occ. eigenvalues --   -0.49188  -0.49022  -0.48906  -0.48905  -0.48753
 Alpha  occ. eigenvalues --   -0.48523  -0.48511  -0.48383  -0.48077  -0.48076
 Alpha  occ. eigenvalues --   -0.47968  -0.47677  -0.47592  -0.47359  -0.47356
 Alpha  occ. eigenvalues --   -0.47024  -0.46947  -0.46675  -0.46605  -0.46289
 Alpha  occ. eigenvalues --   -0.46101  -0.45990  -0.45982  -0.45693  -0.45460
 Alpha  occ. eigenvalues --   -0.45388  -0.45016  -0.44610  -0.44600  -0.44479
 Alpha  occ. eigenvalues --   -0.44250  -0.44229  -0.44172  -0.44045  -0.43928
 Alpha  occ. eigenvalues --   -0.43744  -0.43660  -0.43457  -0.43434  -0.43416
 Alpha  occ. eigenvalues --   -0.43312  -0.43182  -0.43047  -0.42954  -0.42687
 Alpha  occ. eigenvalues --   -0.42550  -0.42358  -0.41955  -0.41948  -0.41734
 Alpha  occ. eigenvalues --   -0.41690  -0.41581  -0.41299  -0.41057  -0.41017
 Alpha  occ. eigenvalues --   -0.40837  -0.40662  -0.40640  -0.40341  -0.40288
 Alpha  occ. eigenvalues --   -0.39947  -0.39849  -0.39369  -0.39152  -0.38575
 Alpha  occ. eigenvalues --   -0.38196  -0.38026  -0.37745  -0.37420  -0.37358
 Alpha  occ. eigenvalues --   -0.37108  -0.36822  -0.36632  -0.36590  -0.36119
 Alpha  occ. eigenvalues --   -0.36067  -0.35679  -0.34176  -0.34173  -0.34081
 Alpha  occ. eigenvalues --   -0.34033  -0.33291  -0.33218  -0.31308  -0.31192
 Alpha  occ. eigenvalues --   -0.30957  -0.30820  -0.30816  -0.30151  -0.30047
 Alpha  occ. eigenvalues --   -0.29714  -0.29393  -0.29339  -0.24233  -0.23876
 Alpha  occ. eigenvalues --   -0.21184  -0.20779
 Alpha virt. eigenvalues --   -0.08996  -0.08140  -0.01702  -0.01504   0.00241
 Alpha virt. eigenvalues --    0.00540   0.02188   0.02204   0.02432   0.03332
 Alpha virt. eigenvalues --    0.04832   0.04969   0.05079   0.05091   0.05735

 Mulliken charges:
               1
     1  Mg   0.820669
     2  C   -0.060330
     3  C   -0.109662
     4  C   -0.010554
     5  C   -0.097855
     6  N   -0.340003
     7  C   -0.020832
     8  C   -0.061551
     9  C   -0.031269
    10  C    0.010366
    11  C    0.081261
    12  C    0.079398
    13  C   -0.068968
    14  H    0.035471
    15  N   -0.383325
    16  C    0.220978
    17  C   -0.158627
    18  C   -0.040004
    19  C    0.171590
    20  C    0.117509
    21  C    0.010821
    22  O   -0.218678
    23  C    0.055160
    24  N   -0.251759
    25  C   -0.075002
    26  C   -0.004094
    27  C   -0.051260
    28  C    0.088340
    29  C    0.063737
    30  C    0.024272
    31  C    0.002170
    32  N   -0.340217
    33  C    0.098584
    34  C   -0.182205
    35  C    0.104010
    36  C    0.159805
    37  C    0.133473
    38  C   -0.059255
    39  O   -0.207745
    40  C    0.035641
    41  C    0.229324
    42  O   -0.241919
    43  O   -0.360293
    44  C    0.180277
    45  H   -0.026175
    46  H   -0.008833
    47  H   -0.021089
    48  H   -0.002249
    49  H   -0.007342
    50  H    0.013750
    51  H    0.031702
    52  H    0.021208
    53  H   -0.004177
    54  H    0.042623
    55  H    0.020611
    56  H    0.016827
    57  H    0.018560
    58  H    0.045536
    59  H    0.019814
    60  H    0.029499
    61  H    0.051920
    62  H    0.006361
    63  H    0.019273
    64  H    0.003020
    65  H    0.017795
    66  H    0.011231
    67  H    0.020585
    68  H    0.005225
    69  H   -0.001526
    70  H    0.023096
    71  H    0.027953
    72  H    0.019156
    73  H    0.034962
    74  H    0.045141
    75  H   -0.002637
    76  H    0.036098
    77  H    0.050385
    78  H    0.051176
    79  H    0.043071
    80  Mg   0.821033
    81  C    0.030449
    82  C   -0.107811
    83  C   -0.061746
    84  C   -0.079813
    85  N   -0.200725
    86  C   -0.088560
    87  C   -0.039387
    88  C   -0.030690
    89  C    0.038592
    90  C    0.062998
    91  C    0.035478
    92  C   -0.045774
    93  H    0.027957
    94  N   -0.333889
    95  C    0.142443
    96  C   -0.171144
    97  C   -0.048867
    98  C    0.118360
    99  C    0.141195
   100  C    0.013184
   101  O   -0.220259
   102  C    0.057281
   103  N   -0.336833
   104  C    0.016400
   105  C   -0.060053
   106  C    0.004140
   107  C    0.025604
   108  C    0.091679
   109  C   -0.015111
   110  C    0.015170
   111  N   -0.395341
   112  C    0.152194
   113  C   -0.185219
   114  C    0.030585
   115  C    0.122637
   116  C    0.129679
   117  C    0.041169
   118  O   -0.160945
   119  C   -0.039293
   120  C    0.232545
   121  O   -0.216973
   122  O   -0.361701
   123  C    0.186995
   124  H   -0.014572
   125  H   -0.010692
   126  H   -0.032458
   127  H    0.024576
   128  H    0.002114
   129  H    0.003001
   130  H    0.023994
   131  H    0.005972
   132  H    0.006724
   133  H    0.011628
   134  H    0.020930
   135  H    0.030082
   136  H    0.040062
   137  H    0.014421
   138  H    0.038048
   139  H    0.028234
   140  H    0.037005
   141  H    0.029785
   142  H    0.014474
   143  H    0.008527
   144  H    0.034320
   145  H    0.027495
   146  H    0.007526
   147  H    0.020659
   148  H    0.002254
   149  H    0.010464
   150  H    0.021424
   151  H    0.027519
   152  H    0.036505
   153  H    0.019137
   154  H    0.021715
   155  H    0.045244
   156  H    0.053680
   157  H    0.030207
   158  H    0.022368
 Sum of Mulliken charges =  -0.00000

 Dipole moment (field-independent basis, Debye):
    X=             -4.6535    Y=             -0.5124    Z=              6.5552  Tot=              8.0554
 Quadrupole moment (field-independent basis, Debye-Ang):
   XX=           -459.6736   YY=           -510.1547   ZZ=           -470.4074
   XY=            -29.9305   XZ=             -7.0862   YZ=             42.8936

 Normal termination of Gaussian 16 at Wed Sep 15 09:25:58 2021.
