 Gaussian 16, Revision A.03,
 Gaussian 16:  ES64L-G16RevA.03 25-Dec-2016

 ----------------------------------------------------------
 #p cam-b3lyp/Def2SVP td=(nstates=5) density=(transition=1)
 ----------------------------------------------------------

 --------------------------------
 TDDFT excited states in gaussian
 --------------------------------
 Symbolic Z-matrix:
 Charge =  0 Multiplicity = 1

                         Standard orientation:
 ---------------------------------------------------------------------
 Center     Atomic      Atomic             Coordinates (Angstroms)
 Number     Number       Type             X           Y           Z
 ---------------------------------------------------------------------
      1         12           0      -13.134757   -0.591609    0.283311
      2          6           0      -13.216365    2.740814   -0.906155
      3          6           0      -11.673107    0.551956    3.102016
      4          6           0      -12.960495   -3.707552    1.272676
      5          6           0      -13.987392   -1.625634   -3.044098
      6          7           0      -12.397909    1.440715    1.011741
      7          6           0      -12.794259    2.636134    0.435846
      8          6           0      -12.522487    3.707948    1.435430
      9          6           0      -11.544110    3.077451    2.426929
     10          6           0      -11.875792    1.578162    2.221452
     11          6           0      -10.054093    3.377401    2.015122
     12          6           0      -13.809098    4.346485    2.190074
     13          6           0      -13.906504    5.885511    2.421956
     14          1           0      -12.661285    6.580316    3.044960
     15          7           0      -12.383307   -1.436863    1.991503
     16          6           0      -11.859744   -0.803351    2.999283
     17          6           0      -11.430245   -1.798453    3.997077
     18          6           0      -11.981407   -3.055832    3.604695
     19          6           0      -12.458056   -2.783781    2.218894
     20          6           0      -10.575377   -1.579711    5.298138
     21          6           0      -12.078978   -4.395539    4.333756
     22          8           0      -12.487974   -5.450010    3.811289
     23          6           0      -11.472995   -4.510332    5.651354
     24          7           0      -13.282462   -2.446544   -0.853805
     25          6           0      -13.276877   -3.638975   -0.134878
     26          6           0      -13.772520   -4.804189   -1.075549
     27          6           0      -14.208699   -4.060798   -2.362675
     28          6           0      -13.845661   -2.603106   -2.070719
     29          6           0      -12.746322   -5.927359   -1.227147
     30          6           0      -15.662797   -4.309252   -2.836688
     31          6           0      -15.911561   -4.446344   -4.356911
     32          7           0      -13.513366    0.309884   -1.609384
     33          6           0      -13.791724   -0.221281   -2.864803
     34          6           0      -14.115087    0.861357   -3.758835
     35          6           0      -13.846811    2.033119   -3.049646
     36          6           0      -13.489051    1.675483   -1.720463
     37          6           0      -14.616330    0.759072   -5.065956
     38          6           0      -13.875725    3.502604   -3.091731
     39          8           0      -14.198005    4.301279   -3.956969
     40          6           0      -13.484118    4.016732   -1.667759
     41          6           0      -12.287988    4.937033   -1.833772
     42          8           0      -11.096335    4.745252   -1.922016
     43          8           0      -12.871961    6.168249   -1.754749
     44          6           0      -11.988380    7.337871   -1.533945
     45          1           0      -11.281033    0.915632    4.054507
     46          1           0      -13.079015   -4.699907    1.712573
     47          1           0      -14.460658   -1.908324   -3.986244
     48          1           0      -12.046313    4.610446    1.051403
     49          1           0      -11.803666    3.285619    3.464620
     50          1           0       -9.372513    3.470556    2.859949
     51          1           0       -9.927751    4.347479    1.533782
     52          1           0       -9.746804    2.510979    1.430470
     53          1           0      -13.987483    3.803668    3.117729
     54          1           0      -14.716194    4.090522    1.641310
     55          1           0      -14.683456    5.951920    3.184421
     56          1           0      -14.165601    6.240412    1.424423
     57          1           0      -11.112732   -1.709330    6.237306
     58          1           0      -10.179758   -0.564854    5.248758
     59          1           0       -9.772308   -2.300314    5.452998
     60          1           0      -11.855898   -3.742941    6.324625
     61          1           0      -10.387762   -4.430503    5.586873
     62          1           0      -11.855137   -5.429913    6.093487
     63          1           0      -14.704469   -5.163343   -0.638737
     64          1           0      -13.512392   -4.263270   -3.176240
     65          1           0      -12.092114   -5.700356   -2.069565
     66          1           0      -13.170396   -6.897444   -1.484403
     67          1           0      -12.044357   -5.879826   -0.395282
     68          1           0      -16.388549   -3.604235   -2.431600
     69          1           0      -16.065208   -5.221999   -2.395250
     70          1           0      -16.249604   -3.455201   -4.659690
     71          1           0      -16.757190   -5.130144   -4.437303
     72          1           0      -14.996035   -4.753305   -4.861824
     73          1           0      -14.484530    1.582983   -5.766949
     74          1           0      -15.669635    0.491706   -4.975643
     75          1           0      -14.065214   -0.063776   -5.519812
     76          1           0      -14.326021    4.540848   -1.215802
     77          1           0      -12.506449    7.933994   -0.783265
     78          1           0      -11.814735    7.980469   -2.396715
     79          1           0      -11.034448    7.010658   -1.121202
     80         12           0       12.381587   -0.716071   -0.459085
     81          6           0       14.756043    1.986950   -0.273524
     82          6           0       10.039261    1.301480    0.805349
     83          6           0       10.558404   -3.461566    0.148378
     84          6           0       15.079450   -2.784160   -1.324419
     85          7           0       12.430919    1.348459    0.224357
     86          6           0       13.422507    2.327088    0.040165
     87          6           0       12.870464    3.770062    0.352626
     88          6           0       11.391003    3.483981    0.751272
     89          6           0       11.248443    1.954400    0.531153
     90          6           0       10.953992    3.898261    2.133442
     91          6           0       13.076474    4.801795   -0.881198
     92          6           0       13.778863    6.117290   -0.523048
     93          1           0       12.931533    7.403502   -0.847161
     94          7           0       10.483401   -1.020299    0.241079
     95          6           0        9.661726   -0.083807    0.725867
     96          6           0        8.395187   -0.660720    1.179902
     97          6           0        8.606198   -2.078254    1.065824
     98          6           0        9.937309   -2.257001    0.476521
     99          6           0        7.267050    0.144127    1.665448
    100          6           0        7.602541   -3.149939    1.595902
    101          8           0        7.782294   -4.344091    1.424930
    102          6           0        6.345798   -2.792510    2.323374
    103          7           0       12.770339   -2.748607   -0.577921
    104          6           0       11.782185   -3.708493   -0.387254
    105          6           0       12.319584   -5.139659   -0.717633
    106          6           0       13.643992   -4.838191   -1.513490
    107          6           0       13.836165   -3.359398   -1.177923
    108          6           0       12.414777   -6.172035    0.452644
    109          6           0       13.529934   -5.061252   -3.046432
    110          6           0       14.697166   -5.674823   -3.777743
    111          7           0       14.500323   -0.496378   -0.699018
    112          6           0       15.441036   -1.423342   -1.047960
    113          6           0       16.771185   -0.705764   -1.272936
    114          6           0       16.533545    0.625833   -1.031885
    115          6           0       15.159167    0.696197   -0.617883
    116          6           0       18.006346   -1.414507   -1.780386
    117          6           0       17.089040    1.965684   -0.963160
    118          8           0       18.276614    2.245166   -1.229727
    119          6           0       15.929348    2.953674   -0.347598
    120          6           0       16.232948    3.508606    1.028420
    121          8           0       16.522153    2.749077    1.974110
    122          8           0       16.323662    4.901133    1.035684
    123          6           0       17.014726    5.404254    2.217148
    124          1           0        9.198133    1.926228    1.112318
    125          1           0        9.873108   -4.294475    0.316951
    126          1           0       15.838492   -3.467416   -1.712238
    127          1           0       13.499194    4.084626    1.185369
    128          1           0       10.805321    4.168267    0.135867
    129          1           0       11.761595    4.322307    2.730304
    130          1           0       10.784312    2.912759    2.565814
    131          1           0       10.139380    4.623108    2.129492
    132          1           0       12.056878    4.960736   -1.231180
    133          1           0       13.569352    4.279073   -1.700482
    134          1           0       14.747228    6.098001   -1.023043
    135          1           0       13.964128    6.142195    0.551565
    136          1           0        6.848304   -0.040430    2.654243
    137          1           0        6.417729   -0.202265    1.077678
    138          1           0        7.305848    1.205037    1.417361
    139          1           0        5.767686   -2.200816    1.612583
    140          1           0        6.636903   -2.123963    3.134045
    141          1           0        5.908673   -3.739723    2.636812
    142          1           0       11.582633   -5.533247   -1.417740
    143          1           0       14.514029   -5.345491   -1.097283
    144          1           0       11.931179   -5.669135    1.289788
    145          1           0       13.426380   -6.516541    0.665387
    146          1           0       11.750401   -7.024095    0.303536
    147          1           0       13.386180   -4.019364   -3.331974
    148          1           0       12.638470   -5.601668   -3.365433
    149          1           0       14.260760   -6.392705   -4.472317
    150          1           0       15.368013   -6.232222   -3.123212
    151          1           0       15.098527   -4.884489   -4.412559
    152          1           0       17.748399   -2.467565   -1.891299
    153          1           0       18.764646   -1.372997   -0.998811
    154          1           0       18.365998   -0.921100   -2.683100
    155          1           0       15.730868    3.740954   -1.074857
    156          1           0       17.995721    5.840023    2.032944
    157          1           0       17.130408    4.668406    3.013045
    158          1           0       16.378976    6.189002    2.626334
 ---------------------------------------------------------------------

 SCF Done:  E(RCAM-B3LYP) =  -4069.79306834     A.U. after   18 cycles

 Excitation energies and oscillator strengths:

 Excited State   1:      Singlet-A      1.6978 eV  730.27 nm  f=0.4172  <S**2>=0.000
     309 -> 316       -0.17276
     312 -> 313        0.68731
     309 <- 316       -0.10767
 This state for optimization and/or second-order correction.
 Total Energy, E(TD-HF/TD-DFT) =  -4069.73067554
 Copying the excited state density for this state as the 1-particle RhoCI density.

 Excited State   2:      Singlet-A      1.7331 eV  715.38 nm  f=0.3856  <S**2>=0.000
     310 -> 315       -0.19034
     311 -> 314        0.68045
     310 <- 315       -0.10745

 Excited State   3:      Singlet-A      2.2618 eV  548.18 nm  f=0.0662  <S**2>=0.000
     310 -> 314        0.62170
     311 -> 315        0.32230

 Excited State   4:      Singlet-A      2.2865 eV  542.25 nm  f=0.0925  <S**2>=0.000
     309 -> 313        0.63006
     312 -> 316        0.31281

 Excited State   5:      Singlet-A      3.0153 eV  411.18 nm  f=0.0000  <S**2>=0.000
     312 -> 314        0.70708

 The electronic state is 1-A.
 Alpha  occ. eigenvalues --  -46.89417 -46.88364 -19.26688 -19.24416 -19.20841
 Alpha  occ. eigenvalues --  -19.20089 -19.19912 -19.19298 -19.18730 -19.18532
 Alpha  occ. eigenvalues --  -14.42550 -14.41823 -14.41634 -14.41474 -14.39905
 Alpha  occ. eigenvalues --  -14.39667 -14.39351 -14.39002 -10.40824 -10.39289
 Alpha  occ. eigenvalues --  -10.36490 -10.35564 -10.34912 -10.34864 -10.31744
 Alpha  occ. eigenvalues --  -10.31736 -10.31576 -10.31513 -10.30944 -10.30862
 Alpha  occ. eigenvalues --  -10.30796 -10.30632 -10.30385 -10.30319 -10.30105
 Alpha  occ. eigenvalues --  -10.30092 -10.30035 -10.29940 -10.29918 -10.29765
 Alpha  occ. eigenvalues --  -10.29589 -10.29500 -10.29486 -10.29120 -10.28987
 Alpha  occ. eigenvalues --  -10.28847 -10.28546 -10.28260 -10.28222 -10.28031
 Alpha  occ. eigenvalues --  -10.27969 -10.27937 -10.27757 -10.27715 -10.27701
 Alpha  occ. eigenvalues --  -10.27638 -10.27586 -10.27530 -10.27450 -10.27405
 Alpha  occ. eigenvalues --  -10.27355 -10.27346 -10.27273 -10.27229 -10.27205
 Alpha  occ. eigenvalues --  -10.27061 -10.26927 -10.26735 -10.26586 -10.26490
 Alpha  occ. eigenvalues --  -10.26409 -10.26254 -10.26133 -10.26127 -10.26088
 Alpha  occ. eigenvalues --  -10.25901 -10.25839 -10.25777 -10.25705 -10.25664
 Alpha  occ. eigenvalues --  -10.25518 -10.25486 -10.25410 -10.25302 -10.25201
 Alpha  occ. eigenvalues --  -10.24843  -3.17804  -3.17016  -1.92702  -1.92261
 Alpha  occ. eigenvalues --   -1.92096  -1.91897  -1.91455  -1.91344  -1.16332
 Alpha  occ. eigenvalues --   -1.16172  -1.10095  -1.09639  -1.09404  -1.09027
 Alpha  occ. eigenvalues --   -1.07948  -1.07817  -1.05200  -1.03989  -1.03903
 Alpha  occ. eigenvalues --   -1.03281  -1.03100  -1.02628  -1.02115  -1.01868
 Alpha  occ. eigenvalues --   -0.92815  -0.92619  -0.89100  -0.88923  -0.88730
 Alpha  occ. eigenvalues --   -0.88524  -0.88033  -0.88017  -0.87608  -0.87314
 Alpha  occ. eigenvalues --   -0.87213  -0.87172  -0.86930  -0.86106  -0.84281
 Alpha  occ. eigenvalues --   -0.84272  -0.83647  -0.83635  -0.82782  -0.82704
 Alpha  occ. eigenvalues --   -0.82508  -0.81921  -0.81550  -0.81191  -0.80644
 Alpha  occ. eigenvalues --   -0.80218  -0.78432  -0.78416  -0.77595  -0.77493
 Alpha  occ. eigenvalues --   -0.77084  -0.76915  -0.76211  -0.75911  -0.75166
 Alpha  occ. eigenvalues --   -0.74691  -0.72555  -0.72434  -0.71864  -0.70957
 Alpha  occ. eigenvalues --   -0.68986  -0.68942  -0.68794  -0.68389  -0.67897
 Alpha  occ. eigenvalues --   -0.67744  -0.67413  -0.66703  -0.65520  -0.65355
 Alpha  occ. eigenvalues --   -0.65325  -0.65098  -0.64977  -0.64882  -0.64376
 Alpha  occ. eigenvalues --   -0.64340  -0.62580  -0.61989  -0.60526  -0.60274
 Alpha  occ. eigenvalues --   -0.59759  -0.59654  -0.59281  -0.58906  -0.58509
 Alpha  occ. eigenvalues --   -0.58365  -0.58319  -0.57995  -0.57546  -0.57305
 Alpha  occ. eigenvalues --   -0.56243  -0.56197  -0.55944  -0.55417  -0.55252
 Alpha  occ. eigenvalues --   -0.55105  -0.54912  -0.54514  -0.53756  -0.53745
 Alpha  occ. eigenvalues --   -0.53614  -0.53501  -0.53291  -0.53270  -0.53120
 Alpha  occ. eigenvalues --   -0.52996  -0.52587  -0.52478  -0.52443  -0.52168
 Alpha  occ. eigenvalues --   -0.51818  -0.51727  -0.51612  -0.51603  -0.51473
 Alpha  occ. eigenvalues --   -0.51259  -0.51249  -0.51119  -0.50839  -0.50813
 Alpha  occ. eigenvalues --   -0.50462  -0.50235  -0.50023  -0.49653  -0.49596
 Alpha  occ. eigenvalues --   -0.49403  -0.49360  -0.49144  -0.49031  -0.48891
 Alpha  occ. eigenvalues --   -0.48778  -0.48610  -0.48307  -0.48223  -0.48133
 Alpha  occ. eigenvalues --   -0.47941  -0.47703  -0.47442  -0.47223  -0.47174
 Alpha  occ. eigenvalues --   -0.47009  -0.46940  -0.46741  -0.46694  -0.46470
 Alpha  occ. eigenvalues --   -0.46302  -0.46007  -0.45969  -0.45933  -0.45661
 Alpha  occ. eigenvalues --   -0.45596  -0.45355  -0.45081  -0.44978  -0.44737
 Alpha  occ. eigenvalues --   -0.44557  -0.44396  -0.44314  -0.44128  -0.44093
 Alpha  occ. eigenvalues --   -0.44019  -0.43888  -0.43801  -0.43727  -0.43600
 Alpha  occ. eigenvalues --   -0.43187  -0.43064  -0.43013  -0.42983  -0.42838
 Alpha  occ. eigenvalues --   -0.42768  -0.42654  -0.42356  -0.42205  -0.41956
 Alpha  occ. eigenvalues --   -0.41711  -0.41692  -0.41593  -0.41291  -0.41107
 Alpha  occ. eigenvalues --   -0.40910  -0.40770  -0.40604  -0.40544  -0.40292
 Alpha  occ. eigenvalues --   -0.40163  -0.39905  -0.39651  -0.39486  -0.39119
 Alpha  occ. eigenvalues --   -0.38815  -0.38278  -0.37796  -0.37712  -0.37441
 Alpha  occ. eigenvalues --   -0.37415  -0.37402  -0.36574  -0.36506  -0.36403
 Alpha  occ. eigenvalues --   -0.36093  -0.35976  -0.35143  -0.34719  -0.34421
 Alpha  occ. eigenvalues --   -0.33945  -0.33148  -0.32870  -0.31728  -0.31537
 Alpha  occ. eigenvalues --   -0.31374  -0.31217  -0.30681  -0.30604  -0.30511
 Alpha  occ. eigenvalues --   -0.30373  -0.29765  -0.29305  -0.24155  -0.24016
 Alpha  occ. eigenvalues --   -0.21016  -0.20761
 Alpha virt. eigenvalues --   -0.08411  -0.08324  -0.02105  -0.01301  -0.00182
 Alpha virt. eigenvalues --   -0.00029   0.01706   0.01805   0.02274   0.02344
 Alpha virt. eigenvalues --    0.02816   0.04552   0.05143   0.05559   0.05730

 Mulliken charges:
               1
     1  Mg  11.999943
     2  C    6.001328
     3  C    5.998716
     4  C    5.999006
     5  C    6.001073
     6  N    6.999887
     7  C    5.998098
     8  C    6.000651
     9  C    5.999699
    10  C    6.001882
    11  C    5.999977
    12  C    6.000288
    13  C    6.000021
    14  H    0.999662
    15  N    6.999215
    16  C    6.002570
    17  C    6.001499
    18  C    6.000642
    19  C    6.002365
    20  C    5.999754
    21  C    6.000738
    22  O    8.001347
    23  C    5.999650
    24  N    7.000276
    25  C    6.002333
    26  C    5.999391
    27  C    6.000443
    28  C    5.998204
    29  C    5.999696
    30  C    6.000417
    31  C    6.000023
    32  N    7.000414
    33  C    5.997638
    34  C    5.998451
    35  C    5.999715
    36  C    5.997886
    37  C    6.000352
    38  C    5.998955
    39  O    7.998052
    40  C    5.999852
    41  C    5.999901
    42  O    7.999793
    43  O    7.999911
    44  C    6.000188
    45  H    1.000441
    46  H    1.000348
    47  H    0.999429
    48  H    0.999751
    49  H    0.999778
    50  H    1.000236
    51  H    1.000668
    52  H    1.000310
    53  H    0.999086
    54  H    0.999982
    55  H    0.999565
    56  H    1.000179
    57  H    1.001029
    58  H    1.001343
    59  H    1.001521
    60  H    1.000191
    61  H    1.000875
    62  H    1.000670
    63  H    0.999967
    64  H    1.000147
    65  H    1.000750
    66  H    1.000255
    67  H    0.999904
    68  H    0.999842
    69  H    0.999255
    70  H    1.000321
    71  H    0.999542
    72  H    0.999945
    73  H    0.998912
    74  H    0.998459
    75  H    0.999003
    76  H    0.999310
    77  H    0.999529
    78  H    0.999625
    79  H    0.999930
    80  Mg  11.996959
    81  C    5.971236
    82  C    6.021933
    83  C    6.019027
    84  C    5.975109
    85  N    6.993382
    86  C    6.040774
    87  C    5.989351
    88  C    6.013607
    89  C    5.965533
    90  C    6.000795
    91  C    5.995232
    92  C    5.996952
    93  H    1.010589
    94  N    7.007950
    95  C    5.954880
    96  C    5.976240
    97  C    5.988032
    98  C    5.956110
    99  C    6.008380
   100  C    5.987019
   101  O    7.976198
   102  C    6.002313
   103  N    6.999347
   104  C    5.968626
   105  C    6.008364
   106  C    5.990060
   107  C    6.033572
   108  C    5.998170
   109  C    5.998423
   110  C    5.997721
   111  N    6.997574
   112  C    6.048101
   113  C    6.031055
   114  C    6.002474
   115  C    6.038888
   116  C    5.995142
   117  C    6.016470
   118  O    8.029197
   119  C    6.006372
   120  C    6.005459
   121  O    8.003492
   122  O    8.002906
   123  C    5.996234
   124  H    0.991845
   125  H    0.991919
   126  H    1.009187
   127  H    1.001831
   128  H    0.994164
   129  H    0.987250
   130  H    1.006900
   131  H    0.997712
   132  H    1.011857
   133  H    0.995617
   134  H    0.996271
   135  H    1.001939
   136  H    0.975624
   137  H    0.979381
   138  H    0.979614
   139  H    0.994429
   140  H    0.994830
   141  H    0.985026
   142  H    0.999938
   143  H    0.999344
   144  H    1.005582
   145  H    0.987737
   146  H    0.998181
   147  H    0.999205
   148  H    1.012760
   149  H    1.005270
   150  H    1.001181
   151  H    0.995914
   152  H    1.020453
   153  H    1.021308
   154  H    1.020016
   155  H    1.008910
   156  H    1.003036
   157  H    1.003429
   158  H    1.007087
 Sum of Mulliken charges = 624.00000

 Dipole moment (field-independent basis, Debye):
    X=             10.9290    Y=              1.9269    Z=             -2.5388  Tot=             11.3842
 Quadrupole moment (field-independent basis, Debye-Ang):
   XX=            263.0765   YY=             -0.0075   ZZ=              0.9300
   XY=             26.7148   XZ=            -43.9120   YZ=              3.6205

 Normal termination of Gaussian 16 at Wed Sep 22 14:11:11 2021.
