 Gaussian 16, Revision A.03,
 Gaussian 16:  ES64L-G16RevA.03 25-Dec-2016

 ----------------------------------------------------------
 #p cam-b3lyp/Def2SVP td=(nstates=5) density=(transition=1)
 ----------------------------------------------------------

 --------------------------------
 TDDFT excited states in gaussian
 --------------------------------
 Symbolic Z-matrix:
 Charge =  0 Multiplicity = 1

                         Standard orientation:
 ---------------------------------------------------------------------
 Center     Atomic      Atomic             Coordinates (Angstroms)
 Number     Number       Type             X           Y           Z
 ---------------------------------------------------------------------
      1         12           0      -22.379491    0.461391    0.429324
      2          6           0      -21.632273   -2.098579   -1.676315
      3          6           0      -22.625187   -1.593309    3.189924
      4          6           0      -23.311668    3.165047    2.312050
      5          6           0      -22.585457    2.643167   -2.449620
      6          7           0      -22.356340   -1.619631    0.657488
      7          6           0      -21.765597   -2.497054   -0.312582
      8          6           0      -21.414131   -3.795888    0.295072
      9          6           0      -22.132522   -3.682414    1.713960
     10          6           0      -22.413511   -2.209523    1.912018
     11          6           0      -23.491522   -4.540746    1.806566
     12          6           0      -19.895237   -4.147641    0.252568
     13          6           0      -19.576127   -5.548179   -0.161111
     14          1           0      -20.530709   -6.673573    0.402044
     15          7           0      -22.827394    0.757873    2.489433
     16          6           0      -22.873613   -0.249872    3.406319
     17          6           0      -23.189380    0.331941    4.665692
     18          6           0      -23.318164    1.764927    4.489094
     19          6           0      -23.077166    2.004942    3.026844
     20          6           0      -23.435528   -0.523082    5.927976
     21          6           0      -23.576630    2.893949    5.437171
     22          8           0      -23.775135    4.085975    5.176916
     23          6           0      -23.539543    2.506892    6.964010
     24          7           0      -22.996793    2.636751   -0.016889
     25          6           0      -23.221188    3.511316    0.931949
     26          6           0      -23.233246    4.946768    0.410442
     27          6           0      -22.998807    4.757646   -1.115556
     28          6           0      -22.865716    3.239782   -1.222263
     29          6           0      -24.598936    5.741311    0.733652
     30          6           0      -21.662291    5.519340   -1.526367
     31          6           0      -20.280887    5.040764   -1.015288
     32          7           0      -22.316885    0.292005   -1.667958
     33          6           0      -22.362080    1.256649   -2.656711
     34          6           0      -22.001051    0.576797   -3.917365
     35          6           0      -21.687060   -0.721580   -3.648723
     36          6           0      -21.904851   -0.841512   -2.228217
     37          6           0      -22.132456    1.195185   -5.266481
     38          6           0      -21.252234   -2.009949   -4.187738
     39          8           0      -20.989738   -2.356885   -5.327108
     40          6           0      -21.217338   -2.942908   -2.898658
     41          6           0      -22.215715   -4.011126   -3.107977
     42          8           0      -23.428373   -3.888254   -3.353604
     43          8           0      -21.489868   -5.177864   -2.978673
     44          6           0      -22.303458   -6.400595   -2.962904
     45          1           0      -22.660543   -2.200706    4.096553
     46          1           0      -23.495002    4.001779    2.990308
     47          1           0      -22.566199    3.301856   -3.319655
     48          1           0      -21.919612   -4.531297   -0.332120
     49          1           0      -21.426502   -4.017718    2.473094
     50          1           0      -23.604805   -5.267770    1.002386
     51          1           0      -24.302946   -3.838289    1.616700
     52          1           0      -23.483934   -4.913196    2.830090
     53          1           0      -19.456330   -3.997865    1.239032
     54          1           0      -19.510720   -3.448620   -0.490008
     55          1           0      -18.604781   -5.887541    0.196485
     56          1           0      -19.475256   -5.824739   -1.210697
     57          1           0      -22.544464   -0.921682    6.412835
     58          1           0      -24.118105   -1.288158    5.558417
     59          1           0      -23.851513    0.050656    6.755878
     60          1           0      -24.440748    1.944040    7.207297
     61          1           0      -23.299099    3.405448    7.531944
     62          1           0      -22.674131    1.904457    7.240880
     63          1           0      -22.383723    5.476939    0.840282
     64          1           0      -23.805828    5.151141   -1.733669
     65          1           0      -24.351193    6.446628    1.527718
     66          1           0      -25.357919    5.049722    1.100801
     67          1           0      -25.063247    6.353764   -0.038223
     68          1           0      -21.670129    6.594200   -1.346220
     69          1           0      -21.641641    5.330521   -2.600183
     70          1           0      -19.784149    4.733730   -1.935763
     71          1           0      -20.358420    4.245100   -0.275397
     72          1           0      -19.695065    5.820755   -0.529003
     73          1           0      -21.321962    0.724256   -5.821890
     74          1           0      -22.040142    2.281246   -5.246562
     75          1           0      -23.007444    0.751932   -5.740101
     76          1           0      -20.216024   -3.357522   -3.012095
     77          1           0      -21.540978   -7.179985   -2.973645
     78          1           0      -22.825667   -6.422052   -3.919433
     79          1           0      -23.069371   -6.450990   -2.188718
     80         12           0       21.830488    0.775777   -0.161983
     81          6           0       23.693126   -1.697832    1.639867
     82          6           0       19.981336   -1.915451   -1.496711
     83          6           0       20.521959    2.781129   -2.391440
     84          6           0       23.973987    3.155812    0.979644
     85          7           0       21.832514   -1.521807    0.111014
     86          6           0       22.620841   -2.202521    0.977308
     87          6           0       22.152651   -3.647585    1.026549
     88          6           0       20.940753   -3.792883    0.063556
     89          6           0       20.875331   -2.343477   -0.455213
     90          6           0       21.148262   -4.935017   -1.082966
     91          6           0       21.734165   -4.108913    2.488012
     92          6           0       22.298517   -5.445196    2.971541
     93          1           0       22.553368   -6.635458    1.962001
     94          7           0       20.467720    0.458512   -1.778131
     95          6           0       19.846799   -0.655229   -2.104325
     96          6           0       19.013603   -0.365466   -3.237140
     97          6           0       18.995495    1.031605   -3.478975
     98          6           0       20.029091    1.468647   -2.577417
     99          6           0       18.052096   -1.389393   -3.838172
    100          6           0       18.132753    1.952710   -4.327283
    101          8           0       18.346431    3.146203   -4.436528
    102          6           0       16.941552    1.317638   -4.990356
    103          7           0       22.455634    2.596566   -0.862558
    104          6           0       21.589801    3.327031   -1.678555
    105          6           0       21.889865    4.850662   -1.674979
    106          6           0       22.887261    4.906321   -0.457006
    107          6           0       23.132995    3.448614   -0.067867
    108          6           0       22.457002    5.299925   -3.029408
    109          6           0       22.286637    5.647942    0.829278
    110          6           0       22.779819    7.017713    1.155625
    111          7           0       23.391457    0.791237    1.117261
    112          6           0       24.197945    1.853968    1.462981
    113          6           0       25.328275    1.458742    2.299285
    114          6           0       25.173170    0.030848    2.409912
    115          6           0       24.078582   -0.324791    1.586943
    116          6           0       26.222781    2.414833    3.001914
    117          6           0       25.662924   -1.172534    3.064551
    118          8           0       26.599601   -1.255571    3.879760
    119          6           0       24.714187   -2.401085    2.556648
    120          6           0       25.616795   -3.304543    1.860798
    121          8           0       26.317052   -2.971619    0.929805
    122          8           0       25.563377   -4.540675    2.370791
    123          6           0       26.437221   -5.648932    1.872878
    124          1           0       19.329412   -2.700323   -1.885622
    125          1           0       19.880171    3.578480   -2.773673
    126          1           0       24.583101    3.965833    1.385551
    127          1           0       22.970162   -4.260115    0.646276
    128          1           0       20.050495   -4.152894    0.579523
    129          1           0       21.890205   -5.669413   -0.769316
    130          1           0       21.456044   -4.382942   -1.971367
    131          1           0       20.196698   -5.424743   -1.289191
    132          1           0       20.662352   -4.116091    2.681388
    133          1           0       22.114702   -3.388705    3.212199
    134          1           0       21.696539   -5.867748    3.776287
    135          1           0       23.229886   -5.148734    3.454008
    136          1           0       17.027908   -1.307835   -3.473803
    137          1           0       18.448103   -2.402890   -3.767365
    138          1           0       18.046961   -1.201085   -4.911533
    139          1           0       16.396207    0.599486   -4.377276
    140          1           0       17.160951    0.793201   -5.919323
    141          1           0       16.158706    2.068157   -5.100101
    142          1           0       20.947829    5.364731   -1.486143
    143          1           0       23.786868    5.426143   -0.786803
    144          1           0       22.389035    4.551277   -3.818595
    145          1           0       23.517747    5.538897   -2.961730
    146          1           0       21.936902    6.201804   -3.353884
    147          1           0       22.424860    5.115752    1.770414
    148          1           0       21.199232    5.709674    0.807275
    149          1           0       21.967342    7.738947    1.077062
    150          1           0       23.539794    7.190670    0.393411
    151          1           0       23.172145    7.050203    2.172008
    152          1           0       26.536934    2.026414    3.970102
    153          1           0       25.697230    3.369502    3.014699
    154          1           0       27.108978    2.527729    2.375911
    155          1           0       24.255087   -2.928827    3.391517
    156          1           0       27.472558   -5.308555    1.847065
    157          1           0       26.169153   -5.975285    0.867722
    158          1           0       26.314458   -6.583298    2.419895
 ---------------------------------------------------------------------

 SCF Done:  E(RCAM-B3LYP) =  -4069.80070734     A.U. after   19 cycles

 Excitation energies and oscillator strengths:

 Excited State   1:      Singlet-A      1.6834 eV  736.49 nm  f=0.3932  <S**2>=0.000
     310 -> 316       -0.17288
     312 -> 313        0.68678
     310 <- 316       -0.10712
 This state for optimization and/or second-order correction.
 Total Energy, E(TD-HF/TD-DFT) =  -4069.73884195
 Copying the excited state density for this state as the 1-particle RhoCI density.

 Excited State   2:      Singlet-A      1.6991 eV  729.70 nm  f=0.3924  <S**2>=0.000
     309 -> 315       -0.18621
     311 -> 314        0.68386
     309 <- 315       -0.10900

 Excited State   3:      Singlet-A      2.1994 eV  563.73 nm  f=0.1320  <S**2>=0.000
     310 -> 313        0.65025
     312 -> 316        0.26299

 Excited State   4:      Singlet-A      2.2666 eV  547.00 nm  f=0.0454  <S**2>=0.000
     309 -> 314        0.60927
     311 -> 315        0.34929

 Excited State   5:      Singlet-A      3.1284 eV  396.32 nm  f=0.0000  <S**2>=0.000
     311 -> 313        0.70710

 The electronic state is 1-A.
 Alpha  occ. eigenvalues --  -46.89297 -46.88637 -19.25698 -19.25279 -19.20302
 Alpha  occ. eigenvalues --  -19.19600 -19.19546 -19.19544 -19.19029 -19.18534
 Alpha  occ. eigenvalues --  -14.42338 -14.42238 -14.41896 -14.41730 -14.39548
 Alpha  occ. eigenvalues --  -14.39528 -14.39391 -14.39104 -10.39566 -10.38518
 Alpha  occ. eigenvalues --  -10.35804 -10.35751 -10.35477 -10.35454 -10.32556
 Alpha  occ. eigenvalues --  -10.32027 -10.31878 -10.31820 -10.31349 -10.30916
 Alpha  occ. eigenvalues --  -10.30760 -10.30535 -10.30381 -10.30286 -10.30222
 Alpha  occ. eigenvalues --  -10.29941 -10.29666 -10.29635 -10.29601 -10.29282
 Alpha  occ. eigenvalues --  -10.29196 -10.29134 -10.29042 -10.28864 -10.28766
 Alpha  occ. eigenvalues --  -10.28582 -10.28381 -10.28379 -10.28225 -10.28198
 Alpha  occ. eigenvalues --  -10.28177 -10.28036 -10.27951 -10.27934 -10.27886
 Alpha  occ. eigenvalues --  -10.27814 -10.27801 -10.27744 -10.27634 -10.27630
 Alpha  occ. eigenvalues --  -10.27606 -10.27539 -10.27460 -10.27424 -10.27396
 Alpha  occ. eigenvalues --  -10.27104 -10.27025 -10.26677 -10.26634 -10.26588
 Alpha  occ. eigenvalues --  -10.26536 -10.26444 -10.26273 -10.26243 -10.26083
 Alpha  occ. eigenvalues --  -10.26075 -10.25893 -10.25885 -10.25824 -10.25615
 Alpha  occ. eigenvalues --  -10.25594 -10.25585 -10.25537 -10.25479 -10.25038
 Alpha  occ. eigenvalues --  -10.24777  -3.17701  -3.17265  -1.92604  -1.92146
 Alpha  occ. eigenvalues --   -1.92131  -1.92002  -1.91726  -1.91576  -1.16577
 Alpha  occ. eigenvalues --   -1.16009  -1.10862  -1.10244  -1.09651  -1.08455
 Alpha  occ. eigenvalues --   -1.07518  -1.07385  -1.05173  -1.04666  -1.03824
 Alpha  occ. eigenvalues --   -1.03527  -1.03162  -1.02939  -1.01902  -1.01760
 Alpha  occ. eigenvalues --   -0.92423  -0.92180  -0.89147  -0.88841  -0.88653
 Alpha  occ. eigenvalues --   -0.88281  -0.88115  -0.88053  -0.87324  -0.87125
 Alpha  occ. eigenvalues --   -0.87039  -0.86956  -0.86424  -0.86295  -0.84696
 Alpha  occ. eigenvalues --   -0.84245  -0.84141  -0.83420  -0.82682  -0.82465
 Alpha  occ. eigenvalues --   -0.81851  -0.81585  -0.81304  -0.81255  -0.80714
 Alpha  occ. eigenvalues --   -0.80012  -0.78282  -0.78131  -0.77692  -0.77405
 Alpha  occ. eigenvalues --   -0.77249  -0.76884  -0.76296  -0.75851  -0.75023
 Alpha  occ. eigenvalues --   -0.74859  -0.72514  -0.72503  -0.72225  -0.71433
 Alpha  occ. eigenvalues --   -0.69915  -0.69310  -0.68768  -0.68399  -0.67818
 Alpha  occ. eigenvalues --   -0.67668  -0.67480  -0.66993  -0.65574  -0.65281
 Alpha  occ. eigenvalues --   -0.65180  -0.65048  -0.64752  -0.64641  -0.64518
 Alpha  occ. eigenvalues --   -0.64438  -0.62584  -0.62441  -0.60519  -0.60347
 Alpha  occ. eigenvalues --   -0.59466  -0.59247  -0.58964  -0.58835  -0.58824
 Alpha  occ. eigenvalues --   -0.58508  -0.58060  -0.58021  -0.57531  -0.57490
 Alpha  occ. eigenvalues --   -0.56101  -0.55971  -0.55775  -0.55585  -0.55181
 Alpha  occ. eigenvalues --   -0.55113  -0.54925  -0.54468  -0.54384  -0.53589
 Alpha  occ. eigenvalues --   -0.53519  -0.53335  -0.53239  -0.53200  -0.53008
 Alpha  occ. eigenvalues --   -0.52933  -0.52637  -0.52442  -0.52379  -0.52333
 Alpha  occ. eigenvalues --   -0.52175  -0.52112  -0.51990  -0.51549  -0.51304
 Alpha  occ. eigenvalues --   -0.51208  -0.51102  -0.50937  -0.50606  -0.50545
 Alpha  occ. eigenvalues --   -0.50089  -0.49990  -0.49903  -0.49700  -0.49381
 Alpha  occ. eigenvalues --   -0.49281  -0.49045  -0.48965  -0.48773  -0.48630
 Alpha  occ. eigenvalues --   -0.48585  -0.48566  -0.48522  -0.48416  -0.48166
 Alpha  occ. eigenvalues --   -0.48162  -0.47743  -0.47736  -0.47448  -0.47429
 Alpha  occ. eigenvalues --   -0.47285  -0.46892  -0.46791  -0.46761  -0.46621
 Alpha  occ. eigenvalues --   -0.46211  -0.46185  -0.46136  -0.45922  -0.45908
 Alpha  occ. eigenvalues --   -0.45663  -0.45323  -0.45234  -0.45118  -0.44819
 Alpha  occ. eigenvalues --   -0.44580  -0.44528  -0.44254  -0.43956  -0.43841
 Alpha  occ. eigenvalues --   -0.43611  -0.43509  -0.43316  -0.43265  -0.43036
 Alpha  occ. eigenvalues --   -0.43034  -0.42954  -0.42815  -0.42776  -0.42627
 Alpha  occ. eigenvalues --   -0.42490  -0.42353  -0.42184  -0.42150  -0.41983
 Alpha  occ. eigenvalues --   -0.41860  -0.41734  -0.41584  -0.41533  -0.41432
 Alpha  occ. eigenvalues --   -0.41307  -0.41027  -0.40790  -0.40586  -0.40568
 Alpha  occ. eigenvalues --   -0.40309  -0.39838  -0.39737  -0.39563  -0.39343
 Alpha  occ. eigenvalues --   -0.38410  -0.37938  -0.37916  -0.37540  -0.37191
 Alpha  occ. eigenvalues --   -0.36991  -0.36769  -0.36569  -0.36442  -0.36307
 Alpha  occ. eigenvalues --   -0.36239  -0.36167  -0.34713  -0.34472  -0.34254
 Alpha  occ. eigenvalues --   -0.33779  -0.33524  -0.33028  -0.31712  -0.31265
 Alpha  occ. eigenvalues --   -0.31256  -0.31156  -0.31028  -0.30757  -0.30424
 Alpha  occ. eigenvalues --   -0.30104  -0.29927  -0.29411  -0.24456  -0.23850
 Alpha  occ. eigenvalues --   -0.21001  -0.20978
 Alpha virt. eigenvalues --   -0.08736  -0.08531  -0.02401  -0.01135  -0.00287
 Alpha virt. eigenvalues --    0.00099   0.01761   0.01904   0.02059   0.02127
 Alpha virt. eigenvalues --    0.04688   0.04748   0.04892   0.05395   0.05504

 Mulliken charges:
               1
     1  Mg  12.000052
     2  C    6.000833
     3  C    5.999186
     4  C    5.999746
     5  C    6.000625
     6  N    7.000109
     7  C    5.998853
     8  C    6.000368
     9  C    5.999663
    10  C    6.001053
    11  C    5.999956
    12  C    6.000066
    13  C    6.000124
    14  H    0.999819
    15  N    6.999615
    16  C    6.001274
    17  C    6.000463
    18  C    6.000554
    19  C    6.000783
    20  C    5.999957
    21  C    6.000311
    22  O    8.000817
    23  C    5.999858
    24  N    7.000098
    25  C    6.000826
    26  C    5.999676
    27  C    6.000350
    28  C    5.999066
    29  C    5.999956
    30  C    6.000044
    31  C    6.000155
    32  N    7.000208
    33  C    5.998624
    34  C    5.999324
    35  C    5.999858
    36  C    5.998961
    37  C    6.000134
    38  C    5.999499
    39  O    7.999256
    40  C    5.999910
    41  C    5.999918
    42  O    7.999932
    43  O    7.999926
    44  C    6.000058
    45  H    1.000230
    46  H    1.000223
    47  H    0.999740
    48  H    0.999953
    49  H    1.000039
    50  H    1.000397
    51  H    1.000045
    52  H    1.000012
    53  H    0.999642
    54  H    1.000097
    55  H    0.999838
    56  H    1.000052
    57  H    1.000563
    58  H    1.000438
    59  H    1.000428
    60  H    1.000274
    61  H    1.000420
    62  H    1.000201
    63  H    1.000026
    64  H    0.999951
    65  H    0.999981
    66  H    0.999957
    67  H    1.000299
    68  H    0.999742
    69  H    1.000113
    70  H    1.000101
    71  H    0.999755
    72  H    0.999787
    73  H    0.999497
    74  H    0.999461
    75  H    0.999452
    76  H    0.999742
    77  H    0.999851
    78  H    0.999975
    79  H    0.999853
    80  Mg  11.997535
    81  C    6.024469
    82  C    5.984178
    83  C    5.968011
    84  C    6.011393
    85  N    7.008226
    86  C    5.972315
    87  C    6.010837
    88  C    5.984770
    89  C    6.034032
    90  C    5.999279
    91  C    6.001250
    92  C    6.000843
    93  H    0.992368
    94  N    6.991500
    95  C    6.041554
    96  C    6.025429
    97  C    6.012567
    98  C    6.040591
    99  C    5.995571
   100  C    6.014061
   101  O    8.027119
   102  C    5.991661
   103  N    6.990657
   104  C    6.047707
   105  C    5.988400
   106  C    6.009176
   107  C    5.971833
   108  C    5.996110
   109  C    6.008703
   110  C    6.000481
   111  N    7.000185
   112  C    5.964347
   113  C    5.961411
   114  C    5.999808
   115  C    5.962112
   116  C    6.004980
   117  C    5.985665
   118  O    7.971339
   119  C    5.992504
   120  C    5.994829
   121  O    7.997819
   122  O    7.997946
   123  C    6.002601
   124  H    1.010394
   125  H    1.005354
   126  H    0.987766
   127  H    0.999906
   128  H    1.006136
   129  H    1.013898
   130  H    0.998182
   131  H    1.000386
   132  H    0.990895
   133  H    1.008195
   134  H    0.997595
   135  H    1.006333
   136  H    1.022907
   137  H    1.018928
   138  H    1.018088
   139  H    1.004997
   140  H    1.009941
   141  H    1.015090
   142  H    1.000302
   143  H    0.996749
   144  H    0.995392
   145  H    1.012850
   146  H    1.003250
   147  H    1.005740
   148  H    0.985919
   149  H    0.992669
   150  H    0.997319
   151  H    1.002142
   152  H    0.980684
   153  H    0.980482
   154  H    0.975153
   155  H    0.990665
   156  H    0.999406
   157  H    0.993161
   158  H    0.994955
 Sum of Mulliken charges = 624.00000

 Dipole moment (field-independent basis, Debye):
    X=             -8.3992    Y=             -0.9595    Z=             -7.1907  Tot=             11.0983
 Quadrupole moment (field-independent basis, Debye-Ang):
   XX=           -366.1726   YY=             -3.3596   ZZ=              7.6449
   XY=            -26.8491   XZ=           -167.9188   YZ=             -4.1461

 Normal termination of Gaussian 16 at Tue Sep 21 17:43:27 2021.
