 Gaussian 16, Revision A.03,
 Gaussian 16:  ES64L-G16RevA.03 25-Dec-2016

 -----------------------------------
 #p cam-b3lyp/Def2SVP td=(nstates=5)
 -----------------------------------

 --------------------------------
 TDDFT excited states in gaussian
 --------------------------------
 Symbolic Z-matrix:
 Charge =  0 Multiplicity = 1

                         Standard orientation:
 ---------------------------------------------------------------------
 Center     Atomic      Atomic             Coordinates (Angstroms)
 Number     Number       Type             X           Y           Z
 ---------------------------------------------------------------------
      1         12           0      -30.224301    0.265695   -0.670311
      2          6           0      -30.688100   -1.798844    2.164917
      3          6           0      -28.507436    2.503423    1.318815
      4          6           0      -30.048522    2.357294   -3.330374
      5          6           0      -32.156552   -1.932328   -2.600209
      6          7           0      -29.805226    0.300112    1.503443
      7          6           0      -29.887008   -0.735899    2.430823
      8          6           0      -29.204409   -0.338681    3.803300
      9          6           0      -28.786461    1.131851    3.536150
     10          6           0      -29.086946    1.377872    2.040629
     11          6           0      -29.431287    2.259999    4.425316
     12          6           0      -28.105772   -1.331487    4.364580
     13          6           0      -28.401456   -1.914650    5.713231
     14          1           0      -27.159992   -2.116028    6.669632
     15          7           0      -29.407295    2.122057   -0.905715
     16          6           0      -28.676641    2.876667   -0.010476
     17          6           0      -28.292870    4.132280   -0.636460
     18          6           0      -28.715996    4.140436   -1.995759
     19          6           0      -29.417023    2.812823   -2.149772
     20          6           0      -27.405587    5.197389    0.038772
     21          6           0      -28.501220    5.184881   -3.086404
     22          8           0      -28.839939    5.034717   -4.242299
     23          6           0      -27.717590    6.544810   -2.875450
     24          7           0      -31.088883    0.254233   -2.676775
     25          6           0      -30.863263    1.217621   -3.560438
     26          6           0      -31.541240    0.917937   -4.944869
     27          6           0      -32.055514   -0.564022   -4.756324
     28          6           0      -31.733128   -0.797575   -3.249405
     29          6           0      -32.584616    2.005941   -5.330954
     30          6           0      -31.406403   -1.523634   -5.733940
     31          6           0      -32.368749   -2.546020   -6.335889
     32          7           0      -31.367971   -1.447190   -0.358285
     33          6           0      -32.017765   -2.289826   -1.239697
     34          6           0      -32.623003   -3.330023   -0.466272
     35          6           0      -32.116012   -3.231130    0.853162
     36          6           0      -31.336717   -2.041656    0.900325
     37          6           0      -33.534447   -4.379504   -0.979340
     38          6           0      -32.053803   -3.900411    2.164227
     39          8           0      -32.646639   -4.866106    2.636322
     40          6           0      -31.006372   -2.909111    3.091518
     41          6           0      -31.679129   -2.473819    4.275499
     42          8           0      -32.118848   -1.357771    4.448281
     43          8           0      -31.642822   -3.449997    5.245411
     44          6           0      -32.379410   -3.063305    6.474478
     45          1           0      -27.854995    3.177193    1.878447
     46          1           0      -30.064934    3.012059   -4.203545
     47          1           0      -32.669493   -2.604241   -3.292438
     48          1           0      -30.041954   -0.221063    4.490050
     49          1           0      -27.709777    1.253107    3.655474
     50          1           0      -28.635935    2.972165    4.647374
     51          1           0      -29.835466    1.799236    5.326336
     52          1           0      -30.243714    2.803690    3.942765
     53          1           0      -27.170038   -0.772348    4.356983
     54          1           0      -28.055817   -2.168397    3.667817
     55          1           0      -28.851434   -2.901356    5.595933
     56          1           0      -29.127855   -1.220181    6.134373
     57          1           0      -26.474003    5.185241   -0.525893
     58          1           0      -27.122716    4.844977    1.030969
     59          1           0      -27.794832    6.216242    0.030326
     60          1           0      -26.718899    6.302190   -2.510736
     61          1           0      -28.310268    7.298407   -2.356025
     62          1           0      -27.738345    7.021941   -3.854796
     63          1           0      -30.835127    0.872706   -5.773758
     64          1           0      -33.140468   -0.514833   -4.850904
     65          1           0      -33.515504    1.506518   -5.601016
     66          1           0      -32.230943    2.690645   -6.102210
     67          1           0      -32.787646    2.639035   -4.468754
     68          1           0      -30.566942   -2.057712   -5.289986
     69          1           0      -30.904194   -1.037626   -6.571851
     70          1           0      -33.334322   -2.530703   -5.830281
     71          1           0      -31.916438   -3.523873   -6.168234
     72          1           0      -32.447849   -2.456709   -7.419456
     73          1           0      -33.785851   -4.350984   -2.039523
     74          1           0      -34.346552   -4.453410   -0.255061
     75          1           0      -32.889650   -5.257975   -1.013977
     76          1           0      -30.121826   -3.486207    3.362539
     77          1           0      -33.424645   -2.868709    6.233220
     78          1           0      -31.834316   -2.219762    6.897964
     79          1           0      -32.406308   -3.856560    7.220536
     80         12           0       31.047613   -0.662900    0.355687
     81          6           0       28.334401    1.422198    1.203875
     82          6           0       28.818817   -2.714456   -1.203399
     83          6           0       33.705102   -2.246358   -1.097539
     84          6           0       33.149535    1.929295    1.605674
     85          7           0       28.803413   -0.565038   -0.086816
     86          6           0       27.861262    0.257889    0.460536
     87          6           0       26.449225   -0.034672   -0.075597
     88          6           0       26.708512   -1.563956   -0.495816
     89          6           0       28.211929   -1.627404   -0.602142
     90          6           0       26.165906   -2.634458    0.488630
     91          6           0       26.021297    0.846324   -1.334208
     92          6           0       24.541644    1.060526   -1.613228
     93          1           0       23.834521    0.427700   -2.830616
     94          7           0       31.320566   -2.326381   -0.979199
     95          6           0       30.257722   -3.088625   -1.368515
     96          6           0       30.682938   -4.259635   -1.998153
     97          6           0       32.126885   -4.191900   -1.973500
     98          6           0       32.479983   -2.877989   -1.365299
     99          6           0       29.762967   -5.346628   -2.540838
    100          6           0       33.002259   -5.295732   -2.522452
    101          8           0       32.469525   -6.323440   -3.015122
    102          6           0       34.568183   -5.297773   -2.419485
    103          7           0       33.071967   -0.184328    0.305445
    104          6           0       34.000463   -1.039118   -0.348041
    105          6           0       35.402124   -0.682836    0.062697
    106          6           0       35.289385    0.761025    0.598248
    107          6           0       33.773218    0.846449    0.939994
    108          6           0       36.121579   -1.516661    1.146906
    109          6           0       35.667612    1.864847   -0.523629
    110          6           0       37.132744    2.218831   -0.729365
    111          7           0       30.767556    1.201433    1.395108
    112          6           0       31.703279    2.123117    1.840237
    113          6           0       31.100207    3.245624    2.375636
    114          6           0       29.726295    3.005527    2.202638
    115          6           0       29.584641    1.755166    1.577495
    116          6           0       31.822289    4.408603    2.979434
    117          6           0       28.478474    3.479442    2.497209
    118          8           0       28.141061    4.429747    3.175346
    119          6           0       27.542111    2.604087    1.637908
    120          6           0       27.080391    3.505093    0.531661
    121          8           0       27.812530    4.059386   -0.227816
    122          8           0       25.693093    3.653783    0.577895
    123          6           0       25.224033    4.629220   -0.343777
    124          1           0       28.133746   -3.499383   -1.531272
    125          1           0       34.598072   -2.817396   -1.361892
    126          1           0       33.852542    2.609403    2.090688
    127          1           0       25.702880   -0.076942    0.716974
    128          1           0       26.175274   -1.717678   -1.433556
    129          1           0       25.222571   -2.922740    0.023977
    130          1           0       25.950972   -2.219816    1.473431
    131          1           0       26.820534   -3.504847    0.536109
    132          1           0       26.386049    0.393242   -2.256088
    133          1           0       26.562813    1.788534   -1.247176
    134          1           0       24.443267    2.145105   -1.678150
    135          1           0       23.999251    0.752723   -0.719410
    136          1           0       30.061830   -6.392951   -2.469317
    137          1           0       29.661902   -4.964388   -3.556336
    138          1           0       28.834666   -5.366076   -1.969852
    139          1           0       34.862048   -5.313260   -1.370308
    140          1           0       34.834133   -4.382840   -2.948526
    141          1           0       35.086817   -6.065647   -2.993342
    142          1           0       35.990214   -0.655456   -0.854063
    143          1           0       35.915251    0.927378    1.475091
    144          1           0       36.312632   -0.993062    2.083461
    145          1           0       36.861111   -2.186028    0.706937
    146          1           0       35.369361   -2.243498    1.453046
    147          1           0       35.105060    2.716106   -0.140760
    148          1           0       35.272375    1.577811   -1.498235
    149          1           0       37.378489    2.120301   -1.786376
    150          1           0       37.752229    1.533899   -0.149729
    151          1           0       37.331262    3.258142   -0.466311
    152          1           0       31.394208    5.297632    2.517228
    153          1           0       32.883071    4.422826    2.726118
    154          1           0       31.680690    4.482568    4.057802
    155          1           0       26.699749    2.302650    2.259580
    156          1           0       25.163455    5.598842    0.149699
    157          1           0       24.183981    4.484081   -0.638354
    158          1           0       25.867937    4.719836   -1.216913
 ---------------------------------------------------------------------

 SCF Done:  E(RCAM-B3LYP) =  -4069.78615574     A.U. after   18 cycles

 Excitation energies and oscillator strengths:

 Excited State   1:      Singlet-A      1.7067 eV  726.48 nm  f=0.4013  <S**2>=0.000
     309 -> 315       -0.18535
     311 -> 313        0.68241
     309 <- 315       -0.10820
 This state for optimization and/or second-order correction.
 Total Energy, E(TD-HF/TD-DFT) =  -4069.72343736
 Copying the excited state density for this state as the 1-particle RhoCI density.

 Excited State   2:      Singlet-A      1.7837 eV  695.10 nm  f=0.3738  <S**2>=0.000
     310 -> 316       -0.17650
     312 -> 314        0.68529
     310 <- 316       -0.10146

 Excited State   3:      Singlet-A      2.1433 eV  578.46 nm  f=0.1303  <S**2>=0.000
     309 -> 313        0.65034
     311 -> 315        0.26013

 Excited State   4:      Singlet-A      2.2587 eV  548.93 nm  f=0.1142  <S**2>=0.000
     310 -> 314        0.63968
     312 -> 316        0.28424

 Excited State   5:      Singlet-A      3.0304 eV  409.14 nm  f=0.0000  <S**2>=0.000
     312 -> 313        0.70711

 The electronic state is 1-A.
 Alpha  occ. eigenvalues --  -46.90340 -46.88227 -19.25421 -19.24326 -19.20951
 Alpha  occ. eigenvalues --  -19.19878 -19.19380 -19.19218 -19.18121 -19.17910
 Alpha  occ. eigenvalues --  -14.43204 -14.42696 -14.42265 -14.41756 -14.40335
 Alpha  occ. eigenvalues --  -14.39847 -14.39232 -14.38715 -10.39727 -10.38317
 Alpha  occ. eigenvalues --  -10.36395 -10.35989 -10.35051 -10.33383 -10.32512
 Alpha  occ. eigenvalues --  -10.32428 -10.32353 -10.31971 -10.31662 -10.31265
 Alpha  occ. eigenvalues --  -10.31262 -10.31122 -10.31016 -10.30967 -10.30742
 Alpha  occ. eigenvalues --  -10.30254 -10.30181 -10.30164 -10.29973 -10.29804
 Alpha  occ. eigenvalues --  -10.29261 -10.29126 -10.28858 -10.28702 -10.28648
 Alpha  occ. eigenvalues --  -10.28490 -10.28350 -10.28329 -10.28237 -10.28088
 Alpha  occ. eigenvalues --  -10.28080 -10.28020 -10.27989 -10.27985 -10.27890
 Alpha  occ. eigenvalues --  -10.27865 -10.27802 -10.27777 -10.27694 -10.27659
 Alpha  occ. eigenvalues --  -10.27603 -10.27576 -10.27478 -10.27438 -10.27366
 Alpha  occ. eigenvalues --  -10.27359 -10.27118 -10.26901 -10.26772 -10.26714
 Alpha  occ. eigenvalues --  -10.26617 -10.26517 -10.26505 -10.26491 -10.26392
 Alpha  occ. eigenvalues --  -10.26329 -10.26243 -10.26109 -10.25975 -10.25869
 Alpha  occ. eigenvalues --  -10.25816 -10.25685 -10.25284 -10.25139 -10.24871
 Alpha  occ. eigenvalues --  -10.24193  -3.18632  -3.16757  -1.93530  -1.93079
 Alpha  occ. eigenvalues --   -1.92929  -1.91664  -1.91206  -1.91064  -1.17668
 Alpha  occ. eigenvalues --   -1.15870  -1.11508  -1.10074  -1.09536  -1.09259
 Alpha  occ. eigenvalues --   -1.07428  -1.07346  -1.05783  -1.04677  -1.04082
 Alpha  occ. eigenvalues --   -1.03949  -1.02464  -1.01959  -1.01943  -1.00937
 Alpha  occ. eigenvalues --   -0.94370  -0.91846  -0.89133  -0.88995  -0.88751
 Alpha  occ. eigenvalues --   -0.88709  -0.88432  -0.88039  -0.87593  -0.87217
 Alpha  occ. eigenvalues --   -0.87129  -0.86889  -0.85939  -0.85605  -0.84415
 Alpha  occ. eigenvalues --   -0.84376  -0.83665  -0.83637  -0.82945  -0.82503
 Alpha  occ. eigenvalues --   -0.81918  -0.81035  -0.80721  -0.80716  -0.80379
 Alpha  occ. eigenvalues --   -0.80097  -0.78431  -0.78101  -0.77418  -0.76979
 Alpha  occ. eigenvalues --   -0.76938  -0.76451  -0.75997  -0.75761  -0.75722
 Alpha  occ. eigenvalues --   -0.74716  -0.73642  -0.72285  -0.72242  -0.71299
 Alpha  occ. eigenvalues --   -0.69518  -0.69053  -0.68846  -0.68507  -0.68465
 Alpha  occ. eigenvalues --   -0.67422  -0.67235  -0.67195  -0.66342  -0.65627
 Alpha  occ. eigenvalues --   -0.65396  -0.64799  -0.64780  -0.64585  -0.64349
 Alpha  occ. eigenvalues --   -0.64251  -0.62845  -0.61144  -0.60556  -0.60184
 Alpha  occ. eigenvalues --   -0.60034  -0.59644  -0.59217  -0.59166  -0.59056
 Alpha  occ. eigenvalues --   -0.58796  -0.58093  -0.58023  -0.57807  -0.57004
 Alpha  occ. eigenvalues --   -0.56535  -0.55944  -0.55815  -0.55764  -0.55343
 Alpha  occ. eigenvalues --   -0.55113  -0.54736  -0.54241  -0.53878  -0.53694
 Alpha  occ. eigenvalues --   -0.53584  -0.53241  -0.53228  -0.53207  -0.53037
 Alpha  occ. eigenvalues --   -0.52825  -0.52636  -0.52552  -0.52309  -0.52127
 Alpha  occ. eigenvalues --   -0.51862  -0.51694  -0.51474  -0.51409  -0.51251
 Alpha  occ. eigenvalues --   -0.51017  -0.50913  -0.50850  -0.50638  -0.50587
 Alpha  occ. eigenvalues --   -0.50181  -0.50143  -0.49862  -0.49776  -0.49575
 Alpha  occ. eigenvalues --   -0.49514  -0.49464  -0.49383  -0.49028  -0.48844
 Alpha  occ. eigenvalues --   -0.48646  -0.48543  -0.48466  -0.48065  -0.48003
 Alpha  occ. eigenvalues --   -0.47972  -0.47734  -0.47492  -0.47376  -0.47257
 Alpha  occ. eigenvalues --   -0.47037  -0.46779  -0.46630  -0.46429  -0.46421
 Alpha  occ. eigenvalues --   -0.46377  -0.46215  -0.46052  -0.45996  -0.45814
 Alpha  occ. eigenvalues --   -0.45526  -0.45315  -0.45141  -0.45108  -0.44845
 Alpha  occ. eigenvalues --   -0.44748  -0.44677  -0.44624  -0.44469  -0.43993
 Alpha  occ. eigenvalues --   -0.43930  -0.43880  -0.43798  -0.43566  -0.43364
 Alpha  occ. eigenvalues --   -0.43287  -0.43284  -0.43194  -0.42971  -0.42961
 Alpha  occ. eigenvalues --   -0.42618  -0.42530  -0.42407  -0.42293  -0.42214
 Alpha  occ. eigenvalues --   -0.41994  -0.41577  -0.41506  -0.41352  -0.41218
 Alpha  occ. eigenvalues --   -0.41173  -0.41045  -0.40561  -0.40534  -0.40334
 Alpha  occ. eigenvalues --   -0.40283  -0.40024  -0.39675  -0.39430  -0.39428
 Alpha  occ. eigenvalues --   -0.38684  -0.38518  -0.37835  -0.37673  -0.37660
 Alpha  occ. eigenvalues --   -0.37172  -0.37166  -0.36985  -0.36864  -0.36611
 Alpha  occ. eigenvalues --   -0.36245  -0.35911  -0.35528  -0.35081  -0.34285
 Alpha  occ. eigenvalues --   -0.33843  -0.33438  -0.33080  -0.31654  -0.31480
 Alpha  occ. eigenvalues --   -0.31472  -0.30644  -0.30474  -0.30228  -0.30058
 Alpha  occ. eigenvalues --   -0.29951  -0.29544  -0.28657  -0.24348  -0.24062
 Alpha  occ. eigenvalues --   -0.22063  -0.21312
 Alpha virt. eigenvalues --   -0.09617  -0.08515  -0.02506  -0.01773  -0.00104
 Alpha virt. eigenvalues --    0.00047   0.01398   0.02103   0.02573   0.02964
 Alpha virt. eigenvalues --    0.04272   0.04541   0.05126   0.05400   0.05479

 Mulliken charges:
               1
     1  Mg   0.816273
     2  C    0.025823
     3  C   -0.086835
     4  C   -0.055845
     5  C   -0.058720
     6  N   -0.312789
     7  C   -0.055427
     8  C   -0.012777
     9  C   -0.109555
    10  C    0.087987
    11  C    0.070612
    12  C    0.093568
    13  C   -0.080249
    14  H    0.012924
    15  N   -0.426207
    16  C    0.167069
    17  C   -0.153127
    18  C   -0.007870
    19  C    0.162624
    20  C    0.112417
    21  C   -0.007691
    22  O   -0.188107
    23  C    0.041589
    24  N   -0.245162
    25  C    0.014716
    26  C   -0.075046
    27  C   -0.009795
    28  C   -0.002087
    29  C    0.065587
    30  C    0.045612
    31  C    0.000086
    32  N   -0.378384
    33  C    0.150630
    34  C   -0.188289
    35  C    0.001870
    36  C    0.131817
    37  C    0.134317
    38  C    0.077231
    39  O   -0.163555
    40  C   -0.091601
    41  C    0.202878
    42  O   -0.222074
    43  O   -0.341844
    44  C    0.191520
    45  H   -0.034380
    46  H   -0.007061
    47  H   -0.044524
    48  H    0.030921
    49  H    0.006508
    50  H    0.015316
    51  H    0.021334
    52  H    0.028728
    53  H    0.014492
    54  H    0.009615
    55  H    0.043787
    56  H    0.030085
    57  H    0.030522
    58  H    0.009723
    59  H    0.043671
    60  H    0.041100
    61  H    0.033015
    62  H    0.021254
    63  H    0.014099
    64  H    0.009825
    65  H    0.013100
    66  H    0.028861
    67  H    0.019985
    68  H    0.006108
    69  H    0.004043
    70  H    0.022174
    71  H    0.008833
    72  H    0.018141
    73  H   -0.003102
    74  H    0.047723
    75  H    0.022301
    76  H    0.051787
    77  H    0.042343
    78  H    0.032268
    79  H    0.033293
    80  Mg   0.815291
    81  C    0.014463
    82  C   -0.065262
    83  C   -0.076243
    84  C   -0.071963
    85  N   -0.233124
    86  C   -0.080914
    87  C    0.006793
    88  C   -0.104044
    89  C    0.065287
    90  C    0.076819
    91  C    0.039656
    92  C   -0.043145
    93  H    0.028181
    94  N   -0.343531
    95  C    0.106394
    96  C   -0.141773
    97  C   -0.040952
    98  C    0.143946
    99  C    0.134049
   100  C   -0.011073
   101  O   -0.242986
   102  C    0.048392
   103  N   -0.357493
   104  C    0.064205
   105  C   -0.039276
   106  C   -0.064028
   107  C    0.055460
   108  C    0.104235
   109  C    0.008795
   110  C    0.034453
   111  N   -0.298987
   112  C    0.103979
   113  C   -0.159972
   114  C    0.083472
   115  C    0.089599
   116  C    0.137604
   117  C   -0.048559
   118  O   -0.168381
   119  C   -0.001930
   120  C    0.189492
   121  O   -0.180551
   122  O   -0.329021
   123  C    0.162241
   124  H   -0.027410
   125  H   -0.039850
   126  H   -0.015035
   127  H    0.002577
   128  H    0.015777
   129  H    0.016346
   130  H    0.021277
   131  H    0.022336
   132  H    0.019973
   133  H    0.022642
   134  H    0.026584
   135  H    0.021091
   136  H    0.045652
   137  H    0.041291
   138  H    0.008724
   139  H    0.046352
   140  H    0.030952
   141  H    0.024847
   142  H    0.004664
   143  H    0.002861
   144  H    0.027602
   145  H    0.021422
   146  H   -0.005822
   147  H    0.000844
   148  H    0.012713
   149  H    0.013763
   150  H    0.012288
   151  H    0.020664
   152  H    0.032757
   153  H    0.002701
   154  H    0.040537
   155  H    0.015283
   156  H    0.028745
   157  H    0.030543
   158  H    0.044707
 Sum of Mulliken charges =  -0.00000

 Dipole moment (field-independent basis, Debye):
    X=              4.6911    Y=              2.5749    Z=             -0.2804  Tot=              5.3587
 Quadrupole moment (field-independent basis, Debye-Ang):
   XX=           -586.9486   YY=           -553.2571   ZZ=           -511.0447
   XY=           -111.7271   XZ=             67.4081   YZ=             -3.7461

 Normal termination of Gaussian 16 at Thu Sep 16 09:03:01 2021.
