 Gaussian 16, Revision A.03,
 Gaussian 16:  ES64L-G16RevA.03 25-Dec-2016

 ---------------------------------------------------
 #p cam-b3lyp/Def2SVP td=(nstates=5) density=(CIS=1)
 ---------------------------------------------------

 --------------------------------
 TDDFT excited states in gaussian
 --------------------------------
 Symbolic Z-matrix:
 Charge =  0 Multiplicity = 1

                         Standard orientation:
 ---------------------------------------------------------------------
 Center     Atomic      Atomic             Coordinates (Angstroms)
 Number     Number       Type             X           Y           Z
 ---------------------------------------------------------------------
      1         12           0       -0.737706    0.055767   -0.555699
      2          6           0        2.785459   -0.001306   -0.668025
      3          6           0       -0.652941   -3.326883   -0.158645
      4          6           0       -4.041419    0.195296    0.308862
      5          6           0       -0.460716    3.607358   -0.458264
      6          7           0        0.925522   -1.493901   -0.283637
      7          6           0        2.264854   -1.356435   -0.511110
      8          6           0        3.037154   -2.661663   -0.252622
      9          6           0        1.807516   -3.670023   -0.484404
     10          6           0        0.606937   -2.775407   -0.300376
     11          6           0        1.773336   -4.385555   -1.861494
     12          6           0        3.629820   -2.801539    1.221338
     13          6           0        4.821380   -3.718331    1.451084
     14          1           0        4.702095   -5.039512    2.240246
     15          7           0       -2.259418   -1.362863   -0.012122
     16          6           0       -2.008834   -2.703614   -0.054707
     17          6           0       -3.189038   -3.439465    0.064287
     18          6           0       -4.235287   -2.448343    0.179251
     19          6           0       -3.561065   -1.119421    0.197744
     20          6           0       -3.280020   -4.960453    0.037316
     21          6           0       -5.697407   -2.818052    0.286910
     22          8           0       -6.034200   -4.030051    0.268403
     23          6           0       -6.861944   -1.766392    0.311191
     24          7           0       -1.986707    1.671967   -0.158886
     25          6           0       -3.358423    1.466084    0.150662
     26          6           0       -4.110914    2.762178    0.031516
     27          6           0       -3.019748    3.849849    0.134416
     28          6           0       -1.744742    3.046415   -0.255074
     29          6           0       -4.933227    3.060064   -1.242632
     30          6           0       -2.870494    4.431615    1.637532
     31          6           0       -3.806634    5.545499    2.081544
     32          7           0        0.848775    1.498128   -0.748659
     33          6           0        0.804788    2.883391   -0.700375
     34          6           0        2.069277    3.437416   -0.767398
     35          6           0        2.924057    2.322780   -0.813779
     36          6           0        2.125185    1.167556   -0.774603
     37          6           0        2.370197    4.902952   -0.779418
     38          6           0        4.224871    1.936951   -0.979437
     39          8           0        5.213221    2.599243   -1.227090
     40          6           0        4.207732    0.433290   -0.632841
     41          6           0        4.871471    0.339736    0.708605
     42          8           0        4.493184    0.913085    1.682383
     43          8           0        6.023546   -0.444013    0.623150
     44          6           0        6.778856   -0.426001    1.827374
     45          1           0       -0.688996   -4.415633   -0.237761
     46          1           0       -5.126786    0.296652    0.380063
     47          1           0       -0.468595    4.694015   -0.563721
     48          1           0        3.748742   -2.889014   -1.045678
     49          1           0        1.912502   -4.456519    0.262411
     50          1           0        2.208935   -5.358095   -1.630605
     51          1           0        2.405791   -3.892596   -2.599701
     52          1           0        0.751945   -4.527329   -2.215090
     53          1           0        2.873947   -3.200426    1.897899
     54          1           0        3.819021   -1.787143    1.573160
     55          1           0        5.549706   -3.078326    1.951226
     56          1           0        5.237043   -3.954959    0.471761
     57          1           0       -4.135152   -5.442357   -0.437808
     58          1           0       -3.189106   -5.135181    1.109119
     59          1           0       -2.464828   -5.370297   -0.559037
     60          1           0       -6.865638   -1.208552   -0.624848
     61          1           0       -6.614978   -1.170777    1.189808
     62          1           0       -7.852460   -2.151262    0.553424
     63          1           0       -4.738876    2.832179    0.919104
     64          1           0       -3.200345    4.682996   -0.544911
     65          1           0       -4.551575    3.872121   -1.861259
     66          1           0       -6.001194    2.932742   -1.064396
     67          1           0       -4.744670    2.194859   -1.878016
     68          1           0       -1.836939    4.775169    1.599747
     69          1           0       -2.960129    3.632003    2.373090
     70          1           0       -4.283449    5.258492    3.018372
     71          1           0       -4.571373    5.696776    1.319204
     72          1           0       -3.259609    6.465806    2.287872
     73          1           0        3.141265    5.054961   -0.024694
     74          1           0        1.520617    5.509565   -0.463407
     75          1           0        2.757673    5.248743   -1.737900
     76          1           0        4.795213   -0.091626   -1.385332
     77          1           0        7.529297    0.362399    1.776206
     78          1           0        7.412864   -1.304111    1.955855
     79          1           0        6.157074   -0.261691    2.705769
 ---------------------------------------------------------------------

 SCF Done:  E(RCAM-B3LYP) =  -2034.88017600     A.U. after   19 cycles

 Excitation energies and oscillator strengths:

 Excited State   1:      Singlet-A      1.7066 eV  726.48 nm  f=0.0000  <S**2>=0.000
     155 ->158        -0.18548
     156 ->157         0.68239
     155 <-158        -0.10823
 This state for optimization and/or second-order correction.
 Total Energy, E(TD-HF/TD-DFT) =  -2034.81745838
 Copying the excited state density for this state as the 1-particle RhoCI density.

 Excited State   2:      Singlet-A      2.1434 eV  578.46 nm  f=0.0000  <S**2>=0.000
     155 ->157         0.65033
     156 ->158         0.26017

 Excited State   3:      Singlet-A      3.1370 eV  395.23 nm  f=0.0000  <S**2>=0.000
     154 ->157         0.66969

 Excited State   4:      Singlet-A      3.2571 eV  380.66 nm  f=0.0000  <S**2>=0.000
     150 ->157         0.10911
     151 ->157         0.48394
     151 ->159         0.20746
     151 ->161        -0.11949
     152 ->157        -0.28058
     152 ->161         0.10309
     153 ->157         0.18521

 Excited State   5:      Singlet-A      3.2681 eV  379.38 nm  f=0.0000  <S**2>=0.000
     150 ->157        -0.10900
     151 ->157        -0.28592
     151 ->159        -0.11462
     152 ->157        -0.14759
     152 ->159         0.18902
     153 ->157         0.51186

 The electronic state is 1-A.
 Alpha  occ. eigenvalues --  -46.90330 -19.25410 -19.20940 -19.18111 -19.17901
 Alpha  occ. eigenvalues --  -14.43194 -14.42687 -14.39838 -14.39223 -10.39716
 Alpha  occ. eigenvalues --  -10.35042 -10.33373 -10.32418 -10.32344 -10.31653
 Alpha  occ. eigenvalues --  -10.31004 -10.30957 -10.30732 -10.30244 -10.29964
 Alpha  occ. eigenvalues --  -10.29251 -10.29114 -10.28341 -10.28320 -10.28227
 Alpha  occ. eigenvalues --  -10.28078 -10.28069 -10.27975 -10.27881 -10.27856
 Alpha  occ. eigenvalues --  -10.27684 -10.27566 -10.27468 -10.27428 -10.27355
 Alpha  occ. eigenvalues --  -10.26606 -10.26508 -10.26497 -10.26384 -10.26099
 Alpha  occ. eigenvalues --  -10.25860 -10.25676 -10.24183  -3.18622  -1.93520
 Alpha  occ. eigenvalues --   -1.93070  -1.92920  -1.17657  -1.10064  -1.09525
 Alpha  occ. eigenvalues --   -1.07337  -1.05774  -1.04668  -1.03940  -1.01933
 Alpha  occ. eigenvalues --   -0.94360  -0.88985  -0.88741  -0.88700  -0.87584
 Alpha  occ. eigenvalues --   -0.87120  -0.85929  -0.84405  -0.83655  -0.82935
 Alpha  occ. eigenvalues --   -0.81908  -0.80712  -0.80370  -0.78092  -0.77409
 Alpha  occ. eigenvalues --   -0.76969  -0.75987  -0.75712  -0.73632  -0.72276
 Alpha  occ. eigenvalues --   -0.69508  -0.68498  -0.68455  -0.67186  -0.66332
 Alpha  occ. eigenvalues --   -0.65387  -0.64770  -0.64241  -0.62834  -0.60546
 Alpha  occ. eigenvalues --   -0.60175  -0.59634  -0.59208  -0.59046  -0.58083
 Alpha  occ. eigenvalues --   -0.56525  -0.55804  -0.55332  -0.55103  -0.53868
 Alpha  occ. eigenvalues --   -0.53574  -0.53219  -0.52815  -0.52626  -0.52299
 Alpha  occ. eigenvalues --   -0.51852  -0.51464  -0.51241  -0.50840  -0.50629
 Alpha  occ. eigenvalues --   -0.50172  -0.49852  -0.49766  -0.49373  -0.49018
 Alpha  occ. eigenvalues --   -0.48835  -0.48457  -0.47962  -0.47366  -0.47248
 Alpha  occ. eigenvalues --   -0.47027  -0.46620  -0.46419  -0.46367  -0.46043
 Alpha  occ. eigenvalues --   -0.45805  -0.45305  -0.45098  -0.44738  -0.44615
 Alpha  occ. eigenvalues --   -0.43870  -0.43788  -0.43354  -0.43274  -0.42961
 Alpha  occ. eigenvalues --   -0.42608  -0.42520  -0.42205  -0.41567  -0.41342
 Alpha  occ. eigenvalues --   -0.41208  -0.41035  -0.40525  -0.40325  -0.39417
 Alpha  occ. eigenvalues --   -0.38508  -0.37825  -0.37664  -0.37155  -0.36974
 Alpha  occ. eigenvalues --   -0.36601  -0.35518  -0.35071  -0.33428  -0.31462
 Alpha  occ. eigenvalues --   -0.30464  -0.30048  -0.29941  -0.29534  -0.24339
 Alpha  occ. eigenvalues --   -0.22053
 Alpha virt. eigenvalues --   -0.09607  -0.02496  -0.00095   0.01408   0.02582
 Alpha virt. eigenvalues --    0.04283   0.05137   0.05490   0.07284   0.07704
 Alpha virt. eigenvalues --    0.08175   0.08992   0.09459   0.09877   0.10184

 Mulliken charges:
               1
     1  Mg   0.805908
     2  C   -0.033417
     3  C   -0.131301
     4  C   -0.099719
     5  C   -0.106438
     6  N   -0.300640
     7  C   -0.003715
     8  C    0.007820
     9  C   -0.102157
    10  C    0.107941
    11  C    0.079893
    12  C    0.044297
    13  C   -0.042656
    14  H    0.028451
    15  N   -0.343557
    16  C    0.143095
    17  C   -0.165514
    18  C   -0.041449
    19  C    0.170832
    20  C    0.134507
    21  C   -0.017078
    22  O   -0.247019
    23  C    0.048530
    24  N   -0.412992
    25  C    0.121265
    26  C   -0.037711
    27  C   -0.062249
    28  C    0.095642
    29  C    0.108192
    30  C    0.013393
    31  C    0.034651
    32  N   -0.304053
    33  C    0.137928
    34  C   -0.170135
    35  C    0.080897
    36  C    0.123222
    37  C    0.138032
    38  C   -0.058129
    39  O   -0.175955
    40  C   -0.000852
    41  C    0.188416
    42  O   -0.181405
    43  O   -0.329035
    44  C    0.162200
    45  H   -0.027933
    46  H   -0.040151
    47  H   -0.015467
    48  H    0.004170
    49  H    0.016969
    50  H    0.016210
    51  H    0.020707
    52  H    0.021732
    53  H    0.019892
    54  H    0.023033
    55  H    0.026614
    56  H    0.021252
    57  H    0.045524
    58  H    0.040845
    59  H    0.008362
    60  H    0.046208
    61  H    0.030837
    62  H    0.024773
    63  H    0.006342
    64  H    0.003775
    65  H    0.027420
    66  H    0.021559
    67  H   -0.005291
    68  H    0.000514
    69  H    0.012358
    70  H    0.013845
    71  H    0.012448
    72  H    0.020655
    73  H    0.032748
    74  H    0.002524
    75  H    0.040462
    76  H    0.015181
    77  H    0.028749
    78  H    0.030540
    79  H    0.044660
 Sum of Mulliken charges =  -0.00000

 Dipole moment (field-independent basis, Debye):
    X=             -1.6863    Y=              1.1685    Z=             -0.6995  Tot=              2.1676
 Quadrupole moment (field-independent basis, Debye-Ang):
   XX=           -272.3432   YY=           -253.3295   ZZ=           -255.9985
   XY=            -52.0156   XZ=              9.1598   YZ=              4.6294

 Normal termination of Gaussian 16 at Fri Oct  8 18:48:36 2021.
