 Gaussian 16, Revision A.03,
 Gaussian 16:  ES64L-G16RevA.03 25-Dec-2016

 -----------------------------------
 #p cam-b3lyp/Def2SVP td=(nstates=5)
 -----------------------------------

 --------------------------------
 TDDFT excited states in gaussian
 --------------------------------
 Symbolic Z-matrix:
 Charge =  0 Multiplicity = 1

                         Standard orientation:
 ---------------------------------------------------------------------
 Center     Atomic      Atomic             Coordinates (Angstroms)
 Number     Number       Type             X           Y           Z
 ---------------------------------------------------------------------
      1         12           0      -22.814482    0.545588    0.244534
      2          6           0      -21.596944   -2.412356   -1.174203
      3          6           0      -21.473421    2.330479   -2.343193
      4          6           0      -23.696654    3.318544    1.817328
      5          6           0      -23.998065   -1.423072    2.983134
      6          7           0      -21.617296   -0.012845   -1.534983
      7          6           0      -21.277718   -1.268729   -1.986800
      8          6           0      -20.754467   -1.198455   -3.409553
      9          6           0      -20.477332    0.343922   -3.609922
     10          6           0      -21.341829    0.914967   -2.434634
     11          6           0      -19.006916    0.721781   -3.484143
     12          6           0      -21.738476   -1.946408   -4.381237
     13          6           0      -21.395755   -1.744235   -5.883366
     14          1           0      -19.935956   -1.528770   -6.224693
     15          7           0      -22.633455    2.478757   -0.196584
     16          6           0      -21.954244    3.054463   -1.262914
     17          6           0      -21.969295    4.526015   -1.188782
     18          6           0      -22.666789    4.794714    0.028998
     19          6           0      -23.019356    3.499032    0.603507
     20          6           0      -21.400007    5.398890   -2.243640
     21          6           0      -22.958184    6.157280    0.602992
     22          8           0      -23.622849    6.306343    1.665680
     23          6           0      -22.536314    7.412563   -0.111406
     24          7           0      -23.780423    0.887565    2.129637
     25          6           0      -24.012320    2.146602    2.501899
     26          6           0      -24.595701    2.187616    3.982476
     27          6           0      -24.659004    0.611496    4.390869
     28          6           0      -24.104491   -0.017482    3.111954
     29          6           0      -23.628824    3.064130    4.879566
     30          6           0      -26.123766    0.061669    4.665300
     31          6           0      -26.659523    0.254553    6.113059
     32          7           0      -22.773844   -1.437370    0.866432
     33          6           0      -23.387684   -2.138172    1.938025
     34          6           0      -23.145755   -3.637931    1.772326
     35          6           0      -22.390101   -3.791513    0.614351
     36          6           0      -22.261974   -2.420154    0.058631
     37          6           0      -23.650924   -4.749568    2.637759
     38          6           0      -21.768025   -4.723598   -0.296650
     39          8           0      -21.658130   -5.953611   -0.277000
     40          6           0      -21.375604   -3.881230   -1.609876
     41          6           0      -19.968389   -4.161028   -2.085569
     42          8           0      -18.994078   -3.588362   -1.678078
     43          8           0      -19.972269   -4.998469   -3.223936
     44          6           0      -18.764320   -5.000622   -4.062731
     45          1           0      -20.952479    2.756487   -3.203610
     46          1           0      -23.971462    4.237954    2.338798
     47          1           0      -24.239249   -2.069842    3.829401
     48          1           0      -19.818510   -1.754788   -3.440551
     49          1           0      -20.870256    0.777325   -4.530203
     50          1           0      -18.751273    1.218637   -4.419907
     51          1           0      -18.439642   -0.177041   -3.243533
     52          1           0      -18.838978    1.535342   -2.778844
     53          1           0      -22.704009   -1.671555   -3.957759
     54          1           0      -21.633065   -3.002741   -4.136246
     55          1           0      -21.999033   -0.878648   -6.157220
     56          1           0      -21.731238   -2.627729   -6.426309
     57          1           0      -20.587586    5.899586   -1.717255
     58          1           0      -22.130784    6.078848   -2.680688
     59          1           0      -20.921276    4.947152   -3.113406
     60          1           0      -23.062271    7.470509   -1.063367
     61          1           0      -21.465205    7.212893   -0.161522
     62          1           0      -22.651090    8.346092    0.438760
     63          1           0      -25.582449    2.607055    3.782437
     64          1           0      -23.916461    0.244795    5.100848
     65          1           0      -22.753561    3.450456    4.357577
     66          1           0      -23.258419    2.468763    5.714526
     67          1           0      -24.210906    3.941599    5.159669
     68          1           0      -26.271399   -0.940969    4.265039
     69          1           0      -26.782968    0.664622    4.041643
     70          1           0      -27.602885    0.792601    6.026905
     71          1           0      -25.891419    0.756696    6.701395
     72          1           0      -26.872921   -0.696976    6.600625
     73          1           0      -24.437805   -5.242856    2.066743
     74          1           0      -24.021620   -4.352994    3.583738
     75          1           0      -22.957831   -5.550842    2.893201
     76          1           0      -22.112411   -4.147703   -2.367087
     77          1           0      -18.056701   -5.632983   -3.527205
     78          1           0      -18.451439   -3.982029   -4.293128
     79          1           0      -19.061229   -5.432640   -5.018027
     80         12           0       22.898694    0.491322   -0.283437
     81          6           0       21.078176   -2.443479    0.399278
     82          6           0       19.874764    1.917952   -1.239671
     83          6           0       24.416455    3.444270   -0.544326
     84          6           0       25.522861   -0.841760    1.555050
     85          7           0       20.700483   -0.204334   -0.226170
     86          6           0       20.174550   -1.467939   -0.040186
     87          6           0       18.767558   -1.669212   -0.562581
     88          6           0       18.390240   -0.272300   -1.110760
     89          6           0       19.689605    0.558161   -0.850538
     90          6           0       17.952069   -0.264378   -2.631450
     91          6           0       17.684020   -2.178982    0.489190
     92          6           0       17.847685   -1.752170    1.957063
     93          1           0       16.913676   -0.635425    2.510310
     94          7           0       22.247536    2.367704   -0.815302
     95          6           0       21.000060    2.740272   -1.228492
     96          6           0       21.012658    4.146919   -1.654125
     97          6           0       22.347690    4.616756   -1.460079
     98          6           0       23.073083    3.436177   -0.898296
     99          6           0       19.791564    4.872857   -2.206134
    100          6           0       22.673769    6.132813   -1.730939
    101          8           0       21.753638    6.865332   -2.066836
    102          6           0       24.136569    6.693294   -1.479700
    103          7           0       24.626181    1.212612    0.507708
    104          6           0       25.149119    2.446371    0.127157
    105          6           0       26.669458    2.625889    0.691757
    106          6           0       26.852218    1.223639    1.489578
    107          6           0       25.590478    0.497391    1.150304
    108          6           0       27.709510    2.849412   -0.445293
    109          6           0       27.046662    1.357090    3.060764
    110          6           0       28.236542    0.648461    3.726373
    111          7           0       23.328816   -1.335515    0.684429
    112          6           0       24.415352   -1.760502    1.405177
    113          6           0       24.141573   -3.123707    1.906843
    114          6           0       22.853023   -3.452337    1.406777
    115          6           0       22.406035   -2.292490    0.714246
    116          6           0       25.021478   -3.977684    2.777084
    117          6           0       21.822375   -4.506603    1.452870
    118          8           0       21.824393   -5.668328    1.885597
    119          6           0       20.695995   -3.930573    0.607730
    120          6           0       20.458552   -4.675637   -0.582524
    121          8           0       21.186818   -4.554927   -1.601525
    122          8           0       19.319622   -5.496119   -0.460062
    123          6           0       18.845277   -6.201451   -1.646349
    124          1           0       18.997970    2.365756   -1.711379
    125          1           0       24.988572    4.348135   -0.761866
    126          1           0       26.413795   -1.208908    2.067888
    127          1           0       18.910895   -2.417676   -1.340991
    128          1           0       17.669063    0.132848   -0.401851
    129          1           0       16.887357   -0.041593   -2.700589
    130          1           0       18.171334   -1.262958   -3.010372
    131          1           0       18.489776    0.497352   -3.196998
    132          1           0       17.841417   -3.257378    0.444496
    133          1           0       16.686967   -1.949860    0.112343
    134          1           0       18.873319   -1.437863    2.153259
    135          1           0       17.735124   -2.638329    2.580288
    136          1           0       19.309024    5.553747   -1.504926
    137          1           0       19.127059    4.182699   -2.726107
    138          1           0       20.063553    5.487537   -3.064029
    139          1           0       24.826072    5.998363   -1.959630
    140          1           0       24.288599    6.731275   -0.401351
    141          1           0       24.252864    7.750923   -1.716338
    142          1           0       26.668863    3.559882    1.252892
    143          1           0       27.683434    0.698547    1.018440
    144          1           0       28.134857    1.877060   -0.692836
    145          1           0       28.453935    3.605509   -0.195527
    146          1           0       27.290564    3.282567   -1.353418
    147          1           0       26.105158    1.048627    3.516341
    148          1           0       27.189782    2.432475    3.166351
    149          1           0       28.085294    0.512214    4.797549
    150          1           0       29.055121    1.340282    3.529127
    151          1           0       28.303700   -0.305317    3.202599
    152          1           0       25.628404   -3.257125    3.324632
    153          1           0       25.654928   -4.477033    2.043969
    154          1           0       24.501929   -4.734214    3.365896
    155          1           0       19.855738   -3.998569    1.298352
    156          1           0       19.497622   -6.964940   -2.070260
    157          1           0       18.616632   -5.486497   -2.437251
    158          1           0       17.846559   -6.566328   -1.405942
 ---------------------------------------------------------------------

 SCF Done:  E(RCAM-B3LYP) =  -4069.81472700     A.U. after   17 cycles

 Excitation energies and oscillator strengths:

 Excited State   1:      Singlet-A      1.7141 eV  723.33 nm  f=0.3107  <S**2>=0.000
     310 -> 315        0.19852
     312 -> 314        0.67687
     310 <- 315        0.11108
 This state for optimization and/or second-order correction.
 Total Energy, E(TD-HF/TD-DFT) =  -4069.75173584
 Copying the excited state density for this state as the 1-particle RhoCI density.

 Excited State   2:      Singlet-A      1.7180 eV  721.69 nm  f=0.4470  <S**2>=0.000
     309 -> 316        0.18057
     311 -> 313        0.68155
     309 <- 316        0.10736

 Excited State   3:      Singlet-A      2.2903 eV  541.35 nm  f=0.0345  <S**2>=0.000
     310 -> 314        0.58794
     312 -> 315       -0.38621

 Excited State   4:      Singlet-A      2.3104 eV  536.64 nm  f=0.0714  <S**2>=0.000
     309 -> 313        0.61632
     311 -> 316       -0.33582

 Excited State   5:      Singlet-A      3.1226 eV  397.05 nm  f=0.0000  <S**2>=0.000
     312 -> 313        0.70711

 The electronic state is 1-A.
 Alpha  occ. eigenvalues --  -46.88931 -46.88065 -19.25795 -19.23972 -19.20295
 Alpha  occ. eigenvalues --  -19.20239 -19.19620 -19.19196 -19.19178 -19.18386
 Alpha  occ. eigenvalues --  -14.42642 -14.42145 -14.42087 -14.41554 -14.39963
 Alpha  occ. eigenvalues --  -14.39946 -14.39871 -14.39319 -10.40026 -10.39415
 Alpha  occ. eigenvalues --  -10.36499 -10.35529 -10.35354 -10.35241 -10.32118
 Alpha  occ. eigenvalues --  -10.31883 -10.31755 -10.31353 -10.30940 -10.30910
 Alpha  occ. eigenvalues --  -10.30749 -10.30642 -10.30606 -10.30589 -10.30360
 Alpha  occ. eigenvalues --  -10.30351 -10.30309 -10.30108 -10.30093 -10.29844
 Alpha  occ. eigenvalues --  -10.29616 -10.29472 -10.29304 -10.29221 -10.29099
 Alpha  occ. eigenvalues --  -10.29002 -10.28536 -10.28468 -10.28375 -10.28311
 Alpha  occ. eigenvalues --  -10.28310 -10.28309 -10.28292 -10.28185 -10.28134
 Alpha  occ. eigenvalues --  -10.28035 -10.27764 -10.27746 -10.27734 -10.27703
 Alpha  occ. eigenvalues --  -10.27607 -10.27570 -10.27473 -10.27393 -10.27158
 Alpha  occ. eigenvalues --  -10.27157 -10.27145 -10.26899 -10.26800 -10.26736
 Alpha  occ. eigenvalues --  -10.26663 -10.26614 -10.26589 -10.26574 -10.26436
 Alpha  occ. eigenvalues --  -10.26430 -10.26215 -10.26059 -10.25981 -10.25862
 Alpha  occ. eigenvalues --  -10.25760 -10.25563 -10.25463 -10.25392 -10.25178
 Alpha  occ. eigenvalues --  -10.25145  -3.17557  -3.16748  -1.92415  -1.92028
 Alpha  occ. eigenvalues --   -1.91862  -1.91652  -1.91188  -1.91078  -1.15471
 Alpha  occ. eigenvalues --   -1.14975  -1.10421  -1.09110  -1.09059  -1.07800
 Alpha  occ. eigenvalues --   -1.07770  -1.07025  -1.04323  -1.04151  -1.03551
 Alpha  occ. eigenvalues --   -1.03462  -1.02793  -1.02617  -1.01884  -1.01371
 Alpha  occ. eigenvalues --   -0.93137  -0.91601  -0.89169  -0.88908  -0.88851
 Alpha  occ. eigenvalues --   -0.88572  -0.88053  -0.87823  -0.87559  -0.86810
 Alpha  occ. eigenvalues --   -0.86720  -0.86316  -0.86084  -0.85566  -0.84528
 Alpha  occ. eigenvalues --   -0.84243  -0.83918  -0.82933  -0.82804  -0.82186
 Alpha  occ. eigenvalues --   -0.81925  -0.81666  -0.81013  -0.80750  -0.80087
 Alpha  occ. eigenvalues --   -0.79997  -0.78958  -0.78172  -0.77413  -0.77222
 Alpha  occ. eigenvalues --   -0.76971  -0.76775  -0.76525  -0.75757  -0.74908
 Alpha  occ. eigenvalues --   -0.74538  -0.72336  -0.72062  -0.71754  -0.71464
 Alpha  occ. eigenvalues --   -0.69406  -0.69297  -0.68914  -0.68609  -0.68437
 Alpha  occ. eigenvalues --   -0.68270  -0.67059  -0.66815  -0.65783  -0.65505
 Alpha  occ. eigenvalues --   -0.65191  -0.65123  -0.64582  -0.64204  -0.63938
 Alpha  occ. eigenvalues --   -0.63759  -0.62444  -0.61260  -0.60631  -0.60236
 Alpha  occ. eigenvalues --   -0.59627  -0.59489  -0.59069  -0.58691  -0.58656
 Alpha  occ. eigenvalues --   -0.57790  -0.57744  -0.57506  -0.57188  -0.56767
 Alpha  occ. eigenvalues --   -0.56146  -0.56146  -0.55942  -0.55607  -0.54951
 Alpha  occ. eigenvalues --   -0.54516  -0.54434  -0.54233  -0.54196  -0.53948
 Alpha  occ. eigenvalues --   -0.53768  -0.53676  -0.53239  -0.53088  -0.52619
 Alpha  occ. eigenvalues --   -0.52505  -0.52346  -0.52203  -0.52129  -0.51894
 Alpha  occ. eigenvalues --   -0.51742  -0.51566  -0.51432  -0.51190  -0.51150
 Alpha  occ. eigenvalues --   -0.50950  -0.50825  -0.50713  -0.50475  -0.50304
 Alpha  occ. eigenvalues --   -0.50057  -0.49983  -0.49529  -0.49421  -0.49362
 Alpha  occ. eigenvalues --   -0.49354  -0.49314  -0.49260  -0.48998  -0.48968
 Alpha  occ. eigenvalues --   -0.48875  -0.48575  -0.48497  -0.48350  -0.48140
 Alpha  occ. eigenvalues --   -0.48101  -0.48048  -0.47379  -0.47369  -0.47204
 Alpha  occ. eigenvalues --   -0.46870  -0.46614  -0.46451  -0.46241  -0.46173
 Alpha  occ. eigenvalues --   -0.46163  -0.46068  -0.45772  -0.45724  -0.45588
 Alpha  occ. eigenvalues --   -0.45384  -0.45199  -0.45153  -0.44970  -0.44849
 Alpha  occ. eigenvalues --   -0.44791  -0.44642  -0.44613  -0.44557  -0.44183
 Alpha  occ. eigenvalues --   -0.44171  -0.43984  -0.43925  -0.43460  -0.43229
 Alpha  occ. eigenvalues --   -0.43115  -0.43063  -0.43033  -0.42930  -0.42888
 Alpha  occ. eigenvalues --   -0.42678  -0.42544  -0.42393  -0.42334  -0.42261
 Alpha  occ. eigenvalues --   -0.42098  -0.42093  -0.41563  -0.41507  -0.41278
 Alpha  occ. eigenvalues --   -0.41064  -0.40903  -0.40607  -0.40324  -0.40274
 Alpha  occ. eigenvalues --   -0.40178  -0.39857  -0.39698  -0.39219  -0.39067
 Alpha  occ. eigenvalues --   -0.38903  -0.38492  -0.38213  -0.37979  -0.37644
 Alpha  occ. eigenvalues --   -0.37512  -0.37078  -0.37011  -0.36643  -0.36626
 Alpha  occ. eigenvalues --   -0.36267  -0.35885  -0.34756  -0.34529  -0.34408
 Alpha  occ. eigenvalues --   -0.34136  -0.33196  -0.33168  -0.31413  -0.31307
 Alpha  occ. eigenvalues --   -0.31201  -0.30977  -0.30923  -0.30505  -0.30481
 Alpha  occ. eigenvalues --   -0.30262  -0.30022  -0.29600  -0.24139  -0.23976
 Alpha  occ. eigenvalues --   -0.20828  -0.20420
 Alpha virt. eigenvalues --   -0.08182  -0.07879  -0.02130  -0.01804  -0.00203
 Alpha virt. eigenvalues --    0.00279   0.01653   0.02054   0.02178   0.03269
 Alpha virt. eigenvalues --    0.03440   0.04497   0.04962   0.05038   0.05225

 Mulliken charges:
               1
     1  Mg   0.842087
     2  C   -0.020554
     3  C   -0.090099
     4  C   -0.079621
     5  C   -0.078340
     6  N   -0.250709
     7  C   -0.044703
     8  C   -0.012987
     9  C   -0.082155
    10  C   -0.014492
    11  C    0.091561
    12  C    0.015921
    13  C   -0.044473
    14  H    0.032147
    15  N   -0.411445
    16  C    0.200982
    17  C   -0.144021
    18  C   -0.033951
    19  C    0.153114
    20  C    0.122200
    21  C   -0.007222
    22  O   -0.241921
    23  C    0.080566
    24  N   -0.275367
    25  C    0.019543
    26  C   -0.035734
    27  C    0.002849
    28  C    0.012028
    29  C    0.060819
    30  C    0.002624
    31  C    0.023779
    32  N   -0.368233
    33  C    0.111829
    34  C   -0.177362
    35  C    0.032699
    36  C    0.112089
    37  C    0.110962
    38  C    0.072020
    39  O   -0.179435
    40  C   -0.071635
    41  C    0.225342
    42  O   -0.190688
    43  O   -0.375628
    44  C    0.183821
    45  H   -0.034866
    46  H   -0.005888
    47  H   -0.023956
    48  H    0.008525
    49  H    0.003673
    50  H    0.006433
    51  H    0.036707
    52  H    0.014644
    53  H    0.016679
    54  H    0.015046
    55  H    0.036672
    56  H    0.035923
    57  H    0.032161
    58  H    0.035693
    59  H    0.012019
    60  H    0.044594
    61  H    0.019933
    62  H    0.028105
    63  H    0.024696
    64  H    0.018542
    65  H    0.031728
    66  H    0.016265
    67  H    0.027671
    68  H    0.011360
    69  H   -0.004942
    70  H    0.019975
    71  H    0.018637
    72  H    0.014666
    73  H    0.037878
    74  H    0.005627
    75  H    0.037471
    76  H    0.063009
    77  H    0.049878
    78  H    0.033268
    79  H    0.033971
    80  Mg   0.851601
    81  C   -0.100109
    82  C   -0.078299
    83  C   -0.099242
    84  C   -0.088950
    85  N   -0.279382
    86  C   -0.081197
    87  C   -0.019314
    88  C   -0.002816
    89  C   -0.000115
    90  C    0.073891
    91  C    0.027071
    92  C   -0.064898
    93  H    0.020897
    94  N   -0.362104
    95  C    0.140197
    96  C   -0.140687
    97  C   -0.078378
    98  C    0.187252
    99  C    0.142646
   100  C    0.026510
   101  O   -0.197154
   102  C    0.035345
   103  N   -0.347387
   104  C    0.055829
   105  C   -0.054206
   106  C   -0.028383
   107  C    0.061084
   108  C    0.055234
   109  C    0.021391
   110  C    0.018570
   111  N   -0.317878
   112  C    0.107216
   113  C   -0.195285
   114  C   -0.057875
   115  C    0.233620
   116  C    0.136018
   117  C    0.071835
   118  O   -0.182052
   119  C    0.008131
   120  C    0.252102
   121  O   -0.249983
   122  O   -0.351326
   123  C    0.193052
   124  H   -0.033207
   125  H   -0.057992
   126  H   -0.041236
   127  H    0.023636
   128  H    0.018851
   129  H    0.021271
   130  H    0.018762
   131  H    0.026143
   132  H    0.015724
   133  H    0.022988
   134  H    0.041892
   135  H    0.033146
   136  H    0.040395
   137  H    0.001787
   138  H    0.020817
   139  H    0.054661
   140  H    0.038703
   141  H    0.026057
   142  H    0.018358
   143  H    0.011701
   144  H    0.016646
   145  H    0.015996
   146  H    0.011097
   147  H    0.024251
   148  H    0.000202
   149  H    0.028364
   150  H    0.019640
   151  H    0.018978
   152  H    0.013668
   153  H    0.031451
   154  H    0.042876
   155  H    0.030583
   156  H    0.050927
   157  H    0.016612
   158  H    0.033784
 Sum of Mulliken charges =  -0.00000

 Dipole moment (field-independent basis, Debye):
    X=              0.5469    Y=              4.9820    Z=             -4.2748  Tot=              6.5874
 Quadrupole moment (field-independent basis, Debye-Ang):
   XX=           -394.7734   YY=           -569.2699   ZZ=           -484.5506
   XY=             13.2213   XZ=             49.7525   YZ=              3.8594

 Normal termination of Gaussian 16 at Wed Sep  1 19:46:23 2021.
