 Gaussian 16, Revision A.03,
 Gaussian 16:  ES64L-G16RevA.03 25-Dec-2016

 -----------------------------------
 #p cam-b3lyp/Def2SVP td=(nstates=5)
 -----------------------------------

 --------------------------------
 TDDFT excited states in gaussian
 --------------------------------
 Symbolic Z-matrix:
 Charge =  0 Multiplicity = 1

                         Standard orientation:
 ---------------------------------------------------------------------
 Center     Atomic      Atomic             Coordinates (Angstroms)
 Number     Number       Type             X           Y           Z
 ---------------------------------------------------------------------
      1         12           0       21.222614    0.184358    0.448903
      2          6           0       18.342899   -1.619435    0.302677
      3          6           0       23.010879   -2.756431   -0.364951
      4          6           0       23.798231    2.111856   -0.448390
      5          6           0       19.281806    3.216589    0.734311
      6          7           0       20.698455   -1.890670    0.060205
      7          6           0       19.531151   -2.443056    0.028672
      8          6           0       19.587058   -4.011171   -0.026306
      9          6           0       21.122479   -4.357641    0.055006
     10          6           0       21.713751   -2.910052   -0.055202
     11          6           0       21.554611   -5.266212    1.206785
     12          6           0       18.788648   -4.614970   -1.328181
     13          6           0       18.580639   -3.717496   -2.537327
     14          1           0       18.258297   -4.318562   -3.905422
     15          7           0       23.135352   -0.275421   -0.311591
     16          6           0       23.706530   -1.509431   -0.509991
     17          6           0       24.996502   -1.353413   -1.026730
     18          6           0       25.267395    0.066760   -1.111436
     19          6           0       24.017772    0.724270   -0.646278
     20          6           0       25.907583   -2.551503   -1.221468
     21          6           0       26.594330    0.665633   -1.611849
     22          8           0       27.493419   -0.128011   -1.969853
     23          6           0       26.897540    2.064219   -1.709149
     24          7           0       21.468500    2.424367    0.018426
     25          6           0       22.682674    2.871590   -0.133304
     26          6           0       22.774757    4.421914   -0.050887
     27          6           0       21.337201    4.784418    0.381550
     28          6           0       20.574063    3.399000    0.420044
     29          6           0       23.780481    4.930443    0.917939
     30          6           0       20.654420    5.869325   -0.577745
     31          6           0       20.405691    7.300692    0.053466
     32          7           0       19.251722    0.761922    0.627092
     33          6           0       18.587036    1.986229    0.770836
     34          6           0       17.122409    1.719103    0.918787
     35          6           0       17.020353    0.338644    0.695585
     36          6           0       18.322983   -0.204899    0.489169
     37          6           0       16.039075    2.653184    1.159612
     38          6           0       16.058044   -0.657254    0.567492
     39          8           0       14.822629   -0.675226    0.669781
     40          6           0       16.859017   -1.980012    0.402441
     41          6           0       16.434107   -2.944127    1.535497
     42          8           0       16.023448   -4.086624    1.423217
     43          8           0       16.569114   -2.373189    2.782535
     44          6           0       16.161593   -3.172466    3.944142
     45          1           0       23.465363   -3.703319   -0.663257
     46          1           0       24.646708    2.787744   -0.572119
     47          1           0       18.727498    4.121640    0.990943
     48          1           0       19.192745   -4.361118    0.928088
     49          1           0       21.484712   -4.835520   -0.855755
     50          1           0       22.199260   -4.711758    1.888496
     51          1           0       22.128155   -6.126729    0.860377
     52          1           0       20.746487   -5.732318    1.770579
     53          1           0       17.863187   -4.958493   -0.865394
     54          1           0       19.272590   -5.459012   -1.820071
     55          1           0       19.520149   -3.168599   -2.596086
     56          1           0       17.819256   -3.000274   -2.230222
     57          1           0       26.880067   -2.579693   -0.729272
     58          1           0       26.018788   -2.732176   -2.290879
     59          1           0       25.395455   -3.444942   -0.864789
     60          1           0       26.892522    2.651446   -0.791040
     61          1           0       26.116812    2.583063   -2.264448
     62          1           0       27.799926    2.277769   -2.281185
     63          1           0       23.044012    4.977861   -0.948859
     64          1           0       21.269443    5.112061    1.419001
     65          1           0       24.692792    5.325593    0.471394
     66          1           0       24.205974    4.109629    1.496388
     67          1           0       23.335633    5.694270    1.555522
     68          1           0       19.651407    5.516643   -0.821721
     69          1           0       21.236969    6.117102   -1.464039
     70          1           0       20.732670    8.069667   -0.645309
     71          1           0       21.076208    7.410076    0.905937
     72          1           0       19.323587    7.371007    0.165498
     73          1           0       16.495384    3.446610    1.751984
     74          1           0       15.244218    2.179842    1.737139
     75          1           0       15.636692    2.910667    0.180319
     76          1           0       16.497530   -2.601648   -0.416379
     77          1           0       15.913790   -2.490965    4.758151
     78          1           0       16.894956   -3.844493    4.389559
     79          1           0       15.344176   -3.864032    3.737909
     80         12           0      -20.450615    0.785836    0.407971
     81          6           0      -20.577136   -2.736794    0.468326
     82          6           0      -17.494997    0.524072   -1.266234
     83          6           0      -20.703780    4.116576   -0.315586
     84          6           0      -23.775175    0.710812    1.689256
     85          7           0      -19.233849   -0.952513   -0.451937
     86          6           0      -19.357253   -2.288276   -0.197064
     87          6           0      -18.304054   -3.124233   -0.944613
     88          6           0      -17.208839   -1.960362   -1.113225
     89          6           0      -18.027562   -0.706692   -0.929930
     90          6           0      -16.017219   -2.007454   -0.119568
     91          6           0      -18.780785   -3.679412   -2.361610
     92          6           0      -18.100555   -4.912938   -2.935028
     93          1           0      -17.180932   -4.844113   -4.172801
     94          7           0      -19.258120    2.241469   -0.632549
     95          6           0      -18.023253    1.915182   -1.113027
     96          6           0      -17.317221    3.055447   -1.500107
     97          6           0      -18.207908    4.158425   -1.216742
     98          6           0      -19.480966    3.560385   -0.724177
     99          6           0      -15.900893    3.060433   -2.062599
    100          6           0      -17.816778    5.600164   -1.450148
    101          8           0      -16.672647    5.867989   -1.899534
    102          6           0      -18.720777    6.821860   -1.059039
    103          7           0      -22.012571    2.134527    0.674230
    104          6           0      -21.855774    3.501241    0.317412
    105          6           0      -22.955520    4.321090    0.932803
    106          6           0      -24.065333    3.295986    1.251766
    107          6           0      -23.256058    1.966986    1.292756
    108          6           0      -22.686767    5.120264    2.227979
    109          6           0      -25.189647    3.224532    0.089483
    110          6           0      -26.327116    4.234331    0.116172
    111          7           0      -21.804180   -0.722617    1.133915
    112          6           0      -23.095259   -0.599853    1.625100
    113          6           0      -23.659255   -1.832842    1.893461
    114          6           0      -22.669214   -2.749585    1.500253
    115          6           0      -21.570418   -2.015711    1.022392
    116          6           0      -25.022757   -2.051609    2.469217
    117          6           0      -22.332277   -4.074304    1.496078
    118          8           0      -22.908896   -5.031062    1.974534
    119          6           0      -21.080539   -4.130863    0.595315
    120          6           0      -21.553325   -4.758349   -0.681993
    121          8           0      -22.432579   -4.319636   -1.356172
    122          8           0      -20.871596   -5.954467   -0.913052
    123          6           0      -21.399978   -6.671210   -2.021232
    124          1           0      -16.459947    0.496839   -1.613890
    125          1           0      -20.756028    5.207555   -0.335550
    126          1           0      -24.734387    0.776251    2.206591
    127          1           0      -17.834009   -3.870832   -0.305368
    128          1           0      -16.779270   -2.086742   -2.106617
    129          1           0      -15.238398   -2.489621   -0.711044
    130          1           0      -16.226422   -2.633179    0.747992
    131          1           0      -15.685959   -1.006624    0.157877
    132          1           0      -18.626633   -2.927104   -3.135212
    133          1           0      -19.862158   -3.801010   -2.295119
    134          1           0      -18.928462   -5.589061   -3.153280
    135          1           0      -17.531501   -5.370298   -2.125804
    136          1           0      -15.220170    3.872693   -1.805546
    137          1           0      -16.158874    2.992014   -3.119161
    138          1           0      -15.345200    2.206129   -1.675928
    139          1           0      -18.873312    6.828710    0.019874
    140          1           0      -19.623312    6.634974   -1.640608
    141          1           0      -18.397322    7.796123   -1.425252
    142          1           0      -23.322423    4.978264    0.145052
    143          1           0      -24.559087    3.502453    2.201404
    144          1           0      -23.219985    4.766250    3.110105
    145          1           0      -22.570851    6.184301    2.020804
    146          1           0      -21.657287    4.864715    2.478401
    147          1           0      -25.556582    2.211126    0.250914
    148          1           0      -24.731381    3.291312   -0.897427
    149          1           0      -26.393883    4.722185   -0.855895
    150          1           0      -26.124294    4.983171    0.882315
    151          1           0      -27.288380    3.746017    0.278326
    152          1           0      -25.502244   -2.790042    1.827290
    153          1           0      -25.649372   -1.160377    2.417357
    154          1           0      -24.996122   -2.447665    3.484514
    155          1           0      -20.344363   -4.769021    1.082875
    156          1           0      -22.153404   -7.377610   -1.673809
    157          1           0      -20.681140   -7.349173   -2.482955
    158          1           0      -21.850548   -6.015207   -2.764088
 ---------------------------------------------------------------------

 SCF Done:  E(RCAM-B3LYP) =  -4069.75386912     A.U. after   19 cycles

 Excitation energies and oscillator strengths:

 Excited State   1:      Singlet-A      1.7056 eV  726.92 nm  f=0.6205  <S**2>=0.000
     309 -> 316       -0.14117
     311 -> 313        0.32663
     312 -> 314        0.60476
 This state for optimization and/or second-order correction.
 Total Energy, E(TD-HF/TD-DFT) =  -4069.69118874
 Copying the excited state density for this state as the 1-particle RhoCI density.

 Excited State   2:      Singlet-A      1.7070 eV  726.35 nm  f=0.2173  <S**2>=0.000
     310 -> 315       -0.16285
     311 -> 313        0.59917
     312 -> 314       -0.32967

 Excited State   3:      Singlet-A      2.1434 eV  578.45 nm  f=0.1298  <S**2>=0.000
     310 -> 313        0.65033
     311 -> 315        0.26017

 Excited State   4:      Singlet-A      2.2508 eV  550.83 nm  f=0.1195  <S**2>=0.000
     309 -> 314        0.64223
     312 -> 316        0.27238

 Excited State   5:      Singlet-A      3.0676 eV  404.18 nm  f=0.0000  <S**2>=0.000
     312 -> 313        0.70710

 The electronic state is 1-A.
 Alpha  occ. eigenvalues --  -46.90337 -46.90310 -19.25387 -19.24921 -19.20918
 Alpha  occ. eigenvalues --  -19.20137 -19.18992 -19.18091 -19.17881 -19.17444
 Alpha  occ. eigenvalues --  -14.43222 -14.43173 -14.42667 -14.41948 -14.40563
 Alpha  occ. eigenvalues --  -14.39845 -14.39817 -14.39202 -10.39745 -10.39694
 Alpha  occ. eigenvalues --  -10.35022 -10.34739 -10.34281 -10.33352 -10.33026
 Alpha  occ. eigenvalues --  -10.32399 -10.32322 -10.31795 -10.31633 -10.31531
 Alpha  occ. eigenvalues --  -10.31291 -10.30981 -10.30937 -10.30775 -10.30763
 Alpha  occ. eigenvalues --  -10.30710 -10.30670 -10.30401 -10.30223 -10.29944
 Alpha  occ. eigenvalues --  -10.29658 -10.29325 -10.29290 -10.29227 -10.29087
 Alpha  occ. eigenvalues --  -10.29050 -10.28830 -10.28492 -10.28445 -10.28320
 Alpha  occ. eigenvalues --  -10.28319 -10.28303 -10.28206 -10.28058 -10.28045
 Alpha  occ. eigenvalues --  -10.27954 -10.27861 -10.27839 -10.27745 -10.27664
 Alpha  occ. eigenvalues --  -10.27585 -10.27546 -10.27446 -10.27407 -10.27330
 Alpha  occ. eigenvalues --  -10.27197 -10.27116 -10.27092 -10.27063 -10.26928
 Alpha  occ. eigenvalues --  -10.26859 -10.26730 -10.26580 -10.26491 -10.26480
 Alpha  occ. eigenvalues --  -10.26427 -10.26365 -10.26177 -10.26081 -10.26029
 Alpha  occ. eigenvalues --  -10.25836 -10.25672 -10.25661 -10.25635 -10.24933
 Alpha  occ. eigenvalues --  -10.24163  -3.18744  -3.18601  -1.93623  -1.93500
 Alpha  occ. eigenvalues --   -1.93233  -1.93049  -1.93011  -1.92899  -1.17635
 Alpha  occ. eigenvalues --   -1.16165  -1.10042  -1.09504  -1.09078  -1.07638
 Alpha  occ. eigenvalues --   -1.07377  -1.07317  -1.05752  -1.05058  -1.04647
 Alpha  occ. eigenvalues --   -1.04534  -1.03919  -1.03665  -1.02273  -1.01914
 Alpha  occ. eigenvalues --   -0.94339  -0.93023  -0.89694  -0.89453  -0.89012
 Alpha  occ. eigenvalues --   -0.88961  -0.88721  -0.88681  -0.88347  -0.87825
 Alpha  occ. eigenvalues --   -0.87563  -0.87099  -0.85908  -0.85320  -0.84671
 Alpha  occ. eigenvalues --   -0.84384  -0.84217  -0.83636  -0.82976  -0.82912
 Alpha  occ. eigenvalues --   -0.82534  -0.81888  -0.81486  -0.80691  -0.80350
 Alpha  occ. eigenvalues --   -0.80294  -0.78505  -0.78071  -0.77420  -0.77389
 Alpha  occ. eigenvalues --   -0.76991  -0.76946  -0.76380  -0.75967  -0.75691
 Alpha  occ. eigenvalues --   -0.75305  -0.73612  -0.73424  -0.72255  -0.71978
 Alpha  occ. eigenvalues --   -0.69590  -0.69488  -0.68946  -0.68480  -0.68434
 Alpha  occ. eigenvalues --   -0.68431  -0.67164  -0.66864  -0.66310  -0.66059
 Alpha  occ. eigenvalues --   -0.65680  -0.65366  -0.64894  -0.64751  -0.64569
 Alpha  occ. eigenvalues --   -0.64220  -0.63361  -0.62813  -0.60925  -0.60524
 Alpha  occ. eigenvalues --   -0.60155  -0.59981  -0.59613  -0.59187  -0.59025
 Alpha  occ. eigenvalues --   -0.58969  -0.58547  -0.58063  -0.58048  -0.57277
 Alpha  occ. eigenvalues --   -0.56505  -0.56354  -0.55783  -0.55641  -0.55627
 Alpha  occ. eigenvalues --   -0.55310  -0.55083  -0.54838  -0.54570  -0.53890
 Alpha  occ. eigenvalues --   -0.53846  -0.53553  -0.53529  -0.53276  -0.53200
 Alpha  occ. eigenvalues --   -0.52902  -0.52795  -0.52620  -0.52606  -0.52278
 Alpha  occ. eigenvalues --   -0.52254  -0.51831  -0.51512  -0.51441  -0.51273
 Alpha  occ. eigenvalues --   -0.51220  -0.50959  -0.50819  -0.50708  -0.50609
 Alpha  occ. eigenvalues --   -0.50289  -0.50153  -0.49925  -0.49831  -0.49747
 Alpha  occ. eigenvalues --   -0.49589  -0.49352  -0.49247  -0.49019  -0.48997
 Alpha  occ. eigenvalues --   -0.48844  -0.48816  -0.48576  -0.48436  -0.48317
 Alpha  occ. eigenvalues --   -0.47939  -0.47678  -0.47429  -0.47344  -0.47226
 Alpha  occ. eigenvalues --   -0.47207  -0.47006  -0.46859  -0.46775  -0.46599
 Alpha  occ. eigenvalues --   -0.46398  -0.46349  -0.46208  -0.46022  -0.45906
 Alpha  occ. eigenvalues --   -0.45784  -0.45745  -0.45282  -0.45271  -0.45079
 Alpha  occ. eigenvalues --   -0.45033  -0.44888  -0.44717  -0.44620  -0.44595
 Alpha  occ. eigenvalues --   -0.44475  -0.43850  -0.43844  -0.43766  -0.43611
 Alpha  occ. eigenvalues --   -0.43335  -0.43254  -0.42941  -0.42714  -0.42688
 Alpha  occ. eigenvalues --   -0.42587  -0.42498  -0.42273  -0.42184  -0.42094
 Alpha  occ. eigenvalues --   -0.42025  -0.41545  -0.41507  -0.41320  -0.41188
 Alpha  occ. eigenvalues --   -0.41012  -0.40973  -0.40871  -0.40736  -0.40507
 Alpha  occ. eigenvalues --   -0.40307  -0.40005  -0.39854  -0.39392  -0.39088
 Alpha  occ. eigenvalues --   -0.38739  -0.38488  -0.38057  -0.37865  -0.37805
 Alpha  occ. eigenvalues --   -0.37643  -0.37133  -0.36950  -0.36881  -0.36581
 Alpha  occ. eigenvalues --   -0.36545  -0.36415  -0.35496  -0.35051  -0.34831
 Alpha  occ. eigenvalues --   -0.34317  -0.34059  -0.33408  -0.31627  -0.31442
 Alpha  occ. eigenvalues --   -0.31098  -0.30937  -0.30443  -0.30192  -0.30028
 Alpha  occ. eigenvalues --   -0.29921  -0.29513  -0.29038  -0.24957  -0.24318
 Alpha  occ. eigenvalues --   -0.22032  -0.21684
 Alpha virt. eigenvalues --   -0.09587  -0.09542  -0.02476  -0.01913  -0.00074
 Alpha virt. eigenvalues --   -0.00045   0.00610   0.01426   0.02196   0.02602
 Alpha virt. eigenvalues --    0.04306   0.04992   0.05159   0.05243   0.05419

 Mulliken charges:
               1
     1  Mg   0.825785
     2  C    0.014955
     3  C   -0.064098
     4  C   -0.034120
     5  C   -0.085224
     6  N   -0.280179
     7  C   -0.033747
     8  C   -0.003289
     9  C   -0.057045
    10  C    0.024079
    11  C    0.073108
    12  C    0.009621
    13  C   -0.045400
    14  H    0.044615
    15  N   -0.376607
    16  C    0.139169
    17  C   -0.133934
    18  C   -0.051315
    19  C    0.178985
    20  C    0.140059
    21  C    0.018684
    22  O   -0.238764
    23  C    0.063180
    24  N   -0.229416
    25  C   -0.016354
    26  C   -0.028430
    27  C    0.002424
    28  C    0.020974
    29  C    0.047839
    30  C    0.001339
    31  C   -0.010169
    32  N   -0.376978
    33  C    0.118810
    34  C   -0.164089
    35  C    0.035763
    36  C    0.123880
    37  C    0.127109
    38  C    0.044590
    39  O   -0.184344
    40  C   -0.043151
    41  C    0.174911
    42  O   -0.212607
    43  O   -0.339377
    44  C    0.178558
    45  H   -0.011517
    46  H   -0.063590
    47  H   -0.026483
    48  H    0.025709
    49  H    0.012389
    50  H    0.017787
    51  H    0.012570
    52  H    0.020243
    53  H    0.032814
    54  H    0.016812
    55  H    0.030191
    56  H    0.016168
    57  H    0.036984
    58  H    0.022636
    59  H   -0.021592
    60  H    0.042198
    61  H    0.019898
    62  H    0.027717
    63  H    0.019242
    64  H    0.008137
    65  H    0.006279
    66  H    0.010272
    67  H    0.018332
    68  H    0.012634
    69  H    0.017235
    70  H    0.010736
    71  H    0.016208
    72  H    0.026525
    73  H    0.022311
    74  H    0.042576
    75  H    0.050613
    76  H    0.029766
    77  H    0.033945
    78  H    0.019732
    79  H    0.044723
    80  Mg   0.815290
    81  C    0.014425
    82  C   -0.065235
    83  C   -0.076275
    84  C   -0.071991
    85  N   -0.233143
    86  C   -0.080862
    87  C    0.006766
    88  C   -0.104042
    89  C    0.065276
    90  C    0.076807
    91  C    0.039659
    92  C   -0.043176
    93  H    0.028264
    94  N   -0.343529
    95  C    0.106396
    96  C   -0.141754
    97  C   -0.040964
    98  C    0.143942
    99  C    0.134035
   100  C   -0.011078
   101  O   -0.242979
   102  C    0.048403
   103  N   -0.357494
   104  C    0.064215
   105  C   -0.039278
   106  C   -0.064032
   107  C    0.055458
   108  C    0.104238
   109  C    0.008797
   110  C    0.034461
   111  N   -0.298981
   112  C    0.103971
   113  C   -0.159989
   114  C    0.083483
   115  C    0.089602
   116  C    0.137611
   117  C   -0.048566
   118  O   -0.168378
   119  C   -0.001926
   120  C    0.189524
   121  O   -0.180571
   122  O   -0.329011
   123  C    0.162236
   124  H   -0.027350
   125  H   -0.039893
   126  H   -0.015075
   127  H    0.002616
   128  H    0.015821
   129  H    0.016429
   130  H    0.021285
   131  H    0.022333
   132  H    0.019970
   133  H    0.022616
   134  H    0.026575
   135  H    0.021126
   136  H    0.045662
   137  H    0.041306
   138  H    0.008777
   139  H    0.046327
   140  H    0.030941
   141  H    0.024810
   142  H    0.004638
   143  H    0.002831
   144  H    0.027575
   145  H    0.021389
   146  H   -0.005814
   147  H    0.000852
   148  H    0.012719
   149  H    0.013746
   150  H    0.012265
   151  H    0.020644
   152  H    0.032750
   153  H    0.002673
   154  H    0.040517
   155  H    0.015313
   156  H    0.028738
   157  H    0.030587
   158  H    0.044696
 Sum of Mulliken charges =  -0.00000

 Dipole moment (field-independent basis, Debye):
    X=              1.1470    Y=              5.2156    Z=              4.1257  Tot=              6.7483
 Quadrupole moment (field-independent basis, Debye-Ang):
   XX=           -513.8106   YY=           -491.4154   ZZ=           -508.0830
   XY=              3.6858   XZ=             59.1312   YZ=             21.0716

 Normal termination of Gaussian 16 at Wed Sep 15 00:15:26 2021.
