 Gaussian 16, Revision A.03,
 Gaussian 16:  ES64L-G16RevA.03 25-Dec-2016

 -----------------------------------------------------------
 #p cam-b3lyp/Def2SVP td=(nstates=5, root=1) density=current
 -----------------------------------------------------------

 --------------------------------
 TDDFT excited states in gaussian
 --------------------------------
 Symbolic Z-matrix:
 Charge =  0 Multiplicity = 1

                         Standard orientation:
 ---------------------------------------------------------------------
 Center     Atomic      Atomic             Coordinates (Angstroms)
 Number     Number       Type             X           Y           Z
 ---------------------------------------------------------------------
      1         12           0       -0.767131    0.041376   -0.025374
      2          6           0        2.733754    0.223436    0.048262
      3          6           0       -0.489085   -3.390371   -0.022642
      4          6           0       -4.062645   -0.103914   -0.126168
      5          6           0       -0.848606    3.550102   -0.183181
      6          7           0        0.949926   -1.353096    0.095432
      7          6           0        2.320690   -1.094220    0.097071
      8          6           0        3.193508   -2.353992    0.477626
      9          6           0        2.142512   -3.429997    0.284427
     10          6           0        0.752369   -2.689343    0.112148
     11          6           0        2.408158   -4.244138   -1.063855
     12          6           0        3.510582   -2.149992    2.025485
     13          6           0        4.982963   -2.503652    2.516523
     14          1           0        5.527291   -3.650106    1.703247
     15          7           0       -2.038529   -1.492968   -0.213205
     16          6           0       -1.771749   -2.795984   -0.204053
     17          6           0       -2.959592   -3.605323   -0.272432
     18          6           0       -4.027378   -2.698477   -0.121954
     19          6           0       -3.395908   -1.328009   -0.208058
     20          6           0       -3.005745   -5.085318   -0.382841
     21          6           0       -5.493938   -2.945527    0.165857
     22          8           0       -6.268052   -2.050325    0.523298
     23          6           0       -6.099131   -4.328970   -0.087953
     24          7           0       -2.247432    1.552597   -0.189899
     25          6           0       -3.563381    1.158198   -0.133497
     26          6           0       -4.436831    2.406213   -0.024339
     27          6           0       -3.391322    3.620747    0.081142
     28          6           0       -2.073118    2.902681   -0.041571
     29          6           0       -5.473209    2.435555   -1.202763
     30          6           0       -3.505687    4.523904    1.299189
     31          6           0       -3.598408    6.042211    0.949447
     32          7           0        0.642972    1.570434   -0.084260
     33          6           0        0.459443    2.986256   -0.170281
     34          6           0        1.715654    3.644875   -0.221643
     35          6           0        2.626881    2.578936   -0.134061
     36          6           0        1.913614    1.362591   -0.105830
     37          6           0        2.053467    5.099315   -0.291808
     38          6           0        4.011214    2.233637   -0.076147
     39          8           0        5.024376    2.890639   -0.127102
     40          6           0        4.106684    0.698930    0.154795
     41          6           0        5.094059    0.129196   -0.797807
     42          8           0        4.973964   -0.002901   -2.012534
     43          8           0        6.140993   -0.276162   -0.072542
     44          6           0        7.209076   -0.949067   -0.781595
     45          1           0       -0.551698   -4.472172    0.111448
     46          1           0       -5.148384   -0.220870   -0.169953
     47          1           0       -0.827433    4.641857   -0.168746
     48          1           0        4.097954   -2.258616   -0.122397
     49          1           0        2.101829   -4.077847    1.159422
     50          1           0        3.271846   -3.868816   -1.613096
     51          1           0        1.522796   -4.159672   -1.693719
     52          1           0        2.545040   -5.271903   -0.727423
     53          1           0        2.868430   -2.740578    2.678229
     54          1           0        3.272028   -1.109453    2.247192
     55          1           0        4.957822   -2.953232    3.509238
     56          1           0        5.577745   -1.604346    2.678549
     57          1           0       -3.404242   -5.453777    0.563412
     58          1           0       -2.009380   -5.506783   -0.508482
     59          1           0       -3.636011   -5.439041   -1.198232
     60          1           0       -7.152870   -4.056955   -0.144650
     61          1           0       -5.875575   -5.060160    0.689787
     62          1           0       -5.902583   -4.790998   -1.055238
     63          1           0       -5.071863    2.462186    0.859754
     64          1           0       -3.502444    4.244617   -0.805823
     65          1           0       -6.428945    2.692447   -0.745813
     66          1           0       -5.519502    1.509308   -1.775584
     67          1           0       -5.342631    3.324001   -1.821720
     68          1           0       -2.705345    4.397636    2.027629
     69          1           0       -4.500399    4.307825    1.691564
     70          1           0       -3.683568    6.185217   -0.127894
     71          1           0       -2.661360    6.560060    1.153069
     72          1           0       -4.452923    6.510281    1.438569
     73          1           0        1.835240    5.415652    0.728571
     74          1           0        1.441249    5.521581   -1.088363
     75          1           0        3.115463    5.273666   -0.458810
     76          1           0        4.572568    0.627075    1.138497
     77          1           0        7.552805   -0.330290   -1.610960
     78          1           0        6.957741   -1.891370   -1.269586
     79          1           0        8.012731   -1.084629   -0.057586
 ---------------------------------------------------------------------

 SCF Done:  E(RCAM-B3LYP) =  -2034.93079811     A.U. after   19 cycles

 Excitation energies and oscillator strengths:

 Excited State   1:      Singlet-A      1.7258 eV  718.40 nm  f=0.3831  <S**2>=0.000
     155 ->158        -0.16135
     156 ->157         0.68777
 This state for optimization and/or second-order correction.
 Total Energy, E(TD-HF/TD-DFT) =  -2034.86737466
 Copying the excited state density for this state as the 1-particle RhoCI density.

 Excited State   2:      Singlet-A      2.2841 eV  542.80 nm  f=0.1221  <S**2>=0.000
     155 ->157         0.63702
     156 ->158         0.28298

 Excited State   3:      Singlet-A      3.4269 eV  361.79 nm  f=0.0220  <S**2>=0.000
     153 ->157         0.15200
     153 ->160        -0.13892
     154 ->157         0.60675
     154 ->159         0.10955
     156 ->158        -0.19485

 Excited State   4:      Singlet-A      3.5288 eV  351.35 nm  f=0.4836  <S**2>=0.000
     152 ->157        -0.17708
     153 ->157        -0.19787
     154 ->157         0.23563
     155 ->157        -0.24752
     156 ->158         0.53758

 Excited State   5:      Singlet-A      3.5428 eV  349.96 nm  f=0.0771  <S**2>=0.000
     153 ->157         0.56830
     153 ->159         0.13988
     153 ->160        -0.16676
     154 ->157        -0.12806
     156 ->158         0.26582

 The electronic state is 1-A.
 Alpha  occ. eigenvalues --  -46.87763 -19.25255 -19.19915 -19.18788 -19.17400
 Alpha  occ. eigenvalues --  -14.42235 -14.41615 -14.40217 -14.38464 -10.38308
 Alpha  occ. eigenvalues --  -10.36231 -10.33149 -10.31899 -10.31360 -10.31008
 Alpha  occ. eigenvalues --  -10.30676 -10.30622 -10.30444 -10.30111 -10.29061
 Alpha  occ. eigenvalues --  -10.29002 -10.28908 -10.28434 -10.28334 -10.27973
 Alpha  occ. eigenvalues --  -10.27823 -10.27545 -10.27523 -10.27520 -10.27140
 Alpha  occ. eigenvalues --  -10.27091 -10.27070 -10.26690 -10.26626 -10.26528
 Alpha  occ. eigenvalues --  -10.26219 -10.26157 -10.26026 -10.25882 -10.25794
 Alpha  occ. eigenvalues --  -10.25704 -10.25419 -10.23578  -3.16473  -1.91383
 Alpha  occ. eigenvalues --   -1.90908  -1.90804  -1.17095  -1.10351  -1.09364
 Alpha  occ. eigenvalues --   -1.07079  -1.04980  -1.03908  -1.02916  -1.02339
 Alpha  occ. eigenvalues --   -0.92646  -0.89639  -0.88477  -0.88416  -0.87972
 Alpha  occ. eigenvalues --   -0.87028  -0.86631  -0.83950  -0.83522  -0.82349
 Alpha  occ. eigenvalues --   -0.81838  -0.81266  -0.80374  -0.78902  -0.77419
 Alpha  occ. eigenvalues --   -0.76760  -0.75595  -0.74974  -0.73097  -0.71400
 Alpha  occ. eigenvalues --   -0.69181  -0.68866  -0.67603  -0.67385  -0.65409
 Alpha  occ. eigenvalues --   -0.65238  -0.65009  -0.64500  -0.62469  -0.60784
 Alpha  occ. eigenvalues --   -0.59589  -0.59134  -0.58624  -0.57760  -0.57295
 Alpha  occ. eigenvalues --   -0.56637  -0.55658  -0.55323  -0.54455  -0.53819
 Alpha  occ. eigenvalues --   -0.53532  -0.53159  -0.52589  -0.52537  -0.52150
 Alpha  occ. eigenvalues --   -0.51767  -0.51310  -0.51029  -0.50729  -0.50407
 Alpha  occ. eigenvalues --   -0.50294  -0.49977  -0.49633  -0.49255  -0.48629
 Alpha  occ. eigenvalues --   -0.48517  -0.48411  -0.47893  -0.47670  -0.47534
 Alpha  occ. eigenvalues --   -0.47173  -0.46735  -0.46557  -0.46389  -0.46072
 Alpha  occ. eigenvalues --   -0.45268  -0.45058  -0.44702  -0.44549  -0.44444
 Alpha  occ. eigenvalues --   -0.44285  -0.43688  -0.43655  -0.43076  -0.42844
 Alpha  occ. eigenvalues --   -0.42608  -0.42341  -0.41933  -0.41568  -0.41110
 Alpha  occ. eigenvalues --   -0.40810  -0.40372  -0.40058  -0.39728  -0.38805
 Alpha  occ. eigenvalues --   -0.38270  -0.37623  -0.37411  -0.36905  -0.36462
 Alpha  occ. eigenvalues --   -0.36304  -0.34234  -0.33839  -0.32802  -0.32260
 Alpha  occ. eigenvalues --   -0.31386  -0.30894  -0.29679  -0.29260  -0.24117
 Alpha  occ. eigenvalues --   -0.21051
 Alpha virt. eigenvalues --   -0.08577  -0.01692   0.00527   0.02820   0.03418
 Alpha virt. eigenvalues --    0.05573   0.05889   0.06414   0.06787   0.08005
 Alpha virt. eigenvalues --    0.08666   0.09030   0.09266   0.09980   0.10301

 Mulliken charges:
               1
     1  Mg   0.830141
     2  C    0.012985
     3  C   -0.110917
     4  C   -0.073346
     5  C   -0.082069
     6  N   -0.296732
     7  C   -0.084251
     8  C   -0.003058
     9  C   -0.048057
    10  C    0.084526
    11  C    0.068379
    12  C    0.038075
    13  C   -0.061347
    14  H    0.018784
    15  N   -0.375583
    16  C    0.133479
    17  C   -0.162906
    18  C   -0.032148
    19  C    0.113872
    20  C    0.129124
    21  C    0.012192
    22  O   -0.223436
    23  C    0.017491
    24  N   -0.329265
    25  C    0.110763
    26  C   -0.062888
    27  C   -0.008194
    28  C    0.070964
    29  C    0.057554
    30  C    0.051235
    31  C   -0.019613
    32  N   -0.322315
    33  C    0.091185
    34  C   -0.185407
    35  C    0.020368
    36  C    0.105530
    37  C    0.135276
    38  C   -0.001828
    39  O   -0.165257
    40  C    0.000427
    41  C    0.159348
    42  O   -0.226719
    43  O   -0.302928
    44  C    0.183423
    45  H   -0.028170
    46  H    0.000836
    47  H   -0.034537
    48  H    0.028825
    49  H    0.016449
    50  H    0.028235
    51  H    0.024781
    52  H    0.018876
    53  H    0.009234
    54  H    0.021066
    55  H    0.020504
    56  H    0.040981
    57  H    0.025732
    58  H    0.013640
    59  H    0.031571
    60  H    0.029461
    61  H    0.039968
    62  H    0.028283
    63  H    0.022071
    64  H    0.015453
    65  H    0.006895
    66  H    0.044578
    67  H    0.003552
    68  H    0.026295
    69  H    0.007549
    70  H    0.002169
    71  H    0.017273
    72  H    0.025432
    73  H    0.032974
    74  H    0.033059
    75  H    0.039096
    76  H    0.037626
    77  H    0.036859
    78  H    0.028149
    79  H    0.038376
 Sum of Mulliken charges =  -0.00000

 Dipole moment (field-independent basis, Debye):
    X=             -1.7835    Y=             -2.5839    Z=              2.1310  Tot=              3.7945
 Quadrupole moment (field-independent basis, Debye-Ang):
   XX=           -272.6370   YY=           -224.8728   ZZ=           -260.0133
   XY=            -26.8091   XZ=             13.8104   YZ=              2.1748

 Normal termination of Gaussian 16 at Tue Oct 12 15:21:34 2021.
