 Gaussian 16, Revision A.03,
 Gaussian 16:  ES64L-G16RevA.03 25-Dec-2016

 -----------------------------------
 #p cam-b3lyp/Def2SVP td=(nstates=5)
 -----------------------------------

 --------------------------------
 TDDFT excited states in gaussian
 --------------------------------
 Symbolic Z-matrix:
 Charge =  0 Multiplicity = 1

                         Standard orientation:
 ---------------------------------------------------------------------
 Center     Atomic      Atomic             Coordinates (Angstroms)
 Number     Number       Type             X           Y           Z
 ---------------------------------------------------------------------
      1         12           0       21.803202   -0.613218    0.429580
      2          6           0       21.813345    2.406049   -1.414294
      3          6           0       22.393618    1.211259    3.299139
      4          6           0       22.079794   -3.535217    2.122814
      5          6           0       21.416892   -2.437331   -2.539053
      6          7           0       22.158934    1.545683    0.768129
      7          6           0       21.900595    2.622171   -0.077137
      8          6           0       22.025391    4.002171    0.689309
      9          6           0       22.478647    3.541794    2.100381
     10          6           0       22.399122    1.998961    2.073085
     11          6           0       23.887498    4.016414    2.619042
     12          6           0       20.786814    4.984090    0.592021
     13          6           0       21.079273    6.322468   -0.015907
     14          1           0       20.308940    7.552085    0.609489
     15          7           0       22.186543   -1.032755    2.390711
     16          6           0       22.338107   -0.169672    3.456948
     17          6           0       22.585077   -0.936098    4.668267
     18          6           0       22.501938   -2.328062    4.381351
     19          6           0       22.219372   -2.361396    2.899204
     20          6           0       22.731297   -0.310947    6.070221
     21          6           0       22.615210   -3.532259    5.310640
     22          8           0       22.437654   -4.679297    4.955461
     23          6           0       22.870948   -3.432786    6.870347
     24          7           0       21.848890   -2.716646   -0.159517
     25          6           0       21.969293   -3.704615    0.717581
     26          6           0       21.893809   -5.114806    0.030720
     27          6           0       21.483355   -4.748529   -1.450360
     28          6           0       21.556911   -3.192480   -1.399511
     29          6           0       23.198221   -5.936720    0.241473
     30          6           0       20.142137   -5.340777   -1.835470
     31          6           0       20.099585   -5.921485   -3.247807
     32          7           0       21.773602   -0.222642   -1.616365
     33          6           0       21.513966   -1.036618   -2.702268
     34          6           0       21.603866   -0.222796   -3.875350
     35          6           0       21.673336    1.128105   -3.453493
     36          6           0       21.784524    1.105101   -2.035225
     37          6           0       21.533768   -0.701907   -5.275679
     38          6           0       21.633284    2.527968   -3.911180
     39          8           0       21.666263    3.042127   -5.025383
     40          6           0       21.691161    3.444146   -2.463104
     41          6           0       22.809106    4.334436   -2.501524
     42          8           0       23.840011    4.174264   -1.884800
     43          8           0       22.508611    5.465648   -3.226117
     44          6           0       23.660409    6.394565   -3.340898
     45          1           0       22.456823    1.753365    4.245161
     46          1           0       22.208390   -4.504432    2.608096
     47          1           0       21.209103   -3.075122   -3.401493
     48          1           0       22.935051    4.446223    0.286473
     49          1           0       21.768178    3.871025    2.858689
     50          1           0       23.763032    4.260748    3.674449
     51          1           0       24.198428    4.878952    2.030102
     52          1           0       24.672947    3.264667    2.538805
     53          1           0       20.398330    5.071882    1.606746
     54          1           0       20.055371    4.501046   -0.056092
     55          1           0       20.814543    6.310835   -1.074024
     56          1           0       22.158422    6.420834    0.098395
     57          1           0       21.848037   -0.639070    6.617055
     58          1           0       22.611302    0.769716    5.990019
     59          1           0       23.613218   -0.612889    6.636517
     60          1           0       22.082950   -2.813037    7.299574
     61          1           0       23.912443   -3.222914    7.115743
     62          1           0       22.868172   -4.468091    7.209962
     63          1           0       21.082945   -5.738396    0.406665
     64          1           0       22.306117   -5.090657   -2.078452
     65          1           0       23.534079   -6.300286   -0.730087
     66          1           0       23.094131   -6.732322    0.979662
     67          1           0       23.977607   -5.288662    0.638960
     68          1           0       19.330141   -4.621753   -1.732049
     69          1           0       19.790446   -6.126416   -1.164951
     70          1           0       20.992696   -5.657890   -3.814442
     71          1           0       19.241425   -5.462023   -3.739077
     72          1           0       19.885409   -6.990340   -3.252945
     73          1           0       21.422125   -1.774539   -5.433799
     74          1           0       22.324647   -0.177474   -5.813300
     75          1           0       20.526294   -0.412582   -5.575615
     76          1           0       20.768096    4.017096   -2.370402
     77          1           0       24.493047    5.891899   -3.833472
     78          1           0       23.862274    6.748425   -2.329925
     79          1           0       23.446334    7.261082   -3.965319
     80         12           0      -21.692202   -0.687568   -0.064958
     81          6           0      -23.362782    2.033195    1.364120
     82          6           0      -19.719463    1.356532   -1.708034
     83          6           0      -20.621274   -3.329633   -1.982354
     84          6           0      -24.129847   -2.849791    1.294526
     85          7           0      -21.533712    1.413843   -0.048067
     86          6           0      -22.244220    2.376457    0.634776
     87          6           0      -21.616063    3.755957    0.484412
     88          6           0      -20.603137    3.512533   -0.680001
     89          6           0      -20.532439    2.026792   -0.750385
     90          6           0      -20.806143    4.210091   -2.007675
     91          6           0      -21.018549    4.352816    1.798557
     92          6           0      -20.409095    5.752298    1.661495
     93          1           0      -20.899107    6.794214    2.656380
     94          7           0      -20.329455   -0.944280   -1.752689
     95          6           0      -19.504222    0.037309   -2.172440
     96          6           0      -18.578220   -0.500947   -3.129916
     97          6           0      -18.905411   -1.857123   -3.300955
     98          6           0      -20.007665   -2.087460   -2.327898
     99          6           0      -17.520217    0.321227   -3.835060
    100          6           0      -18.255616   -2.897587   -4.153106
    101          8           0      -18.688373   -4.061444   -4.367623
    102          6           0      -16.918990   -2.609677   -4.825797
    103          7           0      -22.304348   -2.740725   -0.318684
    104          6           0      -21.744438   -3.585719   -1.215418
    105          6           0      -22.298445   -5.090036   -0.963563
    106          6           0      -23.058125   -4.931729    0.400185
    107          6           0      -23.133354   -3.445124    0.539886
    108          6           0      -23.196463   -5.519664   -2.188845
    109          6           0      -22.179221   -5.456327    1.593852
    110          6           0      -20.753268   -4.950570    1.747555
    111          7           0      -23.427552   -0.501078    1.179360
    112          6           0      -24.271298   -1.483766    1.619237
    113          6           0      -25.238465   -0.868174    2.403399
    114          6           0      -25.002598    0.536245    2.364826
    115          6           0      -23.880008    0.712233    1.599298
    116          6           0      -26.414639   -1.472414    3.085923
    117          6           0      -25.444404    1.887212    2.779169
    118          8           0      -26.407480    2.303110    3.413096
    119          6           0      -24.313606    2.909925    2.213595
    120          6           0      -24.951466    4.087268    1.566464
    121          8           0      -26.026075    4.050832    0.896520
    122          8           0      -24.283683    5.159044    1.971624
    123          6           0      -25.017553    6.401947    1.829142
    124          1           0      -18.963705    1.979736   -2.190885
    125          1           0      -20.267731   -4.188116   -2.558375
    126          1           0      -24.785566   -3.559741    1.801013
    127          1           0      -22.461591    4.406534    0.260150
    128          1           0      -19.583190    3.800640   -0.423126
    129          1           0      -21.445999    5.092500   -2.007336
    130          1           0      -21.172566    3.487126   -2.736974
    131          1           0      -19.816400    4.364466   -2.437873
    132          1           0      -20.282238    3.663116    2.211981
    133          1           0      -21.802179    4.399644    2.554047
    134          1           0      -20.829044    6.285859    0.809003
    135          1           0      -19.320660    5.707839    1.613519
    136          1           0      -17.583140    1.395341   -3.661046
    137          1           0      -17.587391    0.348988   -4.922361
    138          1           0      -16.501323    0.020559   -3.589086
    139          1           0      -17.090893   -1.865808   -5.603253
    140          1           0      -16.593478   -3.436269   -5.456965
    141          1           0      -16.122037   -2.376931   -4.118616
    142          1           0      -21.460464   -5.786219   -0.928301
    143          1           0      -24.039567   -5.372636    0.225739
    144          1           0      -23.088828   -4.868757   -3.056683
    145          1           0      -24.266221   -5.521197   -1.979126
    146          1           0      -22.941566   -6.497871   -2.594032
    147          1           0      -22.202294   -6.521398    1.362990
    148          1           0      -22.626695   -5.329078    2.579125
    149          1           0      -20.446991   -4.413555    0.849574
    150          1           0      -20.008569   -5.684205    2.054352
    151          1           0      -20.828938   -4.310330    2.626492
    152          1           0      -26.170997   -2.299729    3.752947
    153          1           0      -27.025681   -1.881078    2.281630
    154          1           0      -27.012227   -0.735515    3.621569
    155          1           0      -23.807871    3.254723    3.115139
    156          1           0      -24.888641    7.015859    2.721420
    157          1           0      -26.097114    6.314654    1.708905
    158          1           0      -24.572133    6.914050    0.975610
 ---------------------------------------------------------------------

 SCF Done:  E(RCAM-B3LYP) =  -4069.82120427     A.U. after   19 cycles

 Excitation energies and oscillator strengths:

 Excited State   1:      Singlet-A      1.7145 eV  723.17 nm  f=0.3902  <S**2>=0.000
     310 -> 316       -0.16596
     311 -> 313        0.68903
     310 <- 316       -0.10310
 This state for optimization and/or second-order correction.
 Total Energy, E(TD-HF/TD-DFT) =  -4069.75819912
 Copying the excited state density for this state as the 1-particle RhoCI density.

 Excited State   2:      Singlet-A      1.7838 eV  695.07 nm  f=0.3747  <S**2>=0.000
     309 -> 315        0.17650
     312 -> 314        0.68528
     309 <- 315        0.10146

 Excited State   3:      Singlet-A      2.1453 eV  577.92 nm  f=0.1686  <S**2>=0.000
     310 -> 313        0.66339
     311 -> 316        0.22679

 Excited State   4:      Singlet-A      2.2587 eV  548.92 nm  f=0.1143  <S**2>=0.000
     309 -> 314        0.63967
     312 -> 315       -0.28425

 Excited State   5:      Singlet-A      3.0376 eV  408.16 nm  f=0.0000  <S**2>=0.000
     312 -> 313        0.70710

 The electronic state is 1-A.
 Alpha  occ. eigenvalues --  -46.89401 -46.88262 -19.26680 -19.24360 -19.19911
 Alpha  occ. eigenvalues --  -19.19415 -19.19252 -19.19129 -19.19069 -19.18473
 Alpha  occ. eigenvalues --  -14.42922 -14.42299 -14.41844 -14.41791 -14.40369
 Alpha  occ. eigenvalues --  -14.39782 -14.38750 -14.38044 -10.39258 -10.38351
 Alpha  occ. eigenvalues --  -10.36429 -10.36024 -10.35776 -10.34846 -10.32547
 Alpha  occ. eigenvalues --  -10.32139 -10.32038 -10.32006 -10.31300 -10.31296
 Alpha  occ. eigenvalues --  -10.31157 -10.31110 -10.31035 -10.30802 -10.30647
 Alpha  occ. eigenvalues --  -10.30215 -10.30199 -10.30116 -10.29838 -10.29784
 Alpha  occ. eigenvalues --  -10.29273 -10.28893 -10.28739 -10.28683 -10.28544
 Alpha  occ. eigenvalues --  -10.28525 -10.28333 -10.28324 -10.28269 -10.28238
 Alpha  occ. eigenvalues --  -10.28192 -10.28055 -10.28023 -10.27902 -10.27884
 Alpha  occ. eigenvalues --  -10.27836 -10.27813 -10.27808 -10.27785 -10.27723
 Alpha  occ. eigenvalues --  -10.27694 -10.27637 -10.27393 -10.27153 -10.27091
 Alpha  occ. eigenvalues --  -10.26935 -10.26809 -10.26747 -10.26525 -10.26520
 Alpha  occ. eigenvalues --  -10.26507 -10.26499 -10.26492 -10.26364 -10.26277
 Alpha  occ. eigenvalues --  -10.26166 -10.26144 -10.26010 -10.25849 -10.25687
 Alpha  occ. eigenvalues --  -10.25439 -10.25319 -10.25174 -10.24906 -10.24906
 Alpha  occ. eigenvalues --  -10.24293  -3.17788  -3.16792  -1.92697  -1.92214
 Alpha  occ. eigenvalues --   -1.92103  -1.91699  -1.91241  -1.91098  -1.18117
 Alpha  occ. eigenvalues --   -1.15905  -1.11542  -1.09294  -1.08815  -1.08390
 Alpha  occ. eigenvalues --   -1.07462  -1.05940  -1.05432  -1.04382  -1.04117
 Alpha  occ. eigenvalues --   -1.03358  -1.02499  -1.02480  -1.01993  -1.00972
 Alpha  occ. eigenvalues --   -0.91881  -0.91876  -0.89619  -0.89305  -0.89168
 Alpha  occ. eigenvalues --   -0.88467  -0.88425  -0.88074  -0.88006  -0.87251
 Alpha  occ. eigenvalues --   -0.87160  -0.86924  -0.85701  -0.85640  -0.84824
 Alpha  occ. eigenvalues --   -0.84411  -0.83783  -0.83672  -0.82930  -0.82538
 Alpha  occ. eigenvalues --   -0.81878  -0.81356  -0.81069  -0.80750  -0.80690
 Alpha  occ. eigenvalues --   -0.80131  -0.78902  -0.78465  -0.77606  -0.77378
 Alpha  occ. eigenvalues --   -0.76972  -0.76486  -0.76145  -0.75796  -0.75255
 Alpha  occ. eigenvalues --   -0.74750  -0.72770  -0.72277  -0.71769  -0.71333
 Alpha  occ. eigenvalues --   -0.69931  -0.69202  -0.69088  -0.68881  -0.68371
 Alpha  occ. eigenvalues --   -0.67704  -0.67456  -0.67272  -0.65662  -0.65552
 Alpha  occ. eigenvalues --   -0.65222  -0.64834  -0.64698  -0.64619  -0.64584
 Alpha  occ. eigenvalues --   -0.64384  -0.62760  -0.61179  -0.61037  -0.60068
 Alpha  occ. eigenvalues --   -0.59799  -0.59269  -0.59200  -0.58831  -0.58554
 Alpha  occ. eigenvalues --   -0.58058  -0.57842  -0.57632  -0.57248  -0.57039
 Alpha  occ. eigenvalues --   -0.56229  -0.56055  -0.55979  -0.55821  -0.55799
 Alpha  occ. eigenvalues --   -0.55485  -0.55339  -0.54771  -0.54417  -0.54275
 Alpha  occ. eigenvalues --   -0.53728  -0.53294  -0.53274  -0.53241  -0.53160
 Alpha  occ. eigenvalues --   -0.53072  -0.52947  -0.52587  -0.52556  -0.52161
 Alpha  occ. eigenvalues --   -0.51738  -0.51730  -0.51596  -0.51443  -0.51051
 Alpha  occ. eigenvalues --   -0.50998  -0.50948  -0.50621  -0.50585  -0.50471
 Alpha  occ. eigenvalues --   -0.50178  -0.50133  -0.49610  -0.49548  -0.49546
 Alpha  occ. eigenvalues --   -0.49499  -0.49128  -0.48875  -0.48681  -0.48600
 Alpha  occ. eigenvalues --   -0.48577  -0.48510  -0.48379  -0.48124  -0.48099
 Alpha  occ. eigenvalues --   -0.48037  -0.47769  -0.47527  -0.47261  -0.47221
 Alpha  occ. eigenvalues --   -0.46813  -0.46785  -0.46515  -0.46456  -0.46404
 Alpha  occ. eigenvalues --   -0.46250  -0.46031  -0.45982  -0.45876  -0.45560
 Alpha  occ. eigenvalues --   -0.45463  -0.45201  -0.45175  -0.44879  -0.44753
 Alpha  occ. eigenvalues --   -0.44711  -0.44504  -0.44476  -0.44303  -0.44028
 Alpha  occ. eigenvalues --   -0.43965  -0.43881  -0.43746  -0.43601  -0.43439
 Alpha  occ. eigenvalues --   -0.43321  -0.43228  -0.43227  -0.42994  -0.42897
 Alpha  occ. eigenvalues --   -0.42605  -0.42442  -0.42375  -0.42328  -0.42094
 Alpha  occ. eigenvalues --   -0.42029  -0.41789  -0.41540  -0.41459  -0.41256
 Alpha  occ. eigenvalues --   -0.41208  -0.40887  -0.40596  -0.40519  -0.40317
 Alpha  occ. eigenvalues --   -0.40059  -0.39709  -0.39630  -0.39465  -0.39273
 Alpha  occ. eigenvalues --   -0.38718  -0.38692  -0.37918  -0.37696  -0.37328
 Alpha  occ. eigenvalues --   -0.37207  -0.36940  -0.36899  -0.36597  -0.36319
 Alpha  occ. eigenvalues --   -0.36280  -0.35947  -0.34319  -0.34100  -0.33972
 Alpha  occ. eigenvalues --   -0.33877  -0.33115  -0.32926  -0.31971  -0.31689
 Alpha  occ. eigenvalues --   -0.31514  -0.31174  -0.30812  -0.30679  -0.30263
 Alpha  occ. eigenvalues --   -0.30125  -0.28692  -0.28529  -0.24096  -0.24089
 Alpha  occ. eigenvalues --   -0.21793  -0.21347
 Alpha virt. eigenvalues --   -0.09393  -0.08550  -0.01808  -0.01310  -0.00050
 Alpha virt. eigenvalues --    0.00012   0.01773   0.02069   0.02481   0.02931
 Alpha virt. eigenvalues --    0.04422   0.04504   0.04635   0.05364   0.05660

 Mulliken charges:
               1
     1  Mg   0.816311
     2  C    0.025836
     3  C   -0.086830
     4  C   -0.055839
     5  C   -0.058730
     6  N   -0.312790
     7  C   -0.055493
     8  C   -0.012760
     9  C   -0.109570
    10  C    0.087988
    11  C    0.070609
    12  C    0.093578
    13  C   -0.080246
    14  H    0.012886
    15  N   -0.426211
    16  C    0.167034
    17  C   -0.153112
    18  C   -0.007855
    19  C    0.162601
    20  C    0.112425
    21  C   -0.007694
    22  O   -0.188097
    23  C    0.041586
    24  N   -0.245160
    25  C    0.014703
    26  C   -0.075043
    27  C   -0.009807
    28  C   -0.002074
    29  C    0.065586
    30  C    0.045616
    31  C    0.000093
    32  N   -0.378388
    33  C    0.150610
    34  C   -0.188274
    35  C    0.001862
    36  C    0.131830
    37  C    0.134318
    38  C    0.077211
    39  O   -0.163563
    40  C   -0.091589
    41  C    0.202907
    42  O   -0.222060
    43  O   -0.341866
    44  C    0.191507
    45  H   -0.034378
    46  H   -0.007048
    47  H   -0.044531
    48  H    0.030932
    49  H    0.006488
    50  H    0.015321
    51  H    0.021346
    52  H    0.028755
    53  H    0.014474
    54  H    0.009581
    55  H    0.043780
    56  H    0.030117
    57  H    0.030505
    58  H    0.009718
    59  H    0.043699
    60  H    0.041084
    61  H    0.033044
    62  H    0.021272
    63  H    0.014090
    64  H    0.009853
    65  H    0.013121
    66  H    0.028875
    67  H    0.020001
    68  H    0.006071
    69  H    0.004038
    70  H    0.022199
    71  H    0.008800
    72  H    0.018153
    73  H   -0.003094
    74  H    0.047743
    75  H    0.022265
    76  H    0.051750
    77  H    0.042367
    78  H    0.032273
    79  H    0.033291
    80  Mg   0.807811
    81  C    0.045508
    82  C   -0.061117
    83  C   -0.047206
    84  C   -0.073293
    85  N   -0.322584
    86  C   -0.057804
    87  C    0.013223
    88  C   -0.034184
    89  C    0.074978
    90  C    0.092342
    91  C    0.063803
    92  C   -0.073680
    93  H    0.013789
    94  N   -0.299731
    95  C    0.075886
    96  C   -0.092491
    97  C   -0.003277
    98  C    0.074272
    99  C    0.096254
   100  C   -0.003937
   101  O   -0.229661
   102  C    0.052592
   103  N   -0.284292
   104  C    0.052226
   105  C   -0.096608
   106  C    0.025696
   107  C    0.020358
   108  C    0.057895
   109  C    0.029669
   110  C    0.003971
   111  N   -0.330790
   112  C    0.139888
   113  C   -0.184914
   114  C    0.005556
   115  C    0.046739
   116  C    0.122845
   117  C    0.080770
   118  O   -0.165193
   119  C   -0.062073
   120  C    0.199355
   121  O   -0.251060
   122  O   -0.299826
   123  C    0.166058
   124  H   -0.050008
   125  H   -0.001698
   126  H   -0.028097
   127  H    0.004732
   128  H    0.004240
   129  H    0.033371
   130  H    0.011596
   131  H    0.004368
   132  H   -0.001647
   133  H    0.022244
   134  H    0.025088
   135  H    0.040125
   136  H    0.004980
   137  H    0.026521
   138  H    0.032535
   139  H    0.022879
   140  H    0.017802
   141  H    0.042507
   142  H    0.018038
   143  H    0.003622
   144  H    0.022346
   145  H    0.011592
   146  H    0.017927
   147  H    0.004121
   148  H    0.005118
   149  H    0.037424
   150  H    0.019575
   151  H    0.011958
   152  H    0.013035
   153  H    0.020290
   154  H    0.033479
   155  H    0.052759
   156  H    0.035638
   157  H    0.061856
   158  H    0.031924
 Sum of Mulliken charges =  -0.00000

 Dipole moment (field-independent basis, Debye):
    X=              5.6083    Y=              0.6230    Z=              4.0451  Tot=              6.9429
 Quadrupole moment (field-independent basis, Debye-Ang):
   XX=           -840.8184   YY=           -477.8820   ZZ=           -516.2318
   XY=            -15.6189   XZ=            123.0706   YZ=              7.0331

 Normal termination of Gaussian 16 at Thu Sep 16 08:33:59 2021.
