 Gaussian 16, Revision A.03,
 Gaussian 16:  ES64L-G16RevA.03 25-Dec-2016

 -----------------------------------
 #p cam-b3lyp/Def2SVP td=(nstates=5)
 -----------------------------------

 --------------------------------
 TDDFT excited states in gaussian
 --------------------------------
 Symbolic Z-matrix:
 Charge =  0 Multiplicity = 1

                         Standard orientation:
 ---------------------------------------------------------------------
 Center     Atomic      Atomic             Coordinates (Angstroms)
 Number     Number       Type             X           Y           Z
 ---------------------------------------------------------------------
      1         12           0      -21.705616    0.216528   -0.193599
      2          6           0      -18.273022    0.981305   -0.488209
      3          6           0      -21.489175   -1.628113   -3.146247
      4          6           0      -24.638225   -1.287795    0.673119
      5          6           0      -21.549794    1.716642    3.055283
      6          7           0      -20.096309   -0.213823   -1.620289
      7          6           0      -18.804741    0.167598   -1.527055
      8          6           0      -17.945193   -0.476989   -2.662778
      9          6           0      -19.101395   -0.962868   -3.652638
     10          6           0      -20.384414   -0.914285   -2.761237
     11          6           0      -19.425210   -0.173438   -4.941302
     12          6           0      -17.081099   -1.642556   -2.048755
     13          6           0      -15.668999   -1.785173   -2.681455
     14          1           0      -15.175460   -3.269655   -2.923083
     15          7           0      -23.041183   -1.140346   -1.221283
     16          6           0      -22.746978   -1.713289   -2.430079
     17          6           0      -23.875002   -2.481285   -2.798787
     18          6           0      -24.803503   -2.490848   -1.715771
     19          6           0      -24.218565   -1.571232   -0.683255
     20          6           0      -24.016291   -3.245552   -4.093925
     21          6           0      -26.008903   -3.357093   -1.578410
     22          8           0      -26.280955   -4.219320   -2.398349
     23          6           0      -26.922210   -3.326430   -0.465865
     24          7           0      -22.860049    0.154671    1.701473
     25          6           0      -24.135876   -0.428253    1.691629
     26          6           0      -24.878127   -0.091173    2.946912
     27          6           0      -23.888082    0.818492    3.764383
     28          6           0      -22.698966    0.919602    2.824699
     29          6           0      -26.202759    0.588031    2.576381
     30          6           0      -23.684405    0.353887    5.255590
     31          6           0      -23.998066    1.354914    6.325896
     32          7           0      -20.231399    1.215891    1.080265
     33          6           0      -20.364888    1.794935    2.318340
     34          6           0      -19.136056    2.536979    2.676218
     35          6           0      -18.292923    2.158113    1.598050
     36          6           0      -19.016405    1.455940    0.652404
     37          6           0      -18.801927    3.300840    3.947931
     38          6           0      -16.921774    2.195951    1.163667
     39          8           0      -15.923261    2.678592    1.720343
     40          6           0      -16.808563    1.482561   -0.183339
     41          6           0      -16.221102    2.365260   -1.208443
     42          8           0      -15.229138    2.095983   -1.782971
     43          8           0      -17.029009    3.406904   -1.562345
     44          6           0      -16.504693    4.091137   -2.764189
     45          1           0      -21.478506   -2.149803   -4.105988
     46          1           0      -25.620718   -1.730474    0.844331
     47          1           0      -21.302594    2.184773    4.010969
     48          1           0      -17.308073    0.299730   -3.086088
     49          1           0      -19.137327   -2.036925   -3.834149
     50          1           0      -19.138517    0.872638   -4.827575
     51          1           0      -20.457083   -0.216425   -5.290004
     52          1           0      -18.783072   -0.596902   -5.712861
     53          1           0      -17.619574   -2.589540   -2.095373
     54          1           0      -16.984498   -1.382630   -0.994572
     55          1           0      -15.021565   -1.281753   -1.963258
     56          1           0      -15.745718   -1.166418   -3.575797
     57          1           0      -25.033290   -3.479808   -4.408729
     58          1           0      -23.456387   -4.161648   -3.907789
     59          1           0      -23.423327   -2.890937   -4.937004
     60          1           0      -27.354715   -2.325361   -0.442615
     61          1           0      -26.419871   -3.593574    0.464304
     62          1           0      -27.703809   -4.065626   -0.641588
     63          1           0      -24.994887   -0.975743    3.572557
     64          1           0      -24.074498    1.892655    3.767401
     65          1           0      -26.471181    0.465284    1.526823
     66          1           0      -26.164902    1.664548    2.743052
     67          1           0      -27.029389    0.044161    3.032570
     68          1           0      -22.637113    0.055968    5.305982
     69          1           0      -24.355273   -0.446787    5.564825
     70          1           0      -23.109697    1.443730    6.950627
     71          1           0      -24.801030    1.012878    6.979125
     72          1           0      -24.381509    2.297103    5.934173
     73          1           0      -18.459384    2.649779    4.752479
     74          1           0      -19.611911    3.948024    4.286699
     75          1           0      -17.917612    3.851751    3.627885
     76          1           0      -16.071710    0.683445   -0.113266
     77          1           0      -17.184970    4.909504   -3.001419
     78          1           0      -16.429273    3.396841   -3.600953
     79          1           0      -15.564159    4.617939   -2.606760
     80         12           0       20.768016   -0.874995    0.283984
     81          6           0       21.538753    2.492764   -0.331836
     82          6           0       17.887114   -0.023527    1.732056
     83          6           0       20.271019   -4.024825    0.836419
     84          6           0       24.271293   -1.524002   -0.344122
     85          7           0       19.913308    1.052584    0.726929
     86          6           0       20.262978    2.261261    0.269065
     87          6           0       19.334423    3.341115    0.761545
     88          6           0       18.401872    2.553741    1.767107
     89          6           0       18.724856    1.120428    1.391753
     90          6           0       18.555612    2.830234    3.297946
     91          6           0       18.453692    3.928466   -0.456142
     92          6           0       18.419969    5.491310   -0.502290
     93          1           0       17.795693    6.033993   -1.899488
     94          7           0       19.221534   -1.870534    0.913653
     95          6           0       18.055814   -1.356513    1.455536
     96          6           0       17.098660   -2.422208    1.570481
     97          6           0       17.742114   -3.693960    1.278523
     98          6           0       19.129861   -3.250470    0.870082
     99          6           0       15.681089   -2.102534    2.126033
    100          6           0       17.317612   -5.158092    1.273019
    101          8           0       18.005366   -6.124955    0.898276
    102          6           0       15.895107   -5.341296    1.668283
    103          7           0       22.166072   -2.445949    0.382584
    104          6           0       21.616513   -3.674992    0.652176
    105          6           0       22.701548   -4.746487    0.765198
    106          6           0       23.903070   -4.035263    0.089250
    107          6           0       23.472082   -2.567289    0.086736
    108          6           0       22.844137   -5.214942    2.267650
    109          6           0       24.291455   -4.548544   -1.362049
    110          6           0       25.740361   -4.309294   -1.815955
    111          7           0       22.567430    0.213241   -0.271081
    112          6           0       23.848565   -0.201307   -0.475643
    113          6           0       24.675330    0.878196   -0.967001
    114          6           0       23.752772    1.940276   -0.984154
    115          6           0       22.509598    1.512367   -0.496689
    116          6           0       26.163094    0.938400   -1.383083
    117          6           0       23.626189    3.328673   -1.329553
    118          8           0       24.332589    4.101445   -1.922353
    119          6           0       22.187833    3.775255   -0.743598
    120          6           0       21.679839    4.582729   -1.855805
    121          8           0       21.106758    4.207315   -2.909698
    122          8           0       21.971468    5.852144   -1.523553
    123          6           0       21.619729    6.913777   -2.467624
    124          1           0       16.902703    0.240292    2.124589
    125          1           0       20.088915   -5.095859    0.948561
    126          1           0       25.294485   -1.794905   -0.612720
    127          1           0       19.823905    4.201874    1.218024
    128          1           0       17.329382    2.635337    1.589444
    129          1           0       18.991981    1.940772    3.752379
    130          1           0       17.538421    2.974729    3.661592
    131          1           0       19.182218    3.661706    3.618715
    132          1           0       17.430253    3.557984   -0.525504
    133          1           0       18.864055    3.487717   -1.364749
    134          1           0       19.425330    5.898754   -0.397812
    135          1           0       17.777910    5.963907    0.240633
    136          1           0       15.039769   -1.853530    1.281692
    137          1           0       15.621605   -1.148897    2.652007
    138          1           0       15.281297   -2.776556    2.883275
    139          1           0       15.175032   -4.850663    1.014355
    140          1           0       15.895354   -4.961089    2.690551
    141          1           0       15.593757   -6.386073    1.749089
    142          1           0       22.333695   -5.587564    0.177365
    143          1           0       24.798485   -4.196984    0.689330
    144          1           0       23.766233   -4.824571    2.698106
    145          1           0       22.883239   -6.282735    2.481472
    146          1           0       22.111664   -4.824664    2.974547
    147          1           0       23.702951   -3.897453   -2.009026
    148          1           0       24.078309   -5.590147   -1.603290
    149          1           0       25.799356   -3.607554   -2.648943
    150          1           0       26.347557   -5.159759   -2.126667
    151          1           0       26.212548   -3.773413   -0.993759
    152          1           0       26.652135    0.126586   -0.844658
    153          1           0       26.604871    1.901442   -1.123783
    154          1           0       26.188177    0.739250   -2.454390
    155          1           0       22.331093    4.432432    0.114311
    156          1           0       20.806484    7.499840   -2.039887
    157          1           0       21.445785    6.531351   -3.472841
    158          1           0       22.453026    7.614710   -2.515114
 ---------------------------------------------------------------------

 SCF Done:  E(RCAM-B3LYP) =  -4069.77836593     A.U. after   19 cycles

 Excitation energies and oscillator strengths:

 Excited State   1:      Singlet-A      1.6804 eV  737.83 nm  f=0.4127  <S**2>=0.000
     309 -> 315        0.17287
     311 -> 313        0.68699
     309 <- 315        0.10657
 This state for optimization and/or second-order correction.
 Total Energy, E(TD-HF/TD-DFT) =  -4069.71661270
 Copying the excited state density for this state as the 1-particle RhoCI density.

 Excited State   2:      Singlet-A      1.7272 eV  717.82 nm  f=0.3770  <S**2>=0.000
     310 -> 316        0.19744
     312 -> 314        0.68094
     310 <- 316        0.11061

 Excited State   3:      Singlet-A      2.2017 eV  563.14 nm  f=0.1138  <S**2>=0.000
     309 -> 313        0.64204
     311 -> 315       -0.28114

 Excited State   4:      Singlet-A      2.2497 eV  551.12 nm  f=0.0627  <S**2>=0.000
     310 -> 314        0.61702
     312 -> 316       -0.33572

 Excited State   5:      Singlet-A      2.9521 eV  419.99 nm  f=0.0000  <S**2>=0.000
     312 -> 313        0.70710

 The electronic state is 1-A.
 Alpha  occ. eigenvalues --  -46.90876 -46.87541 -19.25154 -19.24837 -19.19959
 Alpha  occ. eigenvalues --  -19.19637 -19.19007 -19.18885 -19.18398 -19.17357
 Alpha  occ. eigenvalues --  -14.43014 -14.42741 -14.42566 -14.41699 -14.39945
 Alpha  occ. eigenvalues --  -14.39426 -14.39339 -14.38375 -10.38772 -10.38539
 Alpha  occ. eigenvalues --  -10.35962 -10.34814 -10.34630 -10.33541 -10.32282
 Alpha  occ. eigenvalues --  -10.32023 -10.31899 -10.31863 -10.31681 -10.31160
 Alpha  occ. eigenvalues --  -10.31103 -10.31028 -10.30976 -10.30758 -10.30574
 Alpha  occ. eigenvalues --  -10.30243 -10.30222 -10.30083 -10.30009 -10.29898
 Alpha  occ. eigenvalues --  -10.29434 -10.29347 -10.29198 -10.29122 -10.29073
 Alpha  occ. eigenvalues --  -10.28948 -10.28813 -10.28689 -10.28546 -10.28510
 Alpha  occ. eigenvalues --  -10.28498 -10.28462 -10.28335 -10.28208 -10.28188
 Alpha  occ. eigenvalues --  -10.27834 -10.27805 -10.27787 -10.27711 -10.27707
 Alpha  occ. eigenvalues --  -10.27684 -10.27643 -10.27579 -10.27577 -10.27518
 Alpha  occ. eigenvalues --  -10.27271 -10.27082 -10.27006 -10.26849 -10.26772
 Alpha  occ. eigenvalues --  -10.26699 -10.26621 -10.26554 -10.26470 -10.26430
 Alpha  occ. eigenvalues --  -10.26405 -10.26228 -10.26026 -10.25845 -10.25790
 Alpha  occ. eigenvalues --  -10.25787 -10.25489 -10.25338 -10.25325 -10.25296
 Alpha  occ. eigenvalues --  -10.24409  -3.19023  -3.16384  -1.93936  -1.93458
 Alpha  occ. eigenvalues --   -1.93318  -1.91269  -1.90852  -1.90699  -1.18015
 Alpha  occ. eigenvalues --   -1.15906  -1.10744  -1.09589  -1.09358  -1.09083
 Alpha  occ. eigenvalues --   -1.08997  -1.05519  -1.05160  -1.05154  -1.04272
 Alpha  occ. eigenvalues --   -1.03790  -1.03561  -1.03474  -1.02575  -1.02380
 Alpha  occ. eigenvalues --   -0.92683  -0.92670  -0.89462  -0.89080  -0.89059
 Alpha  occ. eigenvalues --   -0.88276  -0.88229  -0.88102  -0.88019  -0.87417
 Alpha  occ. eigenvalues --   -0.87055  -0.86939  -0.86233  -0.85862  -0.84921
 Alpha  occ. eigenvalues --   -0.84695  -0.84502  -0.83797  -0.82753  -0.82553
 Alpha  occ. eigenvalues --   -0.82447  -0.82238  -0.81237  -0.80968  -0.80593
 Alpha  occ. eigenvalues --   -0.80271  -0.78699  -0.78186  -0.77654  -0.77290
 Alpha  occ. eigenvalues --   -0.76908  -0.76887  -0.76537  -0.75890  -0.75472
 Alpha  occ. eigenvalues --   -0.75373  -0.73186  -0.72757  -0.72559  -0.72101
 Alpha  occ. eigenvalues --   -0.69414  -0.69305  -0.69217  -0.68770  -0.67999
 Alpha  occ. eigenvalues --   -0.67883  -0.67185  -0.66940  -0.66391  -0.66021
 Alpha  occ. eigenvalues --   -0.65754  -0.65517  -0.65037  -0.64831  -0.64690
 Alpha  occ. eigenvalues --   -0.64415  -0.63351  -0.61739  -0.60204  -0.60121
 Alpha  occ. eigenvalues --   -0.60064  -0.59810  -0.59119  -0.59034  -0.58929
 Alpha  occ. eigenvalues --   -0.58609  -0.58351  -0.57946  -0.57125  -0.57120
 Alpha  occ. eigenvalues --   -0.56551  -0.56293  -0.56122  -0.55897  -0.55596
 Alpha  occ. eigenvalues --   -0.55410  -0.55176  -0.54595  -0.54336  -0.53892
 Alpha  occ. eigenvalues --   -0.53548  -0.53423  -0.53401  -0.53237  -0.53183
 Alpha  occ. eigenvalues --   -0.52865  -0.52746  -0.52695  -0.52525  -0.52307
 Alpha  occ. eigenvalues --   -0.52191  -0.51799  -0.51573  -0.51512  -0.51400
 Alpha  occ. eigenvalues --   -0.51374  -0.50997  -0.50930  -0.50696  -0.50360
 Alpha  occ. eigenvalues --   -0.50136  -0.50087  -0.49992  -0.49897  -0.49606
 Alpha  occ. eigenvalues --   -0.49394  -0.49309  -0.49080  -0.49021  -0.48897
 Alpha  occ. eigenvalues --   -0.48660  -0.48454  -0.48438  -0.48246  -0.48082
 Alpha  occ. eigenvalues --   -0.47991  -0.47568  -0.47392  -0.47370  -0.47231
 Alpha  occ. eigenvalues --   -0.47003  -0.46845  -0.46835  -0.46722  -0.46474
 Alpha  occ. eigenvalues --   -0.46397  -0.46372  -0.46315  -0.45877  -0.45798
 Alpha  occ. eigenvalues --   -0.45686  -0.45494  -0.45177  -0.45130  -0.45120
 Alpha  occ. eigenvalues --   -0.44896  -0.44855  -0.44723  -0.44392  -0.44055
 Alpha  occ. eigenvalues --   -0.44006  -0.43703  -0.43634  -0.43530  -0.43447
 Alpha  occ. eigenvalues --   -0.43369  -0.43067  -0.43042  -0.42920  -0.42843
 Alpha  occ. eigenvalues --   -0.42830  -0.42686  -0.42626  -0.42339  -0.42180
 Alpha  occ. eigenvalues --   -0.42046  -0.41877  -0.41823  -0.41316  -0.41316
 Alpha  occ. eigenvalues --   -0.41170  -0.41066  -0.40832  -0.40787  -0.40555
 Alpha  occ. eigenvalues --   -0.40290  -0.40174  -0.39673  -0.39567  -0.39276
 Alpha  occ. eigenvalues --   -0.38753  -0.38715  -0.37940  -0.37814  -0.37679
 Alpha  occ. eigenvalues --   -0.37352  -0.37276  -0.36969  -0.36929  -0.36442
 Alpha  occ. eigenvalues --   -0.35472  -0.35188  -0.34964  -0.34173  -0.33953
 Alpha  occ. eigenvalues --   -0.33905  -0.33532  -0.32942  -0.31694  -0.31533
 Alpha  occ. eigenvalues --   -0.31286  -0.31015  -0.30515  -0.30431  -0.30303
 Alpha  occ. eigenvalues --   -0.30045  -0.29578  -0.29238  -0.24549  -0.24156
 Alpha  occ. eigenvalues --   -0.21613  -0.21087
 Alpha virt. eigenvalues --   -0.09423  -0.08409  -0.02292  -0.02270  -0.00262
 Alpha virt. eigenvalues --    0.00245   0.01175   0.02390   0.02434   0.03179
 Alpha virt. eigenvalues --    0.04649   0.04821   0.05170   0.05405   0.06046

 Mulliken charges:
               1
     1  Mg   0.801189
     2  C    0.004421
     3  C   -0.071551
     4  C   -0.019777
     5  C   -0.048231
     6  N   -0.286884
     7  C   -0.055425
     8  C   -0.042450
     9  C   -0.052355
    10  C    0.058068
    11  C    0.080533
    12  C    0.048744
    13  C   -0.050667
    14  H    0.026219
    15  N   -0.365252
    16  C    0.114140
    17  C   -0.149628
    18  C   -0.022427
    19  C    0.090988
    20  C    0.140518
    21  C   -0.050224
    22  O   -0.214527
    23  C    0.079019
    24  N   -0.287393
    25  C    0.025731
    26  C   -0.009790
    27  C   -0.012915
    28  C    0.028433
    29  C    0.074423
    30  C    0.039545
    31  C   -0.004091
    32  N   -0.281374
    33  C    0.026143
    34  C   -0.155023
    35  C    0.014916
    36  C    0.076300
    37  C    0.107436
    38  C    0.020265
    39  O   -0.190136
    40  C    0.052729
    41  C    0.149212
    42  O   -0.180153
    43  O   -0.336482
    44  C    0.181933
    45  H   -0.017955
    46  H   -0.053314
    47  H   -0.027261
    48  H    0.012520
    49  H    0.009885
    50  H    0.010238
    51  H    0.025089
    52  H    0.017234
    53  H    0.017881
    54  H    0.012935
    55  H    0.042852
    56  H    0.031800
    57  H    0.047211
    58  H    0.015843
    59  H   -0.004936
    60  H    0.029984
    61  H    0.043483
    62  H    0.024796
    63  H    0.021294
    64  H    0.015162
    65  H    0.014956
    66  H    0.018920
    67  H    0.014622
    68  H    0.016961
    69  H    0.015951
    70  H    0.020641
    71  H    0.008654
    72  H    0.012723
    73  H    0.041344
    74  H    0.029846
    75  H    0.041850
    76  H    0.031402
    77  H    0.027504
    78  H    0.035979
    79  H    0.039751
    80  Mg   0.852829
    81  C    0.059613
    82  C   -0.070787
    83  C   -0.057518
    84  C   -0.106743
    85  N   -0.271026
    86  C    0.000293
    87  C   -0.067213
    88  C   -0.030286
    89  C    0.007075
    90  C    0.073748
    91  C    0.057179
    92  C   -0.089414
    93  H    0.003802
    94  N   -0.473340
    95  C    0.175996
    96  C   -0.108074
    97  C   -0.095516
    98  C    0.154303
    99  C    0.089084
   100  C    0.047439
   101  O   -0.209018
   102  C    0.040317
   103  N   -0.291862
   104  C    0.056822
   105  C   -0.031511
   106  C   -0.009880
   107  C    0.036991
   108  C    0.062915
   109  C    0.033916
   110  C   -0.009091
   111  N   -0.270814
   112  C    0.124367
   113  C   -0.199761
   114  C    0.032757
   115  C    0.059067
   116  C    0.139560
   117  C    0.025829
   118  O   -0.148508
   119  C   -0.069269
   120  C    0.203337
   121  O   -0.256609
   122  O   -0.319721
   123  C    0.175310
   124  H   -0.039400
   125  H    0.000569
   126  H   -0.042914
   127  H    0.011926
   128  H    0.003487
   129  H    0.020764
   130  H    0.015920
   131  H    0.020541
   132  H    0.007642
   133  H    0.035328
   134  H    0.036268
   135  H    0.033649
   136  H    0.030034
   137  H    0.006257
   138  H    0.032769
   139  H    0.052637
   140  H    0.030742
   141  H    0.020757
   142  H    0.015898
   143  H    0.001373
   144  H   -0.000348
   145  H    0.021539
   146  H    0.019828
   147  H    0.012318
   148  H    0.017911
   149  H    0.013126
   150  H    0.020614
   151  H    0.010242
   152  H    0.013403
   153  H    0.043180
   154  H    0.041321
   155  H    0.043547
   156  H    0.032034
   157  H    0.059357
   158  H    0.031091
 Sum of Mulliken charges =  -0.00000

 Dipole moment (field-independent basis, Debye):
    X=             -6.5282    Y=              2.0613    Z=              5.6024  Tot=              8.8461
 Quadrupole moment (field-independent basis, Debye-Ang):
   XX=           -456.7293   YY=           -526.9029   ZZ=           -494.7740
   XY=            -97.3590   XZ=             20.8401   YZ=             -1.7963

 Normal termination of Gaussian 16 at Wed Sep  1 02:21:10 2021.
