 Gaussian 16, Revision A.03,
 Gaussian 16:  ES64L-G16RevA.03 25-Dec-2016

 ----------------------------------------------------------
 #p cam-b3lyp/Def2SVP td=(nstates=5) density=(transition=1)
 ----------------------------------------------------------

 --------------------------------
 TDDFT excited states in gaussian
 --------------------------------
 Symbolic Z-matrix:
 Charge =  0 Multiplicity = 1

                         Standard orientation:
 ---------------------------------------------------------------------
 Center     Atomic      Atomic             Coordinates (Angstroms)
 Number     Number       Type             X           Y           Z
 ---------------------------------------------------------------------
      1         12           0      -26.362615   -0.476390   -0.050797
      2          6           0      -24.848839    2.726225    0.085098
      3          6           0      -23.497874   -1.752325    1.250307
      4          6           0      -28.091930   -3.335836    0.575638
      5          6           0      -29.347132    1.083270   -0.871077
      6          7           0      -24.487967    0.529846    0.710618
      7          6           0      -24.010155    1.807982    0.591687
      8          6           0      -22.601819    1.920535    1.044313
      9          6           0      -22.111972    0.397131    1.088705
     10          6           0      -23.415415   -0.323642    1.030965
     11          6           0      -21.169349    0.071028   -0.058511
     12          6           0      -22.609017    2.699572    2.368953
     13          6           0      -21.685413    3.985943    2.469548
     14          1           0      -20.631994    4.139881    3.607668
     15          7           0      -25.914151   -2.325006    0.744220
     16          6           0      -24.617292   -2.672870    1.146913
     17          6           0      -24.607682   -4.080098    1.412558
     18          6           0      -25.940454   -4.592423    1.261344
     19          6           0      -26.701011   -3.412529    0.769465
     20          6           0      -23.313216   -4.797178    1.773872
     21          6           0      -26.451781   -5.996459    1.494760
     22          8           0      -25.535661   -6.829142    1.755225
     23          6           0      -27.922031   -6.498535    1.558776
     24          7           0      -28.456500   -1.081350   -0.138499
     25          6           0      -28.902765   -2.326283    0.138806
     26          6           0      -30.442020   -2.468032    0.003463
     27          6           0      -30.825222   -1.061876   -0.574080
     28          6           0      -29.435895   -0.273139   -0.471320
     29          6           0      -30.768865   -3.630677   -0.916521
     30          6           0      -31.905050   -0.334982    0.167785
     31          6           0      -33.185132   -0.189024   -0.609398
     32          7           0      -26.993915    1.395752   -0.507345
     33          6           0      -28.228612    1.938223   -0.885517
     34          6           0      -28.111489    3.238105   -1.312904
     35          6           0      -26.785532    3.588333   -0.986099
     36          6           0      -26.180195    2.462928   -0.431612
     37          6           0      -29.191467    3.970413   -2.080838
     38          6           0      -25.781495    4.679593   -1.098349
     39          8           0      -25.897569    5.765967   -1.574584
     40          6           0      -24.545173    4.105632   -0.308188
     41          6           0      -23.305618    4.504953   -1.078698
     42          8           0      -22.538413    5.409791   -0.749897
     43          8           0      -23.127824    3.656700   -2.198567
     44          6           0      -21.874966    3.921425   -2.905321
     45          1           0      -22.525857   -2.206521    1.454877
     46          1           0      -28.668544   -4.259293    0.667244
     47          1           0      -30.268483    1.666886   -0.912082
     48          1           0      -22.029048    2.486039    0.309195
     49          1           0      -21.572976    0.241958    2.022940
     50          1           0      -21.439630    0.565095   -0.990747
     51          1           0      -21.256048   -0.993356   -0.279381
     52          1           0      -20.118410    0.244292    0.172911
     53          1           0      -22.314899    1.999956    3.151208
     54          1           0      -23.605638    2.979814    2.710003
     55          1           0      -22.449349    4.752162    2.604021
     56          1           0      -21.278537    4.245423    1.492903
     57          1           0      -22.793344   -4.284111    2.582958
     58          1           0      -22.683733   -4.747633    0.885473
     59          1           0      -23.392058   -5.809966    2.171405
     60          1           0      -28.257084   -6.413208    0.525556
     61          1           0      -28.487159   -5.833314    2.211728
     62          1           0      -28.001960   -7.511737    1.953543
     63          1           0      -30.954795   -2.666599    0.944258
     64          1           0      -31.005729   -1.137996   -1.646024
     65          1           0      -30.214069   -4.499025   -0.560770
     66          1           0      -30.441543   -3.368325   -1.923080
     67          1           0      -31.810491   -3.891077   -1.100577
     68          1           0      -31.641714    0.689607    0.430423
     69          1           0      -32.197940   -0.745017    1.134119
     70          1           0      -33.993536   -0.590215    0.000610
     71          1           0      -33.199991   -0.793149   -1.516544
     72          1           0      -33.393515    0.828611   -0.941414
     73          1           0      -28.697444    4.817337   -2.558122
     74          1           0      -29.988165    4.332363   -1.431379
     75          1           0      -29.573528    3.234636   -2.788133
     76          1           0      -24.516812    4.759025    0.564573
     77          1           0      -21.529228    3.024180   -3.418838
     78          1           0      -21.058420    4.110092   -2.209803
     79          1           0      -21.939942    4.768921   -3.588247
     80         12           0       26.211461    0.474806    0.427802
     81          6           0       25.315692   -2.110739   -1.943048
     82          6           0       26.771151    2.345956   -2.145703
     83          6           0       27.246989    2.593680    2.730105
     84          6           0       26.309926   -2.003766    3.084234
     85          7           0       25.926255    0.149349   -1.828416
     86          6           0       25.571695   -0.939316   -2.597795
     87          6           0       25.636865   -0.594503   -4.042001
     88          6           0       26.559935    0.650650   -4.076053
     89          6           0       26.465752    1.074622   -2.591340
     90          6           0       28.022566    0.349581   -4.470215
     91          6           0       24.218526   -0.194563   -4.551207
     92          6           0       23.780784   -0.785458   -5.947212
     93          1           0       22.249930   -0.844746   -6.335796
     94          7           0       26.898612    2.337650    0.261578
     95          6           0       26.964115    3.005840   -0.859101
     96          6           0       27.356291    4.368232   -0.551257
     97          6           0       27.357624    4.421027    0.862566
     98          6           0       27.186168    3.072380    1.330548
     99          6           0       27.490844    5.423755   -1.663809
    100          6           0       27.570176    5.645343    1.708662
    101          8           0       27.580570    5.558099    2.900150
    102          6           0       27.665190    6.981385    1.046962
    103          7           0       26.983185    0.190302    2.609137
    104          6           0       27.178345    1.322676    3.281652
    105          6           0       27.212445    1.102325    4.747388
    106          6           0       27.101015   -0.454035    4.808479
    107          6           0       26.772568   -0.843721    3.391443
    108          6           0       28.397059    1.738533    5.559901
    109          6           0       26.028015   -0.906793    5.874114
    110          6           0       26.494137   -1.515426    7.226051
    111          7           0       25.913919   -1.530453    0.621706
    112          6           0       25.898016   -2.412080    1.725576
    113          6           0       25.496099   -3.759516    1.271779
    114          6           0       25.259801   -3.647095   -0.091804
    115          6           0       25.551642   -2.347399   -0.469585
    116          6           0       25.512929   -5.037189    2.145481
    117          6           0       24.831796   -4.456685   -1.277699
    118          8           0       24.468634   -5.599772   -1.424764
    119          6           0       25.018169   -3.522373   -2.575799
    120          6           0       23.915229   -3.622987   -3.459435
    121          8           0       22.949322   -2.849626   -3.396360
    122          8           0       23.943889   -4.663949   -4.382244
    123          6           0       22.912563   -4.700904   -5.464124
    124          1           0       26.953141    3.093882   -2.919457
    125          1           0       27.528038    3.311186    3.503706
    126          1           0       26.325399   -2.758036    3.872457
    127          1           0       26.155188   -1.382695   -4.588701
    128          1           0       26.262265    1.458666   -4.744054
    129          1           0       28.294250    0.894669   -5.374678
    130          1           0       28.087784   -0.723705   -4.646400
    131          1           0       28.757233    0.569609   -3.695140
    132          1           0       24.252018    0.891938   -4.633857
    133          1           0       23.530374   -0.461267   -3.749330
    134          1           0       24.216899   -1.780300   -6.033579
    135          1           0       24.290019   -0.119897   -6.645227
    136          1           0       26.718137    6.179232   -1.515601
    137          1           0       27.471301    5.045934   -2.685470
    138          1           0       28.399198    6.007672   -1.518152
    139          1           0       26.752099    7.249664    0.516203
    140          1           0       28.389865    7.079041    0.238700
    141          1           0       27.787596    7.743990    1.816492
    142          1           0       26.296057    1.521357    5.163038
    143          1           0       28.089368   -0.878161    4.986935
    144          1           0       28.951298    2.356834    4.854533
    145          1           0       29.032877    1.061724    6.131750
    146          1           0       27.974821    2.368277    6.343179
    147          1           0       25.397664   -1.679184    5.432624
    148          1           0       25.315112   -0.083061    5.910480
    149          1           0       25.937106   -1.063581    8.046652
    150          1           0       27.566085   -1.356851    7.345099
    151          1           0       26.287984   -2.585979    7.257010
    152          1           0       25.274635   -4.742041    3.166959
    153          1           0       26.530975   -5.424840    2.189636
    154          1           0       24.808859   -5.788619    1.787323
    155          1           0       25.920967   -3.846728   -3.092506
    156          1           0       22.997524   -3.831136   -6.117105
    157          1           0       21.930021   -4.960189   -5.071640
    158          1           0       23.234295   -5.467482   -6.168955
 ---------------------------------------------------------------------

 SCF Done:  E(RCAM-B3LYP) =  -4069.78036026     A.U. after   19 cycles

 Excitation energies and oscillator strengths:

 Excited State   1:      Singlet-A      1.6837 eV  736.37 nm  f=0.3586  <S**2>=0.000
     309 -> 315        0.17392
     311 -> 313        0.68684
     309 <- 315        0.10795
 This state for optimization and/or second-order correction.
 Total Energy, E(TD-HF/TD-DFT) =  -4069.71848493
 Copying the excited state density for this state as the 1-particle RhoCI density.

 Excited State   2:      Singlet-A      1.7382 eV  713.30 nm  f=0.3824  <S**2>=0.000
     310 -> 316       -0.16387
     312 -> 314        0.68893
     310 <- 316       -0.10278

 Excited State   3:      Singlet-A      2.1720 eV  570.83 nm  f=0.2263  <S**2>=0.000
     310 -> 314        0.67444
     312 -> 316        0.20201

 Excited State   4:      Singlet-A      2.2196 eV  558.59 nm  f=0.1596  <S**2>=0.000
     309 -> 313        0.64872
     311 -> 315       -0.26684

 Excited State   5:      Singlet-A      3.1662 eV  391.59 nm  f=0.0000  <S**2>=0.000
     312 -> 313        0.70711

 The electronic state is 1-A.
 Alpha  occ. eigenvalues --  -46.89448 -46.89019 -19.25640 -19.23978 -19.21021
 Alpha  occ. eigenvalues --  -19.19866 -19.19648 -19.19265 -19.18537 -19.18313
 Alpha  occ. eigenvalues --  -14.42381 -14.42241 -14.41767 -14.40178 -14.40100
 Alpha  occ. eigenvalues --  -14.39829 -14.39779 -14.39010 -10.40366 -10.38525
 Alpha  occ. eigenvalues --  -10.35963 -10.35673 -10.35491 -10.35137 -10.31997
 Alpha  occ. eigenvalues --  -10.31675 -10.31626 -10.31146 -10.31134 -10.31029
 Alpha  occ. eigenvalues --  -10.30867 -10.30678 -10.30646 -10.30604 -10.30562
 Alpha  occ. eigenvalues --  -10.30045 -10.30031 -10.29845 -10.29379 -10.29322
 Alpha  occ. eigenvalues --  -10.29071 -10.28952 -10.28874 -10.28718 -10.28580
 Alpha  occ. eigenvalues --  -10.28552 -10.28548 -10.28416 -10.28339 -10.28331
 Alpha  occ. eigenvalues --  -10.28252 -10.28214 -10.28194 -10.28113 -10.28009
 Alpha  occ. eigenvalues --  -10.27998 -10.27914 -10.27738 -10.27490 -10.27382
 Alpha  occ. eigenvalues --  -10.27311 -10.27270 -10.27169 -10.27147 -10.27045
 Alpha  occ. eigenvalues --  -10.26981 -10.26811 -10.26769 -10.26596 -10.26530
 Alpha  occ. eigenvalues --  -10.26502 -10.26361 -10.26306 -10.26299 -10.26288
 Alpha  occ. eigenvalues --  -10.26055 -10.25964 -10.25927 -10.25735 -10.25714
 Alpha  occ. eigenvalues --  -10.25539 -10.25448 -10.25377 -10.25214 -10.25108
 Alpha  occ. eigenvalues --  -10.25095  -3.17971  -3.17583  -1.92858  -1.92463
 Alpha  occ. eigenvalues --   -1.92433  -1.92270  -1.92044  -1.91888  -1.15602
 Alpha  occ. eigenvalues --   -1.14192  -1.12174  -1.12054  -1.10856  -1.07964
 Alpha  occ. eigenvalues --   -1.07639  -1.06416  -1.05663  -1.05265  -1.04963
 Alpha  occ. eigenvalues --   -1.04890  -1.04285  -1.03369  -1.02764  -1.00992
 Alpha  occ. eigenvalues --   -0.93330  -0.91263  -0.89947  -0.89334  -0.89265
 Alpha  occ. eigenvalues --   -0.89074  -0.88876  -0.87998  -0.87877  -0.87804
 Alpha  occ. eigenvalues --   -0.87644  -0.87025  -0.85966  -0.85200  -0.84852
 Alpha  occ. eigenvalues --   -0.84350  -0.84293  -0.83062  -0.82647  -0.82146
 Alpha  occ. eigenvalues --   -0.82022  -0.81963  -0.80962  -0.80717  -0.80510
 Alpha  occ. eigenvalues --   -0.80410  -0.78775  -0.77828  -0.77476  -0.77131
 Alpha  occ. eigenvalues --   -0.76912  -0.76705  -0.76513  -0.76228  -0.75523
 Alpha  occ. eigenvalues --   -0.75412  -0.73541  -0.72781  -0.72241  -0.71107
 Alpha  occ. eigenvalues --   -0.69427  -0.69222  -0.69004  -0.68789  -0.67942
 Alpha  occ. eigenvalues --   -0.67729  -0.67345  -0.67252  -0.66367  -0.66116
 Alpha  occ. eigenvalues --   -0.65711  -0.65628  -0.65368  -0.64980  -0.64949
 Alpha  occ. eigenvalues --   -0.64229  -0.63139  -0.61444  -0.61049  -0.60547
 Alpha  occ. eigenvalues --   -0.60111  -0.60111  -0.59612  -0.59068  -0.58977
 Alpha  occ. eigenvalues --   -0.58074  -0.58058  -0.57575  -0.57186  -0.56906
 Alpha  occ. eigenvalues --   -0.56556  -0.56245  -0.55845  -0.55750  -0.55646
 Alpha  occ. eigenvalues --   -0.55513  -0.54965  -0.54366  -0.54015  -0.53917
 Alpha  occ. eigenvalues --   -0.53879  -0.53607  -0.53397  -0.53223  -0.53040
 Alpha  occ. eigenvalues --   -0.52717  -0.52644  -0.52436  -0.52302  -0.52062
 Alpha  occ. eigenvalues --   -0.51989  -0.51857  -0.51731  -0.51319  -0.51138
 Alpha  occ. eigenvalues --   -0.50893  -0.50562  -0.50554  -0.50307  -0.50245
 Alpha  occ. eigenvalues --   -0.50092  -0.50059  -0.49884  -0.49861  -0.49709
 Alpha  occ. eigenvalues --   -0.49673  -0.49564  -0.49280  -0.48929  -0.48840
 Alpha  occ. eigenvalues --   -0.48745  -0.48665  -0.48358  -0.48313  -0.48012
 Alpha  occ. eigenvalues --   -0.47946  -0.47782  -0.47746  -0.47560  -0.47446
 Alpha  occ. eigenvalues --   -0.47230  -0.46903  -0.46622  -0.46477  -0.46436
 Alpha  occ. eigenvalues --   -0.46238  -0.46036  -0.45925  -0.45790  -0.45763
 Alpha  occ. eigenvalues --   -0.45535  -0.45510  -0.45408  -0.45324  -0.45168
 Alpha  occ. eigenvalues --   -0.44925  -0.44902  -0.44785  -0.44556  -0.44470
 Alpha  occ. eigenvalues --   -0.44069  -0.44023  -0.43984  -0.43681  -0.43444
 Alpha  occ. eigenvalues --   -0.43338  -0.43284  -0.42997  -0.42753  -0.42670
 Alpha  occ. eigenvalues --   -0.42668  -0.42516  -0.42452  -0.42426  -0.42222
 Alpha  occ. eigenvalues --   -0.42090  -0.41881  -0.41750  -0.41595  -0.41409
 Alpha  occ. eigenvalues --   -0.41305  -0.41126  -0.41047  -0.40639  -0.40371
 Alpha  occ. eigenvalues --   -0.40200  -0.40146  -0.39899  -0.39858  -0.39052
 Alpha  occ. eigenvalues --   -0.38789  -0.38330  -0.38237  -0.37825  -0.37668
 Alpha  occ. eigenvalues --   -0.37344  -0.37268  -0.37043  -0.36526  -0.36437
 Alpha  occ. eigenvalues --   -0.36065  -0.35734  -0.35428  -0.34713  -0.33599
 Alpha  occ. eigenvalues --   -0.33202  -0.33059  -0.32612  -0.31850  -0.31761
 Alpha  occ. eigenvalues --   -0.31532  -0.31138  -0.31103  -0.30748  -0.30594
 Alpha  occ. eigenvalues --   -0.30031  -0.29802  -0.29685  -0.24425  -0.23539
 Alpha  occ. eigenvalues --   -0.21656  -0.21627
 Alpha virt. eigenvalues --   -0.09340  -0.09075  -0.01846  -0.00357   0.00217
 Alpha virt. eigenvalues --    0.00933   0.01790   0.02315   0.02393   0.02656
 Alpha virt. eigenvalues --    0.04134   0.04528   0.05008   0.05150   0.05697

 Mulliken charges:
               1
     1  Mg  12.001561
     2  C    5.973226
     3  C    6.001516
     4  C    6.039204
     5  C    6.013001
     6  N    6.972348
     7  C    6.030081
     8  C    5.989850
     9  C    6.016789
    10  C    5.973967
    11  C    6.005141
    12  C    5.994528
    13  C    6.000573
    14  H    1.005602
    15  N    7.010229
    16  C    5.956875
    17  C    5.980318
    18  C    5.991102
    19  C    5.951226
    20  C    6.003934
    21  C    5.989094
    22  O    7.980347
    23  C    5.998138
    24  N    7.018479
    25  C    5.958325
    26  C    6.011813
    27  C    5.993241
    28  C    6.018943
    29  C    6.003922
    30  C    5.994612
    31  C    5.997800
    32  N    6.998806
    33  C    6.029296
    34  C    6.028731
    35  C    6.005022
    36  C    6.038257
    37  C    5.999409
    38  C    6.018077
    39  O    8.026519
    40  C    6.003477
    41  C    6.003430
    42  O    8.006328
    43  O    7.997970
    44  C    5.996645
    45  H    0.984591
    46  H    0.999185
    47  H    1.015799
    48  H    0.998392
    49  H    0.994430
    50  H    0.984488
    51  H    1.004906
    52  H    0.989079
    53  H    1.011199
    54  H    0.996257
    55  H    0.995220
    56  H    0.998421
    57  H    0.981977
    58  H    0.981390
    59  H    0.984348
    60  H    0.990034
    61  H    0.989924
    62  H    0.989230
    63  H    0.998957
    64  H    1.002007
    65  H    1.008123
    66  H    0.994764
    67  H    0.993149
    68  H    0.994584
    69  H    1.011108
    70  H    1.007263
    71  H    1.005408
    72  H    0.997751
    73  H    1.015307
    74  H    1.021004
    75  H    1.016523
    76  H    1.004618
    77  H    1.007022
    78  H    1.005625
    79  H    1.000162
    80  Mg  12.000012
    81  C    5.999868
    82  C    5.999939
    83  C    6.000147
    84  C    6.000044
    85  N    6.999953
    86  C    6.000133
    87  C    5.999984
    88  C    6.000028
    89  C    5.999929
    90  C    6.000041
    91  C    5.999981
    92  C    5.999986
    93  H    1.000028
    94  N    7.000030
    95  C    5.999862
    96  C    5.999877
    97  C    5.999976
    98  C    5.999759
    99  C    6.000042
   100  C    5.999924
   101  O    7.999889
   102  C    6.000052
   103  N    7.000021
   104  C    5.999839
   105  C    6.000064
   106  C    5.999967
   107  C    6.000017
   108  C    6.000004
   109  C    5.999984
   110  C    5.999995
   111  N    7.000030
   112  C    6.000148
   113  C    6.000178
   114  C    5.999990
   115  C    6.000195
   116  C    5.999963
   117  C    6.000089
   118  O    8.000148
   119  C    6.000031
   120  C    6.000021
   121  O    8.000042
   122  O    7.999998
   123  C    5.999980
   124  H    0.999938
   125  H    0.999947
   126  H    1.000056
   127  H    0.999994
   128  H    0.999976
   129  H    0.999962
   130  H    0.999930
   131  H    0.999997
   132  H    1.000059
   133  H    0.999992
   134  H    0.999991
   135  H    1.000008
   136  H    0.999889
   137  H    0.999899
   138  H    0.999887
   139  H    0.999956
   140  H    0.999958
   141  H    0.999909
   142  H    0.999991
   143  H    1.000007
   144  H    1.000015
   145  H    0.999953
   146  H    0.999985
   147  H    0.999982
   148  H    1.000042
   149  H    1.000029
   150  H    1.000008
   151  H    1.000006
   152  H    1.000109
   153  H    1.000111
   154  H    1.000117
   155  H    1.000031
   156  H    1.000012
   157  H    1.000041
   158  H    1.000026
 Sum of Mulliken charges = 624.00000

 Dipole moment (field-independent basis, Debye):
    X=             -4.3950    Y=              9.0749    Z=             -3.2630  Tot=             10.5979
 Quadrupole moment (field-independent basis, Debye-Ang):
   XX=            231.5897   YY=             -8.4584   ZZ=              0.2388
   XY=           -239.7262   XZ=             85.9971   YZ=              1.8058

 Normal termination of Gaussian 16 at Wed Sep 22 18:27:47 2021.
