 Gaussian 16, Revision A.03,
 Gaussian 16:  ES64L-G16RevA.03 25-Dec-2016

 -----------------------------------
 #p cam-b3lyp/Def2SVP td=(nstates=5)
 -----------------------------------

 --------------------------------
 TDDFT excited states in gaussian
 --------------------------------
 Symbolic Z-matrix:
 Charge =  0 Multiplicity = 1

                         Standard orientation:
 ---------------------------------------------------------------------
 Center     Atomic      Atomic             Coordinates (Angstroms)
 Number     Number       Type             X           Y           Z
 ---------------------------------------------------------------------
      1         12           0      -26.356935   -0.579792   -0.090504
      2          6           0      -24.902005    2.234523   -1.406784
      3          6           0      -27.140992    1.217859    2.722169
      4          6           0      -27.732072   -3.442437    1.303199
      5          6           0      -25.155078   -2.449512   -2.751341
      6          7           0      -26.017363    1.514609    0.639662
      7          6           0      -25.468487    2.480482   -0.154850
      8          6           0      -25.472245    3.769535    0.513057
      9          6           0      -25.978317    3.495979    1.920566
     10          6           0      -26.393203    1.963664    1.812641
     11          6           0      -25.023489    3.773097    3.132773
     12          6           0      -26.322226    4.826361   -0.271279
     13          6           0      -25.844695    6.318070   -0.202454
     14          1           0      -25.079567    6.754997    1.062185
     15          7           0      -27.407514   -0.988802    1.728277
     16          6           0      -27.629520   -0.076772    2.745790
     17          6           0      -28.364934   -0.748296    3.836526
     18          6           0      -28.555528   -2.138209    3.427123
     19          6           0      -27.916838   -2.243697    2.103692
     20          6           0      -28.780519   -0.081633    5.137744
     21          6           0      -29.354922   -3.206324    4.136284
     22          8           0      -29.479120   -4.322184    3.601614
     23          6           0      -29.991395   -3.043188    5.465700
     24          7           0      -26.374950   -2.672905   -0.593560
     25          6           0      -27.043740   -3.594117    0.105898
     26          6           0      -27.052314   -4.941503   -0.635182
     27          6           0      -26.434252   -4.603956   -2.099692
     28          6           0      -26.030132   -3.112736   -1.824518
     29          6           0      -26.279792   -6.035209    0.164811
     30          6           0      -27.434582   -4.694015   -3.284614
     31          6           0      -27.184869   -5.835627   -4.281485
     32          7           0      -25.185915   -0.245296   -1.740079
     33          6           0      -24.752969   -1.107890   -2.749792
     34          6           0      -23.948419   -0.364464   -3.744657
     35          6           0      -23.992390    0.943738   -3.207537
     36          6           0      -24.739499    0.959720   -1.999392
     37          6           0      -23.348292   -0.855055   -4.968860
     38          6           0      -23.623677    2.345670   -3.493518
     39          8           0      -23.073576    2.850943   -4.435764
     40          6           0      -24.168014    3.219428   -2.307801
     41          6           0      -23.051034    4.003709   -1.757320
     42          8           0      -22.159284    3.446160   -1.097433
     43          8           0      -23.165035    5.351294   -1.912834
     44          6           0      -22.214127    6.219304   -1.225456
     45          1           0      -27.376797    1.818625    3.603047
     46          1           0      -28.137932   -4.340052    1.774905
     47          1           0      -24.909136   -3.049938   -3.629551
     48          1           0      -24.441182    4.120806    0.566019
     49          1           0      -26.946775    3.967092    2.092607
     50          1           0      -24.022180    4.182514    2.995241
     51          1           0      -24.910146    2.841893    3.687312
     52          1           0      -25.467400    4.409931    3.898342
     53          1           0      -27.371139    4.733792    0.010604
     54          1           0      -26.436274    4.488949   -1.301277
     55          1           0      -26.696531    6.988062   -0.322387
     56          1           0      -25.098875    6.560108   -0.959023
     57          1           0      -28.600830    0.992840    5.149222
     58          1           0      -28.210890   -0.475683    5.979849
     59          1           0      -29.865541   -0.102655    5.238080
     60          1           0      -30.558320   -3.955793    5.647185
     61          1           0      -30.646688   -2.173674    5.531649
     62          1           0      -29.224563   -2.832134    6.211232
     63          1           0      -28.096840   -5.189609   -0.824068
     64          1           0      -25.531436   -5.175827   -2.313852
     65          1           0      -26.835887   -6.966121    0.276342
     66          1           0      -26.048130   -5.687883    1.172056
     67          1           0      -25.343857   -6.148146   -0.382854
     68          1           0      -27.475476   -3.785115   -3.883724
     69          1           0      -28.462460   -4.809979   -2.940232
     70          1           0      -26.689692   -6.661305   -3.770321
     71          1           0      -26.516387   -5.462894   -5.056928
     72          1           0      -28.144222   -6.055142   -4.748238
     73          1           0      -23.113667   -0.057476   -5.673438
     74          1           0      -23.965912   -1.587275   -5.488586
     75          1           0      -22.345206   -1.205624   -4.725481
     76          1           0      -24.911728    3.825970   -2.825730
     77          1           0      -21.187271    6.130223   -1.581094
     78          1           0      -22.289887    6.102942   -0.144377
     79          1           0      -22.463623    7.260949   -1.426911
     80         12           0       26.234770   -0.669937   -0.051037
     81          6           0       23.935925    1.634705    1.084700
     82          6           0       27.666484    2.005874   -1.953173
     83          6           0       28.260135   -2.802181   -1.466875
     84          6           0       24.551655   -3.219507    1.571314
     85          7           0       25.666950    1.568155   -0.533735
     86          6           0       24.848212    2.271907    0.230006
     87          6           0       25.138406    3.794162    0.103042
     88          6           0       25.911840    3.804496   -1.261744
     89          6           0       26.483914    2.378518   -1.305739
     90          6           0       24.970659    4.109117   -2.481014
     91          6           0       26.005309    4.168126    1.325924
     92          6           0       26.311656    5.659630    1.518269
     93          1           0       25.993609    6.651403    0.417343
     94          7           0       27.811180   -0.509336   -1.396794
     95          6           0       28.254075    0.701626   -2.031897
     96          6           0       29.494091    0.362856   -2.716769
     97          6           0       29.731164   -1.027776   -2.482916
     98          6           0       28.556934   -1.538831   -1.777199
     99          6           0       30.396028    1.387518   -3.500834
    100          6           0       31.005769   -1.846036   -2.874558
    101          8           0       30.986177   -3.034726   -2.707662
    102          6           0       32.192348   -1.164321   -3.474598
    103          7           0       26.440745   -2.735532    0.115481
    104          6           0       27.372943   -3.428995   -0.576163
    105          6           0       27.278619   -4.940044   -0.368012
    106          6           0       26.177867   -5.044157    0.712982
    107          6           0       25.679634   -3.545035    0.810064
    108          6           0       26.959593   -5.786201   -1.654944
    109          6           0       26.538880   -5.728593    2.006649
    110          6           0       27.848699   -5.389119    2.758116
    111          7           0       24.582036   -0.858801    1.091267
    112          6           0       24.007266   -1.938108    1.699073
    113          6           0       22.921640   -1.438935    2.516443
    114          6           0       22.836581   -0.012783    2.359030
    115          6           0       23.890808    0.271623    1.448413
    116          6           0       22.044949   -2.306246    3.364863
    117          6           0       22.122468    1.177962    2.676632
    118          8           0       21.112526    1.403511    3.378397
    119          6           0       22.697195    2.249697    1.599062
    120          6           0       22.767675    3.595529    2.322501
    121          8           0       23.311314    3.794892    3.340822
    122          8           0       22.050018    4.501550    1.594687
    123          6           0       22.256982    5.909141    1.866509
    124          1           0       28.055291    2.810576   -2.579934
    125          1           0       28.877072   -3.563678   -1.948539
    126          1           0       23.966091   -3.978548    2.092778
    127          1           0       24.226855    4.379768   -0.015389
    128          1           0       26.689683    4.552075   -1.104368
    129          1           0       25.131957    5.133564   -2.814296
    130          1           0       23.942629    3.948841   -2.155535
    131          1           0       25.183229    3.497783   -3.358092
    132          1           0       26.979548    3.700518    1.185825
    133          1           0       25.643173    3.703562    2.242548
    134          1           0       27.274191    5.841577    1.996833
    135          1           0       25.693352    5.949325    2.368110
    136          1           0       30.645699    1.038282   -4.503172
    137          1           0       31.269477    1.548957   -2.869276
    138          1           0       29.898956    2.357779   -3.533560
    139          1           0       33.006743   -1.814452   -3.154149
    140          1           0       32.403375   -0.201383   -3.010903
    141          1           0       32.168726   -0.815769   -4.507061
    142          1           0       28.254433   -5.230212    0.020819
    143          1           0       25.272000   -5.531274    0.352188
    144          1           0       26.334536   -6.610621   -1.312853
    145          1           0       27.949661   -6.130167   -1.954920
    146          1           0       26.561052   -5.146819   -2.442573
    147          1           0       26.780412   -6.722002    1.630119
    148          1           0       25.773970   -5.779704    2.782230
    149          1           0       28.584999   -6.180108    2.894298
    150          1           0       27.655724   -5.149176    3.803694
    151          1           0       28.361635   -4.581852    2.235115
    152          1           0       21.301122   -1.636132    3.794930
    153          1           0       22.619107   -2.716507    4.196688
    154          1           0       21.640384   -3.187946    2.868712
    155          1           0       21.989887    2.215040    0.770181
    156          1           0       21.187306    6.064363    2.007940
    157          1           0       22.789326    6.436698    1.074772
    158          1           0       22.761847    6.116724    2.810332
 ---------------------------------------------------------------------

 SCF Done:  E(RCAM-B3LYP) =  -4069.84413935     A.U. after   19 cycles

 Excitation energies and oscillator strengths:

 Excited State   1:      Singlet-A      1.7299 eV  716.71 nm  f=0.3989  <S**2>=0.000
     309 -> 316        0.18858
     312 -> 314        0.68235
     309 <- 316        0.10884
 This state for optimization and/or second-order correction.
 Total Energy, E(TD-HF/TD-DFT) =  -4069.78056672
 Copying the excited state density for this state as the 1-particle RhoCI density.

 Excited State   2:      Singlet-A      1.7338 eV  715.10 nm  f=0.3657  <S**2>=0.000
     310 -> 315        0.19608
     311 -> 313        0.68084
     310 <- 315        0.11066

 Excited State   3:      Singlet-A      2.2193 eV  558.65 nm  f=0.0916  <S**2>=0.000
     310 -> 313        0.63500
     311 -> 315       -0.29927

 Excited State   4:      Singlet-A      2.2550 eV  549.82 nm  f=0.0853  <S**2>=0.000
     309 -> 314        0.62548
     312 -> 316       -0.31649

 Excited State   5:      Singlet-A      3.1835 eV  389.46 nm  f=0.0000  <S**2>=0.000
     312 -> 313        0.70710

 The electronic state is 1-A.
 Alpha  occ. eigenvalues --  -46.88875 -46.88258 -19.25960 -19.24375 -19.20251
 Alpha  occ. eigenvalues --  -19.19287 -19.19086 -19.19033 -19.19006 -19.18356
 Alpha  occ. eigenvalues --  -14.41818 -14.41723 -14.41720 -14.41710 -14.39480
 Alpha  occ. eigenvalues --  -14.39296 -14.39264 -14.39234 -10.39547 -10.38906
 Alpha  occ. eigenvalues --  -10.35266 -10.35048 -10.34951 -10.34840 -10.32304
 Alpha  occ. eigenvalues --  -10.31453 -10.30903 -10.30702 -10.30637 -10.30610
 Alpha  occ. eigenvalues --  -10.30599 -10.30581 -10.30418 -10.30404 -10.30274
 Alpha  occ. eigenvalues --  -10.30095 -10.30006 -10.29909 -10.29614 -10.29303
 Alpha  occ. eigenvalues --  -10.29294 -10.29142 -10.28998 -10.28762 -10.28683
 Alpha  occ. eigenvalues --  -10.28590 -10.28447 -10.28384 -10.28269 -10.28066
 Alpha  occ. eigenvalues --  -10.27990 -10.27891 -10.27791 -10.27772 -10.27756
 Alpha  occ. eigenvalues --  -10.27686 -10.27645 -10.27612 -10.27573 -10.27572
 Alpha  occ. eigenvalues --  -10.27515 -10.27447 -10.27380 -10.27368 -10.27207
 Alpha  occ. eigenvalues --  -10.26977 -10.26732 -10.26549 -10.26473 -10.26457
 Alpha  occ. eigenvalues --  -10.26453 -10.26267 -10.26256 -10.26198 -10.26093
 Alpha  occ. eigenvalues --  -10.26057 -10.26054 -10.26005 -10.26000 -10.25781
 Alpha  occ. eigenvalues --  -10.25735 -10.25499 -10.25345 -10.25262 -10.25240
 Alpha  occ. eigenvalues --  -10.24936  -3.17298  -3.16895  -1.92219  -1.91795
 Alpha  occ. eigenvalues --   -1.91737  -1.91605  -1.91367  -1.91186  -1.17601
 Alpha  occ. eigenvalues --   -1.16425  -1.11514  -1.10936  -1.09790  -1.08909
 Alpha  occ. eigenvalues --   -1.07999  -1.07112  -1.05226  -1.05109  -1.04071
 Alpha  occ. eigenvalues --   -1.04040  -1.03364  -1.03043  -1.02066  -1.00946
 Alpha  occ. eigenvalues --   -0.93011  -0.92475  -0.89371  -0.89115  -0.88660
 Alpha  occ. eigenvalues --   -0.88529  -0.88269  -0.87697  -0.87298  -0.87182
 Alpha  occ. eigenvalues --   -0.86722  -0.86424  -0.86247  -0.85672  -0.84058
 Alpha  occ. eigenvalues --   -0.83933  -0.83726  -0.83554  -0.82420  -0.82314
 Alpha  occ. eigenvalues --   -0.81862  -0.81755  -0.81416  -0.81203  -0.80539
 Alpha  occ. eigenvalues --   -0.80272  -0.78425  -0.77986  -0.77544  -0.77351
 Alpha  occ. eigenvalues --   -0.77297  -0.76813  -0.76225  -0.75864  -0.75503
 Alpha  occ. eigenvalues --   -0.74879  -0.72676  -0.72584  -0.71998  -0.71496
 Alpha  occ. eigenvalues --   -0.70263  -0.69228  -0.68875  -0.68344  -0.68098
 Alpha  occ. eigenvalues --   -0.68017  -0.66908  -0.66194  -0.65824  -0.65434
 Alpha  occ. eigenvalues --   -0.65180  -0.65016  -0.64914  -0.64316  -0.64291
 Alpha  occ. eigenvalues --   -0.64147  -0.62713  -0.62364  -0.60499  -0.59838
 Alpha  occ. eigenvalues --   -0.59643  -0.59576  -0.59208  -0.59155  -0.58814
 Alpha  occ. eigenvalues --   -0.58738  -0.58211  -0.58136  -0.57911  -0.57276
 Alpha  occ. eigenvalues --   -0.56217  -0.56131  -0.56039  -0.55953  -0.55644
 Alpha  occ. eigenvalues --   -0.55343  -0.55330  -0.54708  -0.54219  -0.53962
 Alpha  occ. eigenvalues --   -0.53629  -0.53512  -0.53435  -0.52958  -0.52910
 Alpha  occ. eigenvalues --   -0.52772  -0.52402  -0.52385  -0.52301  -0.52203
 Alpha  occ. eigenvalues --   -0.52077  -0.51802  -0.51650  -0.51492  -0.51266
 Alpha  occ. eigenvalues --   -0.51155  -0.50755  -0.50712  -0.50195  -0.50141
 Alpha  occ. eigenvalues --   -0.49981  -0.49949  -0.49830  -0.49685  -0.49554
 Alpha  occ. eigenvalues --   -0.49355  -0.49318  -0.49304  -0.48979  -0.48767
 Alpha  occ. eigenvalues --   -0.48525  -0.48461  -0.48226  -0.48133  -0.48099
 Alpha  occ. eigenvalues --   -0.47970  -0.47937  -0.47632  -0.47457  -0.47185
 Alpha  occ. eigenvalues --   -0.47092  -0.46842  -0.46684  -0.46616  -0.46539
 Alpha  occ. eigenvalues --   -0.46275  -0.45953  -0.45855  -0.45830  -0.45692
 Alpha  occ. eigenvalues --   -0.45579  -0.45499  -0.45201  -0.45186  -0.45005
 Alpha  occ. eigenvalues --   -0.44906  -0.44734  -0.44515  -0.44313  -0.43853
 Alpha  occ. eigenvalues --   -0.43790  -0.43586  -0.43477  -0.43353  -0.43257
 Alpha  occ. eigenvalues --   -0.43150  -0.42996  -0.42973  -0.42852  -0.42689
 Alpha  occ. eigenvalues --   -0.42605  -0.42299  -0.42129  -0.42081  -0.41983
 Alpha  occ. eigenvalues --   -0.41872  -0.41828  -0.41563  -0.41474  -0.41425
 Alpha  occ. eigenvalues --   -0.41140  -0.40985  -0.40897  -0.40673  -0.40322
 Alpha  occ. eigenvalues --   -0.40217  -0.39978  -0.39546  -0.39525  -0.39436
 Alpha  occ. eigenvalues --   -0.38393  -0.38174  -0.37945  -0.37504  -0.37462
 Alpha  occ. eigenvalues --   -0.37206  -0.37124  -0.36699  -0.36610  -0.36380
 Alpha  occ. eigenvalues --   -0.36010  -0.35845  -0.35127  -0.34026  -0.33956
 Alpha  occ. eigenvalues --   -0.33953  -0.33338  -0.33101  -0.31574  -0.31120
 Alpha  occ. eigenvalues --   -0.31004  -0.30881  -0.30681  -0.30411  -0.30050
 Alpha  occ. eigenvalues --   -0.29814  -0.29492  -0.29355  -0.23869  -0.23802
 Alpha  occ. eigenvalues --   -0.21089  -0.20790
 Alpha virt. eigenvalues --   -0.08428  -0.08277  -0.01880  -0.01708   0.00197
 Alpha virt. eigenvalues --    0.00558   0.02559   0.02617   0.03033   0.03104
 Alpha virt. eigenvalues --    0.04481   0.05250   0.05344   0.05860   0.06018

 Mulliken charges:
               1
     1  Mg   0.814808
     2  C   -0.017280
     3  C   -0.070462
     4  C   -0.047061
     5  C   -0.073581
     6  N   -0.243887
     7  C   -0.051321
     8  C   -0.008528
     9  C    0.010429
    10  C   -0.041603
    11  C    0.066171
    12  C    0.061615
    13  C   -0.064247
    14  H    0.001629
    15  N   -0.381038
    16  C    0.179995
    17  C   -0.151787
    18  C   -0.018598
    19  C    0.094795
    20  C    0.107320
    21  C   -0.005729
    22  O   -0.232220
    23  C    0.074379
    24  N   -0.261017
    25  C    0.046063
    26  C   -0.044087
    27  C   -0.048512
    28  C    0.017404
    29  C    0.079023
    30  C    0.027474
    31  C    0.003016
    32  N   -0.356648
    33  C    0.120869
    34  C   -0.150016
    35  C   -0.006750
    36  C    0.104779
    37  C    0.121501
    38  C    0.014259
    39  O   -0.146085
    40  C    0.025570
    41  C    0.218324
    42  O   -0.248899
    43  O   -0.321516
    44  C    0.184509
    45  H   -0.049193
    46  H    0.001132
    47  H   -0.028730
    48  H    0.022855
    49  H    0.008023
    50  H    0.027385
    51  H    0.010406
    52  H    0.004941
    53  H   -0.006439
    54  H    0.001653
    55  H    0.031394
    56  H    0.046809
    57  H    0.002024
    58  H    0.041601
    59  H    0.029949
    60  H    0.037757
    61  H    0.020616
    62  H    0.031157
    63  H    0.014337
    64  H    0.014673
    65  H    0.025702
    66  H    0.024995
    67  H    0.008097
    68  H    0.007530
    69  H    0.001692
    70  H    0.019691
    71  H    0.010866
    72  H    0.018611
    73  H    0.025096
    74  H    0.026357
    75  H    0.033635
    76  H    0.036801
    77  H    0.048277
    78  H    0.035155
    79  H    0.032086
    80  Mg   0.826079
    81  C   -0.012328
    82  C   -0.069452
    83  C   -0.074876
    84  C   -0.110726
    85  N   -0.226805
    86  C   -0.083338
    87  C   -0.038284
    88  C   -0.040662
    89  C    0.001565
    90  C    0.086682
    91  C    0.038278
    92  C   -0.033806
    93  H    0.030046
    94  N   -0.395517
    95  C    0.163788
    96  C   -0.171014
    97  C   -0.041640
    98  C    0.168862
    99  C    0.109759
   100  C    0.017407
   101  O   -0.181338
   102  C    0.052856
   103  N   -0.266016
   104  C   -0.012123
   105  C   -0.046933
   106  C   -0.006103
   107  C    0.066915
   108  C    0.083996
   109  C    0.038661
   110  C   -0.018430
   111  N   -0.393956
   112  C    0.127037
   113  C   -0.170476
   114  C    0.015087
   115  C    0.149481
   116  C    0.114105
   117  C    0.076147
   118  O   -0.199735
   119  C   -0.076675
   120  C    0.177524
   121  O   -0.154514
   122  O   -0.338132
   123  C    0.149816
   124  H   -0.021746
   125  H   -0.018198
   126  H   -0.032783
   127  H   -0.002264
   128  H   -0.002015
   129  H    0.017265
   130  H    0.023479
   131  H    0.018048
   132  H    0.001265
   133  H    0.042092
   134  H    0.018694
   135  H    0.015671
   136  H    0.037186
   137  H    0.036360
   138  H    0.006411
   139  H    0.032705
   140  H   -0.000058
   141  H    0.047140
   142  H    0.021803
   143  H    0.003777
   144  H    0.024780
   145  H    0.025994
   146  H    0.031893
   147  H    0.004411
   148  H    0.015881
   149  H    0.010602
   150  H    0.010198
   151  H    0.020207
   152  H    0.037313
   153  H    0.019387
   154  H    0.024893
   155  H    0.054950
   156  H    0.050936
   157  H    0.046127
   158  H    0.046386
 Sum of Mulliken charges =  -0.00000

 Dipole moment (field-independent basis, Debye):
    X=              0.6654    Y=              2.5398    Z=             -0.8532  Tot=              2.7607
 Quadrupole moment (field-independent basis, Debye-Ang):
   XX=           -232.2161   YY=           -466.6723   ZZ=           -514.6620
   XY=            -22.6931   XZ=           -108.2168   YZ=              4.2932

 Normal termination of Gaussian 16 at Thu Sep  2 04:26:49 2021.
