 Gaussian 16, Revision A.03,
 Gaussian 16:  ES64L-G16RevA.03 25-Dec-2016

 ---------------------------------------------------
 #p cam-b3lyp/Def2SVP td=(nstates=5) density=(CIS=1)
 ---------------------------------------------------

 --------------------------------
 TDDFT excited states in gaussian
 --------------------------------
 Symbolic Z-matrix:
 Charge =  0 Multiplicity = 1

                         Standard orientation:
 ---------------------------------------------------------------------
 Center     Atomic      Atomic             Coordinates (Angstroms)
 Number     Number       Type             X           Y           Z
 ---------------------------------------------------------------------
      1         12           0        0.592547   -0.007623    0.254296
      2          6           0       -2.810153   -0.053437   -0.044704
      3          6           0        0.527936   -3.532987   -0.225560
      4          6           0        3.964762    0.041792    0.146414
      5          6           0        0.557333    3.443940   -0.217518
      6          7           0       -1.025282   -1.608243   -0.488317
      7          6           0       -2.353009   -1.379405   -0.284622
      8          6           0       -3.137056   -2.626996   -0.584185
      9          6           0       -2.037361   -3.772288   -0.676507
     10          6           0       -0.717370   -2.972648   -0.439044
     11          6           0       -2.376021   -5.068187   -0.035042
     12          6           0       -4.210970   -2.627706   -1.772499
     13          6           0       -3.950023   -1.754902   -2.964173
     14          1           0       -4.103533   -2.394554   -4.336970
     15          7           0        2.016890   -1.553701    0.235725
     16          6           0        1.813121   -2.888202    0.067378
     17          6           0        3.042301   -3.624871    0.059680
     18          6           0        4.078715   -2.580024    0.290871
     19          6           0        3.367422   -1.284055    0.238262
     20          6           0        3.242390   -5.057628   -0.085745
     21          6           0        5.571911   -2.753365    0.528924
     22          8           0        6.081930   -3.808802    0.396128
     23          6           0        6.560164   -1.663445    0.839171
     24          7           0        2.016501    1.484394   -0.125361
     25          6           0        3.324532    1.260026    0.072280
     26          6           0        4.192984    2.571362   -0.306110
     27          6           0        3.066758    3.684001   -0.035724
     28          6           0        1.831874    2.828239   -0.188418
     29          6           0        5.470529    2.784043    0.510793
     30          6           0        3.214724    4.916746   -0.945715
     31          6           0        3.152417    6.333684   -0.363272
     32          7           0       -0.822194    1.417055   -0.178264
     33          6           0       -0.732989    2.797467   -0.307806
     34          6           0       -2.009048    3.396869   -0.370864
     35          6           0       -2.898635    2.346002   -0.219620
     36          6           0       -2.131871    1.132844   -0.102867
     37          6           0       -2.335320    4.853921   -0.485017
     38          6           0       -4.226141    1.912133   -0.080458
     39          8           0       -5.241469    2.604498   -0.112385
     40          6           0       -4.260222    0.358248   -0.136456
     41          6           0       -5.102872   -0.011742    1.075302
     42          8           0       -6.097165   -0.767006    1.033687
     43          8           0       -4.481685    0.511410    2.184818
     44          6           0       -4.888404    0.142329    3.562801
     45          1           0        0.449038   -4.586515   -0.501572
     46          1           0        5.030521    0.046681   -0.090961
     47          1           0        0.554136    4.532950   -0.293562
     48          1           0       -3.810258   -2.818057    0.252317
     49          1           0       -1.944110   -4.009391   -1.735919
     50          1           0       -1.584267   -5.454757    0.606557
     51          1           0       -2.738567   -5.802463   -0.754433
     52          1           0       -3.202771   -4.919291    0.659585
     53          1           0       -5.210733   -2.310666   -1.475521
     54          1           0       -4.236519   -3.614832   -2.235108
     55          1           0       -3.054453   -1.138696   -2.891804
     56          1           0       -4.779147   -1.049018   -3.023075
     57          1           0        2.379524   -5.575009    0.332471
     58          1           0        4.145479   -5.432237    0.394649
     59          1           0        3.305273   -5.256364   -1.156237
     60          1           0        5.849994   -1.044961    1.388539
     61          1           0        6.919314   -1.149304   -0.051782
     62          1           0        7.432084   -1.935790    1.434111
     63          1           0        4.359502    2.512353   -1.382127
     64          1           0        2.963943    4.089486    0.970508
     65          1           0        5.268456    3.599891    1.205347
     66          1           0        6.335560    2.850672   -0.148400
     67          1           0        5.727309    1.928667    1.134982
     68          1           0        2.433703    4.837732   -1.702402
     69          1           0        4.126037    4.790321   -1.530395
     70          1           0        3.934406    7.043848   -0.632513
     71          1           0        3.002143    6.343516    0.717069
     72          1           0        2.164824    6.661828   -0.685861
     73          1           0       -3.239983    5.161293    0.040140
     74          1           0       -2.445598    5.099821   -1.541430
     75          1           0       -1.570028    5.501898   -0.055754
     76          1           0       -4.751634    0.164557   -1.089145
     77          1           0       -4.038042    0.034340    4.235870
     78          1           0       -5.427735   -0.803764    3.513899
     79          1           0       -5.563176    0.779398    4.133207
 ---------------------------------------------------------------------

 SCF Done:  E(RCAM-B3LYP) =  -2034.85340024     A.U. after   19 cycles

 Excitation energies and oscillator strengths:

 Excited State   1:      Singlet-A      1.6348 eV  758.43 nm  f=0.0000  <S**2>=0.000
     155 ->158         0.16921
     156 ->157         0.68878
     155 <-158         0.10875
 This state for optimization and/or second-order correction.
 Total Energy, E(TD-HF/TD-DFT) =  -2034.79332414
 Copying the excited state density for this state as the 1-particle RhoCI density.

 Excited State   2:      Singlet-A      2.1488 eV  576.98 nm  f=0.0000  <S**2>=0.000
     155 ->157         0.65209
     156 ->158        -0.25547

 Excited State   3:      Singlet-A      2.9495 eV  420.36 nm  f=0.0000  <S**2>=0.000
     153 ->157         0.14067
     154 ->157         0.66760

 Excited State   4:      Singlet-A      3.1607 eV  392.27 nm  f=0.0000  <S**2>=0.000
     151 ->157         0.26399
     151 ->159        -0.13964
     152 ->157         0.55648
     152 ->159        -0.19656
     152 ->160         0.11412

 Excited State   5:      Singlet-A      3.3256 eV  372.82 nm  f=0.0000  <S**2>=0.000
     151 ->157         0.15982
     152 ->157        -0.10306
     153 ->157         0.57945
     153 ->159         0.13939
     153 ->161        -0.16644
     154 ->161         0.14185

 The electronic state is 1-A.
 Alpha  occ. eigenvalues --  -46.89970 -19.26244 -19.20346 -19.18499 -19.17260
 Alpha  occ. eigenvalues --  -14.42603 -14.42056 -14.40075 -14.39681 -10.40499
 Alpha  occ. eigenvalues --  -10.34298 -10.33597 -10.32843 -10.32114 -10.31627
 Alpha  occ. eigenvalues --  -10.31033 -10.30947 -10.30781 -10.30718 -10.30198
 Alpha  occ. eigenvalues --  -10.29411 -10.28917 -10.28877 -10.28484 -10.28455
 Alpha  occ. eigenvalues --  -10.28316 -10.28221 -10.27991 -10.27982 -10.27825
 Alpha  occ. eigenvalues --  -10.27540 -10.27532 -10.27252 -10.26811 -10.26799
 Alpha  occ. eigenvalues --  -10.26753 -10.26713 -10.26365 -10.26243 -10.26089
 Alpha  occ. eigenvalues --  -10.25536 -10.25185 -10.25103  -3.18441  -1.93300
 Alpha  occ. eigenvalues --   -1.92934  -1.92717  -1.15704  -1.11437  -1.09379
 Alpha  occ. eigenvalues --   -1.07275  -1.05192  -1.04387  -1.02960  -1.02180
 Alpha  occ. eigenvalues --   -0.93716  -0.89866  -0.88762  -0.88429  -0.87967
 Alpha  occ. eigenvalues --   -0.87277  -0.85912  -0.84577  -0.84022  -0.83126
 Alpha  occ. eigenvalues --   -0.82203  -0.81010  -0.80616  -0.78543  -0.77833
 Alpha  occ. eigenvalues --   -0.77020  -0.76723  -0.75504  -0.73614  -0.71781
 Alpha  occ. eigenvalues --   -0.70058  -0.69417  -0.68433  -0.66596  -0.66300
 Alpha  occ. eigenvalues --   -0.65520  -0.64743  -0.64429  -0.63623  -0.60309
 Alpha  occ. eigenvalues --   -0.59423  -0.58916  -0.58092  -0.57651  -0.57247
 Alpha  occ. eigenvalues --   -0.56558  -0.55826  -0.55356  -0.55140  -0.54493
 Alpha  occ. eigenvalues --   -0.54000  -0.53302  -0.53211  -0.52538  -0.52105
 Alpha  occ. eigenvalues --   -0.51874  -0.51832  -0.51379  -0.51108  -0.50720
 Alpha  occ. eigenvalues --   -0.50620  -0.50009  -0.49742  -0.49490  -0.49211
 Alpha  occ. eigenvalues --   -0.49025  -0.48256  -0.47898  -0.47588  -0.47333
 Alpha  occ. eigenvalues --   -0.47251  -0.47111  -0.46928  -0.46441  -0.46170
 Alpha  occ. eigenvalues --   -0.45643  -0.45557  -0.45345  -0.45048  -0.44912
 Alpha  occ. eigenvalues --   -0.44182  -0.44027  -0.43410  -0.43099  -0.42735
 Alpha  occ. eigenvalues --   -0.42664  -0.42401  -0.42103  -0.41971  -0.41754
 Alpha  occ. eigenvalues --   -0.41511  -0.41313  -0.40590  -0.40256  -0.39059
 Alpha  occ. eigenvalues --   -0.38702  -0.38012  -0.37393  -0.36908  -0.36176
 Alpha  occ. eigenvalues --   -0.35629  -0.34809  -0.33890  -0.33109  -0.31594
 Alpha  occ. eigenvalues --   -0.30920  -0.30531  -0.29571  -0.28375  -0.24486
 Alpha  occ. eigenvalues --   -0.21743
 Alpha virt. eigenvalues --   -0.09690  -0.01983   0.00120   0.00977   0.02669
 Alpha virt. eigenvalues --    0.04546   0.04889   0.05887   0.06807   0.07909
 Alpha virt. eigenvalues --    0.08235   0.09008   0.09589   0.09845   0.10485

 Mulliken charges:
               1
     1  Mg   0.814364
     2  C   -0.032023
     3  C   -0.112797
     4  C   -0.115389
     5  C   -0.134926
     6  N   -0.344496
     7  C   -0.000058
     8  C    0.020891
     9  C   -0.035633
    10  C    0.075313
    11  C    0.091772
    12  C    0.037280
    13  C   -0.113270
    14  H    0.011923
    15  N   -0.365680
    16  C    0.207129
    17  C   -0.159406
    18  C   -0.055445
    19  C    0.173895
    20  C    0.137638
    21  C   -0.039093
    22  O   -0.182042
    23  C    0.046571
    24  N   -0.344323
    25  C    0.119554
    26  C   -0.084967
    27  C   -0.035870
    28  C    0.087797
    29  C    0.096624
    30  C    0.031499
    31  C    0.010326
    32  N   -0.355603
    33  C    0.142294
    34  C   -0.202298
    35  C    0.096754
    36  C    0.099448
    37  C    0.118910
    38  C   -0.035966
    39  O   -0.194348
    40  C   -0.039074
    41  C    0.242569
    42  O   -0.225312
    43  O   -0.349592
    44  C    0.180437
    45  H   -0.016036
    46  H   -0.018020
    47  H   -0.038208
    48  H    0.019613
    49  H    0.026977
    50  H    0.014214
    51  H    0.019077
    52  H    0.006094
    53  H    0.034734
    54  H    0.021173
    55  H    0.043241
    56  H    0.033939
    57  H    0.010813
    58  H    0.039862
    59  H    0.030521
    60  H    0.015301
    61  H    0.048795
    62  H    0.030931
    63  H    0.032821
    64  H    0.019773
    65  H    0.017212
    66  H    0.016932
    67  H    0.012275
    68  H    0.005342
    69  H    0.002758
    70  H    0.033144
    71  H    0.005144
    72  H    0.010923
    73  H    0.037009
    74  H    0.035930
    75  H    0.010446
    76  H    0.036831
    77  H    0.035761
    78  H    0.037890
    79  H    0.041410
 Sum of Mulliken charges =  -0.00000

 Dipole moment (field-independent basis, Debye):
    X=              4.7073    Y=              0.4009    Z=              2.0863  Tot=              5.1645
 Quadrupole moment (field-independent basis, Debye-Ang):
   XX=           -300.6457   YY=           -246.2191   ZZ=           -245.4787
   XY=             41.9197   XZ=             -7.5069   YZ=              2.8629

 Normal termination of Gaussian 16 at Fri Oct  8 18:19:17 2021.
