 Gaussian 16, Revision A.03,
 Gaussian 16:  ES64L-G16RevA.03 25-Dec-2016

 ----------------------------------------------------------
 #p cam-b3lyp/Def2SVP td=(nstates=5) density=(transition=1)
 ----------------------------------------------------------

 --------------------------------
 TDDFT excited states in gaussian
 --------------------------------
 Symbolic Z-matrix:
 Charge =  0 Multiplicity = 1

                         Standard orientation:
 ---------------------------------------------------------------------
 Center     Atomic      Atomic             Coordinates (Angstroms)
 Number     Number       Type             X           Y           Z
 ---------------------------------------------------------------------
      1         12           0       24.606041   -0.824302    0.089716
      2          6           0       26.019977    2.264198   -0.457605
      3          6           0       22.923766    0.545872    2.837653
      4          6           0       23.246986   -3.841774    0.754713
      5          6           0       26.547542   -2.169298   -2.347252
      6          7           0       24.713597    1.151546    1.224798
      7          6           0       25.196122    2.326157    0.634273
      8          6           0       24.672870    3.589403    1.346053
      9          6           0       23.771695    2.941875    2.461060
     10          6           0       23.730029    1.456700    2.172087
     11          6           0       24.258852    3.242797    3.872820
     12          6           0       23.903141    4.680823    0.521202
     13          6           0       24.628165    6.123360    0.344818
     14          1           0       23.770136    7.250526    0.927724
     15          7           0       23.380590   -1.572915    1.608526
     16          6           0       22.690797   -0.813937    2.567735
     17          6           0       21.666401   -1.614650    3.246303
     18          6           0       21.770748   -3.007598    2.704773
     19          6           0       22.786275   -2.869652    1.585793
     20          6           0       20.755767   -1.056927    4.317869
     21          6           0       21.072785   -4.235089    3.058620
     22          8           0       21.403614   -5.305653    2.527847
     23          6           0       19.982685   -4.293792    4.114342
     24          7           0       24.939876   -2.667060   -0.627836
     25          6           0       24.163217   -3.796102   -0.308057
     26          6           0       24.430413   -5.068737   -1.209197
     27          6           0       25.554626   -4.451858   -2.191099
     28          6           0       25.672342   -2.992592   -1.695990
     29          6           0       24.927112   -6.367205   -0.401412
     30          6           0       25.133978   -4.563554   -3.696902
     31          6           0       26.198380   -4.875927   -4.701608
     32          7           0       26.102547   -0.093985   -1.100012
     33          6           0       26.786615   -0.768631   -2.115312
     34          6           0       27.581857    0.131742   -2.878158
     35          6           0       27.224987    1.404503   -2.297025
     36          6           0       26.396775    1.161754   -1.193892
     37          6           0       28.444856   -0.086905   -4.049243
     38          6           0       27.541323    2.798260   -2.322861
     39          8           0       28.232697    3.525056   -3.044921
     40          6           0       26.863115    3.391237   -1.005519
     41          6           0       27.932049    3.894840   -0.102920
     42          8           0       28.402364    3.374603    0.831030
     43          8           0       28.265180    5.205450   -0.436929
     44          6           0       28.816788    5.992818    0.646085
     45          1           0       22.335517    1.001096    3.637184
     46          1           0       22.830726   -4.849086    0.820855
     47          1           0       27.059323   -2.566036   -3.226489
     48          1           0       25.510956    4.081413    1.838475
     49          1           0       22.767871    3.367530    2.466506
     50          1           0       24.584348    2.311679    4.335918
     51          1           0       23.357048    3.609609    4.361535
     52          1           0       25.008390    4.029144    3.959447
     53          1           0       22.936527    4.839302    1.000021
     54          1           0       23.731455    4.353425   -0.504289
     55          1           0       24.636696    6.241082   -0.738918
     56          1           0       25.615141    6.112154    0.806722
     57          1           0       21.369457   -0.927905    5.210265
     58          1           0       19.973836   -1.790417    4.508428
     59          1           0       20.387684   -0.054758    4.097100
     60          1           0       19.894850   -5.347000    4.381846
     61          1           0       19.028228   -3.881248    3.785689
     62          1           0       20.214507   -3.881640    5.096228
     63          1           0       23.559058   -5.269054   -1.831822
     64          1           0       26.517649   -4.962288   -2.165233
     65          1           0       25.688871   -6.870718   -0.997008
     66          1           0       24.201701   -7.168912   -0.268498
     67          1           0       25.324732   -6.129328    0.585406
     68          1           0       24.581061   -3.700238   -4.066770
     69          1           0       24.457657   -5.398365   -3.879698
     70          1           0       26.284676   -3.967923   -5.298205
     71          1           0       26.009700   -5.588975   -5.504149
     72          1           0       27.137316   -5.088933   -4.189555
     73          1           0       28.074538   -0.958443   -4.589745
     74          1           0       29.417493   -0.323827   -3.618198
     75          1           0       28.557247    0.858649   -4.580051
     76          1           0       26.206090    4.220914   -1.265188
     77          1           0       29.843601    5.638034    0.728084
     78          1           0       28.246827    5.711390    1.531403
     79          1           0       28.812522    7.057567    0.411110
     80         12           0      -25.549504   -0.392886   -0.210198
     81          6           0      -24.046169    2.698835   -0.845327
     82          6           0      -25.930594    0.591956    3.074858
     83          6           0      -26.363637   -3.601992    0.620395
     84          6           0      -24.506453   -1.457625   -3.336115
     85          7           0      -25.116738    1.451945    0.883484
     86          6           0      -24.713969    2.622734    0.373244
     87          6           0      -24.865711    3.821731    1.320751
     88          6           0      -25.300123    3.107612    2.657810
     89          6           0      -25.574849    1.572712    2.184804
     90          6           0      -24.320151    3.180365    3.848631
     91          6           0      -25.839982    4.896542    0.838151
     92          6           0      -25.525871    6.296799    1.395549
     93          1           0      -24.341452    6.474568    2.355991
     94          7           0      -26.180698   -1.363018    1.550070
     95          6           0      -26.342403   -0.759800    2.818671
     96          6           0      -26.857836   -1.757691    3.734404
     97          6           0      -26.931562   -3.025562    3.045648
     98          6           0      -26.522793   -2.705090    1.678955
     99          6           0      -27.298199   -1.381659    5.122408
    100          6           0      -27.494713   -4.436108    3.531004
    101          8           0      -27.630682   -5.390756    2.804882
    102          6           0      -27.851853   -4.546477    4.997402
    103          7           0      -25.362547   -2.258944   -1.169956
    104          6           0      -25.798814   -3.445831   -0.658036
    105          6           0      -25.640617   -4.630692   -1.680666
    106          6           0      -25.123412   -3.891635   -2.913737
    107          6           0      -24.986907   -2.457855   -2.437025
    108          6           0      -24.848058   -5.947073   -1.304899
    109          6           0      -26.106618   -4.024920   -4.100267
    110          6           0      -27.326941   -3.080152   -4.168314
    111          7           0      -24.617064    0.433339   -1.894164
    112          6           0      -24.254727   -0.112254   -3.098411
    113          6           0      -23.630136    0.855278   -3.936919
    114          6           0      -23.507107    2.033849   -3.072027
    115          6           0      -24.077891    1.703787   -1.904917
    116          6           0      -23.148061    0.781194   -5.317846
    117          6           0      -22.929631    3.364265   -2.939749
    118          8           0      -22.378885    4.078557   -3.784307
    119          6           0      -23.245761    3.878703   -1.504471
    120          6           0      -22.027689    4.224799   -0.779114
    121          8           0      -21.254848    3.434887   -0.247138
    122          8           0      -21.751034    5.554775   -0.973895
    123          6           0      -20.391163    6.065048   -0.712268
    124          1           0      -25.988115    0.979822    4.094231
    125          1           0      -26.792480   -4.586231    0.819797
    126          1           0      -24.263198   -1.760960   -4.356503
    127          1           0      -23.900336    4.264063    1.565664
    128          1           0      -26.297470    3.388717    2.994118
    129          1           0      -24.984133    3.566659    4.621736
    130          1           0      -23.512573    3.881926    3.640876
    131          1           0      -23.902824    2.195977    4.060923
    132          1           0      -26.874626    4.643949    1.066953
    133          1           0      -25.809555    4.969681   -0.249298
    134          1           0      -26.470155    6.530001    1.887965
    135          1           0      -25.462679    7.045066    0.604190
    136          1           0      -26.953391   -0.357942    5.268500
    137          1           0      -26.846162   -2.069759    5.837066
    138          1           0      -28.378675   -1.445569    5.259674
    139          1           0      -27.026316   -4.625932    5.705452
    140          1           0      -28.543084   -5.382114    5.106941
    141          1           0      -28.400827   -3.619327    5.161720
    142          1           0      -26.679111   -4.943146   -1.787831
    143          1           0      -24.160087   -4.338782   -3.156356
    144          1           0      -24.120151   -6.268299   -2.048993
    145          1           0      -25.565869   -6.763863   -1.236388
    146          1           0      -24.412862   -5.798741   -0.316168
    147          1           0      -26.433881   -5.063812   -4.084841
    148          1           0      -25.484701   -3.899217   -4.987049
    149          1           0      -28.147191   -3.720270   -4.492180
    150          1           0      -27.224357   -2.295253   -4.917301
    151          1           0      -27.530066   -2.540609   -3.243926
    152          1           0      -23.428619    1.709345   -5.814540
    153          1           0      -23.515145   -0.063605   -5.900734
    154          1           0      -22.059773    0.842684   -5.334467
    155          1           0      -23.894231    4.738655   -1.671343
    156          1           0      -19.731038    5.293390   -0.314664
    157          1           0      -20.471636    6.847198    0.043026
    158          1           0      -20.105103    6.402415   -1.707866
 ---------------------------------------------------------------------

 SCF Done:  E(RCAM-B3LYP) =  -4069.81196072     A.U. after   19 cycles

 Excitation energies and oscillator strengths:

 Excited State   1:      Singlet-A      1.6721 eV  741.49 nm  f=0.4076  <S**2>=0.000
     309 -> 315        0.15727
     311 -> 313        0.68850
 This state for optimization and/or second-order correction.
 Total Energy, E(TD-HF/TD-DFT) =  -4069.75051267
 Copying the excited state density for this state as the 1-particle RhoCI density.

 Excited State   2:      Singlet-A      1.7177 eV  721.80 nm  f=0.4125  <S**2>=0.000
     310 -> 316        0.18152
     312 -> 314        0.68399
     310 <- 316        0.10677

 Excited State   3:      Singlet-A      2.1355 eV  580.60 nm  f=0.1569  <S**2>=0.000
     310 -> 314        0.65932
     312 -> 316       -0.23565

 Excited State   4:      Singlet-A      2.1913 eV  565.80 nm  f=0.1267  <S**2>=0.000
     309 -> 313        0.64543
     311 -> 315       -0.25764

 Excited State   5:      Singlet-A      3.0907 eV  401.15 nm  f=0.0000  <S**2>=0.000
     312 -> 313        0.70710

 The electronic state is 1-A.
 Alpha  occ. eigenvalues --  -46.88261 -46.87929 -19.23895 -19.22172 -19.19961
 Alpha  occ. eigenvalues --  -19.19588 -19.19006 -19.18857 -19.18724 -19.17953
 Alpha  occ. eigenvalues --  -14.42561 -14.42297 -14.41997 -14.41910 -14.40272
 Alpha  occ. eigenvalues --  -14.39448 -14.38584 -14.38181 -10.38703 -10.38109
 Alpha  occ. eigenvalues --  -10.36204 -10.35334 -10.35104 -10.34205 -10.31830
 Alpha  occ. eigenvalues --  -10.31288 -10.31190 -10.31050 -10.31033 -10.30903
 Alpha  occ. eigenvalues --  -10.30897 -10.30760 -10.30728 -10.30690 -10.30620
 Alpha  occ. eigenvalues --  -10.30469 -10.30336 -10.30280 -10.29889 -10.29530
 Alpha  occ. eigenvalues --  -10.29289 -10.29238 -10.28892 -10.28870 -10.28594
 Alpha  occ. eigenvalues --  -10.28558 -10.28290 -10.28255 -10.28251 -10.28171
 Alpha  occ. eigenvalues --  -10.28129 -10.27860 -10.27794 -10.27752 -10.27713
 Alpha  occ. eigenvalues --  -10.27680 -10.27611 -10.27592 -10.27588 -10.27470
 Alpha  occ. eigenvalues --  -10.27439 -10.27311 -10.27163 -10.27142 -10.27019
 Alpha  occ. eigenvalues --  -10.26965 -10.26931 -10.26609 -10.26539 -10.26491
 Alpha  occ. eigenvalues --  -10.26483 -10.26458 -10.26362 -10.26339 -10.26187
 Alpha  occ. eigenvalues --  -10.26001 -10.25982 -10.25936 -10.25880 -10.25867
 Alpha  occ. eigenvalues --  -10.25824 -10.25816 -10.25487 -10.25325 -10.24776
 Alpha  occ. eigenvalues --  -10.24489  -3.16786  -3.16690  -1.91687  -1.91559
 Alpha  occ. eigenvalues --   -1.91239  -1.91155  -1.91093  -1.91008  -1.16779
 Alpha  occ. eigenvalues --   -1.15110  -1.11599  -1.09563  -1.08885  -1.08118
 Alpha  occ. eigenvalues --   -1.07720  -1.06665  -1.04635  -1.04468  -1.03435
 Alpha  occ. eigenvalues --   -1.03346  -1.02465  -1.02067  -1.01039  -1.00628
 Alpha  occ. eigenvalues --   -0.92592  -0.92093  -0.89199  -0.89189  -0.88826
 Alpha  occ. eigenvalues --   -0.88621  -0.88503  -0.88157  -0.87352  -0.87204
 Alpha  occ. eigenvalues --   -0.87114  -0.86678  -0.86477  -0.86106  -0.84227
 Alpha  occ. eigenvalues --   -0.84220  -0.83466  -0.83457  -0.82409  -0.82357
 Alpha  occ. eigenvalues --   -0.81983  -0.81895  -0.81019  -0.80870  -0.80228
 Alpha  occ. eigenvalues --   -0.80190  -0.78779  -0.78146  -0.77406  -0.77158
 Alpha  occ. eigenvalues --   -0.76858  -0.76696  -0.75921  -0.75264  -0.75236
 Alpha  occ. eigenvalues --   -0.75032  -0.73070  -0.72451  -0.71692  -0.71112
 Alpha  occ. eigenvalues --   -0.69837  -0.69331  -0.68694  -0.68467  -0.67948
 Alpha  occ. eigenvalues --   -0.67706  -0.67554  -0.66097  -0.65674  -0.65307
 Alpha  occ. eigenvalues --   -0.64999  -0.64785  -0.64720  -0.64461  -0.63890
 Alpha  occ. eigenvalues --   -0.63745  -0.61421  -0.60861  -0.60190  -0.59790
 Alpha  occ. eigenvalues --   -0.59405  -0.59110  -0.59102  -0.59003  -0.58463
 Alpha  occ. eigenvalues --   -0.58336  -0.58298  -0.57699  -0.57686  -0.57430
 Alpha  occ. eigenvalues --   -0.56508  -0.55875  -0.55578  -0.55456  -0.55289
 Alpha  occ. eigenvalues --   -0.55191  -0.54680  -0.53930  -0.53726  -0.53631
 Alpha  occ. eigenvalues --   -0.53367  -0.53268  -0.52998  -0.52887  -0.52699
 Alpha  occ. eigenvalues --   -0.52674  -0.52345  -0.52282  -0.52156  -0.52154
 Alpha  occ. eigenvalues --   -0.51995  -0.51631  -0.51606  -0.51367  -0.51191
 Alpha  occ. eigenvalues --   -0.50822  -0.50758  -0.50657  -0.50561  -0.50242
 Alpha  occ. eigenvalues --   -0.50129  -0.50008  -0.49792  -0.49688  -0.49626
 Alpha  occ. eigenvalues --   -0.49601  -0.49386  -0.49079  -0.49021  -0.48969
 Alpha  occ. eigenvalues --   -0.48590  -0.48562  -0.48539  -0.48250  -0.48147
 Alpha  occ. eigenvalues --   -0.48081  -0.48022  -0.47642  -0.47282  -0.47131
 Alpha  occ. eigenvalues --   -0.46953  -0.46835  -0.46766  -0.46492  -0.46275
 Alpha  occ. eigenvalues --   -0.46145  -0.46144  -0.45997  -0.45845  -0.45665
 Alpha  occ. eigenvalues --   -0.45405  -0.45278  -0.45266  -0.45047  -0.44978
 Alpha  occ. eigenvalues --   -0.44661  -0.44638  -0.44286  -0.44161  -0.43984
 Alpha  occ. eigenvalues --   -0.43666  -0.43660  -0.43516  -0.43424  -0.43336
 Alpha  occ. eigenvalues --   -0.43205  -0.43075  -0.43062  -0.42912  -0.42807
 Alpha  occ. eigenvalues --   -0.42692  -0.42512  -0.42382  -0.41985  -0.41947
 Alpha  occ. eigenvalues --   -0.41654  -0.41518  -0.41420  -0.41178  -0.41117
 Alpha  occ. eigenvalues --   -0.41026  -0.40905  -0.40638  -0.40632  -0.40249
 Alpha  occ. eigenvalues --   -0.40135  -0.39933  -0.39892  -0.39065  -0.38711
 Alpha  occ. eigenvalues --   -0.38533  -0.38409  -0.37859  -0.37822  -0.37707
 Alpha  occ. eigenvalues --   -0.37687  -0.37074  -0.36646  -0.36140  -0.36122
 Alpha  occ. eigenvalues --   -0.35694  -0.34922  -0.34459  -0.34337  -0.34086
 Alpha  occ. eigenvalues --   -0.33821  -0.33293  -0.33186  -0.31621  -0.31548
 Alpha  occ. eigenvalues --   -0.31435  -0.30901  -0.30835  -0.30032  -0.29779
 Alpha  occ. eigenvalues --   -0.29622  -0.29275  -0.28672  -0.24380  -0.23531
 Alpha  occ. eigenvalues --   -0.21465  -0.21335
 Alpha virt. eigenvalues --   -0.09286  -0.08931  -0.02175  -0.01330  -0.00238
 Alpha virt. eigenvalues --    0.00585   0.01940   0.02415   0.02474   0.02593
 Alpha virt. eigenvalues --    0.05118   0.05123   0.05312   0.05351   0.05990

 Mulliken charges:
               1
     1  Mg  12.003363
     2  C    5.985773
     3  C    6.017442
     4  C    6.021945
     5  C    5.988322
     6  N    6.994926
     7  C    6.027367
     8  C    5.986779
     9  C    6.009585
    10  C    5.971987
    11  C    6.001549
    12  C    5.998719
    13  C    5.996306
    14  H    1.009044
    15  N    7.005328
    16  C    5.958114
    17  C    5.971481
    18  C    5.985921
    19  C    5.963838
    20  C    6.003875
    21  C    5.989037
    22  O    7.970040
    23  C    6.007331
    24  N    7.001964
    25  C    5.960760
    26  C    6.016040
    27  C    5.986338
    28  C    6.032390
    29  C    6.003010
    30  C    5.993628
    31  C    6.000675
    32  N    6.998024
    33  C    6.042281
    34  C    6.028329
    35  C    6.006512
    36  C    6.029108
    37  C    5.997885
    38  C    6.015699
    39  O    8.034487
    40  C    5.999917
    41  C    6.000719
    42  O    8.008140
    43  O    7.999506
    44  C    5.997419
    45  H    0.991745
    46  H    0.993305
    47  H    1.010239
    48  H    1.003069
    49  H    0.999713
    50  H    1.002904
    51  H    0.999670
    52  H    0.986200
    53  H    1.010114
    54  H    0.997010
    55  H    0.996858
    56  H    0.997830
    57  H    0.978670
    58  H    0.984296
    59  H    0.978889
    60  H    0.985550
    61  H    0.989566
    62  H    0.991926
    63  H    0.995929
    64  H    1.003320
    65  H    0.987853
    66  H    1.001075
    67  H    1.001153
    68  H    1.000462
    69  H    1.012290
    70  H    0.994373
    71  H    1.005336
    72  H    1.000035
    73  H    1.019714
    74  H    1.020074
    75  H    1.014624
    76  H    1.011633
    77  H    1.002247
    78  H    1.006469
    79  H    1.004959
    80  Mg  11.999985
    81  C    6.000008
    82  C    6.000017
    83  C    5.999988
    84  C    5.999967
    85  N    6.999981
    86  C    5.999988
    87  C    6.000023
    88  C    5.999983
    89  C    6.000031
    90  C    6.000000
    91  C    6.000011
    92  C    6.000010
    93  H    1.000027
    94  N    7.000009
    95  C    6.000032
    96  C    6.000026
    97  C    6.000044
    98  C    6.000034
    99  C    5.999985
   100  C    6.000025
   101  O    8.000035
   102  C    5.999996
   103  N    7.000020
   104  C    6.000040
   105  C    5.999975
   106  C    6.000017
   107  C    5.999975
   108  C    6.000008
   109  C    6.000010
   110  C    6.000016
   111  N    6.999990
   112  C    5.999977
   113  C    5.999961
   114  C    5.999999
   115  C    5.999978
   116  C    6.000005
   117  C    5.999980
   118  O    7.999950
   119  C    5.999990
   120  C    5.999998
   121  O    8.000025
   122  O    7.999983
   123  C    5.999995
   124  H    1.000016
   125  H    1.000003
   126  H    0.999982
   127  H    1.000017
   128  H    0.999977
   129  H    0.999991
   130  H    1.000045
   131  H    1.000032
   132  H    0.999962
   133  H    0.999994
   134  H    0.999967
   135  H    0.999979
   136  H    1.000035
   137  H    1.000061
   138  H    1.000012
   139  H    1.000051
   140  H    1.000013
   141  H    0.999983
   142  H    0.999974
   143  H    1.000018
   144  H    1.000033
   145  H    0.999985
   146  H    1.000029
   147  H    0.999973
   148  H    1.000001
   149  H    0.999956
   150  H    0.999988
   151  H    0.999992
   152  H    0.999932
   153  H    0.999948
   154  H    0.999982
   155  H    0.999961
   156  H    1.000046
   157  H    0.999988
   158  H    0.999982
 Sum of Mulliken charges = 624.00000

 Dipole moment (field-independent basis, Debye):
    X=              7.4998    Y=              4.3533    Z=             -7.3049  Tot=             11.3384
 Quadrupole moment (field-independent basis, Debye-Ang):
   XX=            369.3022   YY=             -4.3080   ZZ=             -3.4131
   XY=            102.0878   XZ=           -178.2867   YZ=              7.1639

 Normal termination of Gaussian 16 at Thu Sep 23 09:30:33 2021.
