 Gaussian 16, Revision A.03,
 Gaussian 16:  ES64L-G16RevA.03 25-Dec-2016

 -----------------------------------
 #p cam-b3lyp/Def2SVP td=(nstates=5)
 -----------------------------------

 --------------------------------
 TDDFT excited states in gaussian
 --------------------------------
 Symbolic Z-matrix:
 Charge =  0 Multiplicity = 1

                         Standard orientation:
 ---------------------------------------------------------------------
 Center     Atomic      Atomic             Coordinates (Angstroms)
 Number     Number       Type             X           Y           Z
 ---------------------------------------------------------------------
      1         12           0      -27.458355   -0.761292    0.041357
      2          6           0      -28.470023    2.531375    0.519157
      3          6           0      -24.765938    0.374967   -1.748243
      4          6           0      -26.699241   -4.008392   -0.661719
      5          6           0      -30.450228   -1.707460    1.710724
      6          7           0      -26.726232    1.211890   -0.574194
      7          6           0      -27.254102    2.401061   -0.145233
      8          6           0      -26.328172    3.500724   -0.670956
      9          6           0      -25.362561    2.809614   -1.617124
     10          6           0      -25.615009    1.349786   -1.257759
     11          6           0      -25.433889    3.085681   -3.095023
     12          6           0      -25.626919    4.406874    0.449483
     13          6           0      -24.517269    5.382600   -0.058735
     14          1           0      -24.925054    6.823347   -0.463736
     15          7           0      -25.859971   -1.661510   -0.929004
     16          6           0      -24.877899   -1.035403   -1.624036
     17          6           0      -24.057692   -2.068926   -2.200368
     18          6           0      -24.630560   -3.335899   -1.884438
     19          6           0      -25.784645   -3.056089   -1.154955
     20          6           0      -22.839024   -1.714369   -2.995298
     21          6           0      -24.150354   -4.721143   -2.407088
     22          8           0      -24.872657   -5.701590   -2.383214
     23          6           0      -22.871996   -4.933056   -3.066456
     24          7           0      -28.392419   -2.475565    0.453821
     25          6           0      -27.887818   -3.730033    0.112620
     26          6           0      -28.770614   -4.880267    0.627250
     27          6           0      -29.750937   -4.120890    1.584601
     28          6           0      -29.475733   -2.662897    1.255382
     29          6           0      -29.293579   -5.815363   -0.383200
     30          6           0      -29.722771   -4.447460    3.179181
     31          6           0      -30.976162   -4.964627    3.891500
     32          7           0      -29.217752    0.213024    0.922985
     33          6           0      -30.317917   -0.326202    1.528548
     34          6           0      -31.208117    0.689784    1.979642
     35          6           0      -30.471354    1.894698    1.663694
     36          6           0      -29.303222    1.527830    0.938408
     37          6           0      -32.480321    0.429819    2.692370
     38          6           0      -30.469819    3.328595    1.841319
     39          8           0      -31.192691    4.108595    2.429677
     40          6           0      -29.109835    3.802810    1.056867
     41          6           0      -29.391161    4.895714    0.091352
     42          8           0      -30.061714    4.754647   -0.907741
     43          8           0      -28.807535    6.055336    0.441349
     44          6           0      -28.805895    7.166946   -0.585529
     45          1           0      -23.877436    0.732108   -2.273620
     46          1           0      -26.436815   -5.039460   -0.906951
     47          1           0      -31.288489   -2.196028    2.212164
     48          1           0      -27.052772    4.109779   -1.211249
     49          1           0      -24.343233    3.104311   -1.368927
     50          1           0      -25.874961    2.145276   -3.424037
     51          1           0      -24.460836    3.321692   -3.526040
     52          1           0      -26.175124    3.846417   -3.340816
     53          1           0      -25.190972    3.648142    1.099733
     54          1           0      -26.380730    4.987776    0.979609
     55          1           0      -24.025415    5.001800   -0.952938
     56          1           0      -23.753164    5.449378    0.715712
     57          1           0      -22.545990   -0.665564   -3.051978
     58          1           0      -23.074963   -1.982913   -4.024483
     59          1           0      -21.966955   -2.312829   -2.731038
     60          1           0      -22.555235   -4.268621   -3.869720
     61          1           0      -22.691939   -5.946189   -3.425721
     62          1           0      -22.175459   -4.854921   -2.231954
     63          1           0      -28.011897   -5.379886    1.230223
     64          1           0      -30.690218   -4.362848    1.087559
     65          1           0      -28.953010   -6.849449   -0.323974
     66          1           0      -29.014814   -5.426072   -1.362756
     67          1           0      -30.377166   -5.931143   -0.363809
     68          1           0      -29.439137   -3.529030    3.692773
     69          1           0      -28.974577   -5.157654    3.533261
     70          1           0      -31.499336   -4.223635    4.496480
     71          1           0      -30.845651   -5.907800    4.421300
     72          1           0      -31.722561   -5.168085    3.123527
     73          1           0      -33.012396   -0.364458    2.169340
     74          1           0      -33.086264    1.327458    2.812615
     75          1           0      -32.230582   -0.089457    3.618178
     76          1           0      -28.468116    4.228512    1.827599
     77          1           0      -28.635011    8.046041    0.035424
     78          1           0      -29.774247    7.180543   -1.085333
     79          1           0      -27.948560    6.989245   -1.234925
     80         12           0       28.358027    0.548581    0.319539
     81          6           0       25.175087    0.856127   -1.164671
     82          6           0       26.782820    0.153242    3.314467
     83          6           0       31.342800   -0.497780    1.614803
     84          6           0       29.657853    0.470441   -2.997743
     85          7           0       26.173352    0.367560    0.980027
     86          6           0       25.042102    0.669130    0.277333
     87          6           0       23.764994    0.452497    1.107361
     88          6           0       24.439542    0.614633    2.556919
     89          6           0       25.899751    0.365236    2.271992
     90          6           0       24.225344    1.986943    3.250037
     91          6           0       23.098797   -0.986462    0.937193
     92          6           0       21.616536   -1.150726    1.235566
     93          1           0       21.106797   -1.946695    2.455863
     94          7           0       29.077073   -0.080088    2.246023
     95          6           0       28.267769   -0.025094    3.343393
     96          6           0       28.999781   -0.210161    4.517457
     97          6           0       30.367037   -0.381936    4.080098
     98          6           0       30.341954   -0.361583    2.590163
     99          6           0       28.417574   -0.189897    5.925659
    100          6           0       31.512886   -0.570936    5.048280
    101          8           0       31.286124   -0.572431    6.285733
    102          6           0       33.017314   -0.658665    4.610418
    103          7           0       30.166797    0.084808   -0.598519
    104          6           0       31.293146   -0.300581    0.177772
    105          6           0       32.541585   -0.221985   -0.656206
    106          6           0       32.032431   -0.263035   -2.113374
    107          6           0       30.555427    0.195733   -1.937761
    108          6           0       33.473219    1.004898   -0.532899
    109          6           0       32.078568   -1.754936   -2.739623
    110          6           0       33.384384   -2.249013   -3.343756
    111          7           0       27.573871    0.830791   -1.665410
    112          6           0       28.216854    0.781615   -2.893162
    113          6           0       27.327066    0.919274   -3.941826
    114          6           0       26.074325    1.011818   -3.311519
    115          6           0       26.284454    0.927155   -1.924814
    116          6           0       27.698439    0.949529   -5.390846
    117          6           0       24.745732    1.248976   -3.528365
    118          8           0       24.160178    1.551782   -4.549262
    119          6           0       24.086336    0.900363   -2.177407
    120          6           0       23.383131   -0.402294   -2.416923
    121          8           0       23.925441   -1.394947   -2.791907
    122          8           0       22.010092   -0.253891   -2.213004
    123          6           0       21.280242   -1.414339   -2.589372
    124          1           0       26.342920    0.229078    4.311297
    125          1           0       32.358186   -0.628975    1.995779
    126          1           0       30.145411    0.576455   -3.968853
    127          1           0       23.065802    1.283566    1.021103
    128          1           0       23.964373   -0.126044    3.199525
    129          1           0       23.397438    1.779542    3.928599
    130          1           0       23.909539    2.759625    2.549188
    131          1           0       25.097942    2.283180    3.832433
    132          1           0       23.569613   -1.704338    1.608890
    133          1           0       23.355187   -1.326166   -0.066520
    134          1           0       21.217756   -1.609010    0.329390
    135          1           0       21.188212   -0.150103    1.291563
    136          1           0       28.998130    0.236543    6.744397
    137          1           0       28.206546   -1.255191    6.016062
    138          1           0       27.535817    0.450326    5.953316
    139          1           0       33.310878    0.276320    4.133982
    140          1           0       33.012637   -1.521594    3.944798
    141          1           0       33.726418   -0.955885    5.382917
    142          1           0       33.092193   -1.142969   -0.467345
    143          1           0       32.592562    0.406113   -2.766618
    144          1           0       33.516270    1.644609   -1.414210
    145          1           0       34.367675    0.767553    0.043425
    146          1           0       32.956899    1.648843    0.178856
    147          1           0       31.302643   -1.659505   -3.498917
    148          1           0       31.772973   -2.495184   -1.999958
    149          1           0       33.640696   -3.211155   -2.901084
    150          1           0       34.174902   -1.530112   -3.126653
    151          1           0       33.285515   -2.423697   -4.415429
    152          1           0       27.035262    0.238905   -5.883261
    153          1           0       28.710992    0.587518   -5.573368
    154          1           0       27.549127    1.928398   -5.846826
    155          1           0       23.366432    1.683728   -1.942903
    156          1           0       20.953756   -1.320778   -3.624751
    157          1           0       20.320543   -1.508383   -2.079780
    158          1           0       21.867004   -2.325700   -2.487788
 ---------------------------------------------------------------------

 SCF Done:  E(RCAM-B3LYP) =  -4069.78881367     A.U. after   17 cycles

 Excitation energies and oscillator strengths:

 Excited State   1:      Singlet-A      1.6981 eV  730.13 nm  f=0.3995  <S**2>=0.000
     310 -> 316       -0.17914
     312 -> 314        0.68551
     310 <- 316       -0.10831
 This state for optimization and/or second-order correction.
 Total Energy, E(TD-HF/TD-DFT) =  -4069.72640936
 Copying the excited state density for this state as the 1-particle RhoCI density.

 Excited State   2:      Singlet-A      1.7067 eV  726.47 nm  f=0.4019  <S**2>=0.000
     309 -> 315       -0.18529
     311 -> 313        0.68213
     309 <- 315       -0.10816

 Excited State   3:      Singlet-A      2.1433 eV  578.46 nm  f=0.1303  <S**2>=0.000
     309 -> 313        0.65033
     311 -> 315        0.26016

 Excited State   4:      Singlet-A      2.2224 eV  557.87 nm  f=0.0944  <S**2>=0.000
     310 -> 314        0.63236
     312 -> 316        0.30131

 Excited State   5:      Singlet-A      2.9615 eV  418.66 nm  f=0.0000  <S**2>=0.000
     312 -> 313        0.70711

 The electronic state is 1-A.
 Alpha  occ. eigenvalues --  -46.90349 -46.87877 -19.25431 -19.24418 -19.20960
 Alpha  occ. eigenvalues --  -19.19079 -19.18659 -19.18257 -19.18130 -19.17919
 Alpha  occ. eigenvalues --  -14.43213 -14.42713 -14.42705 -14.42041 -14.39856
 Alpha  occ. eigenvalues --  -14.39241 -14.39048 -14.38438 -10.39736 -10.37965
 Alpha  occ. eigenvalues --  -10.35584 -10.35059 -10.34646 -10.33392 -10.32436
 Alpha  occ. eigenvalues --  -10.32362 -10.32106 -10.31670 -10.31598 -10.31126
 Alpha  occ. eigenvalues --  -10.31113 -10.31027 -10.30976 -10.30751 -10.30442
 Alpha  occ. eigenvalues --  -10.30263 -10.29982 -10.29805 -10.29697 -10.29608
 Alpha  occ. eigenvalues --  -10.29271 -10.29136 -10.28993 -10.28359 -10.28338
 Alpha  occ. eigenvalues --  -10.28296 -10.28245 -10.28137 -10.28110 -10.28097
 Alpha  occ. eigenvalues --  -10.28089 -10.28072 -10.27993 -10.27899 -10.27874
 Alpha  occ. eigenvalues --  -10.27702 -10.27585 -10.27533 -10.27530 -10.27522
 Alpha  occ. eigenvalues --  -10.27487 -10.27446 -10.27376 -10.27260 -10.27214
 Alpha  occ. eigenvalues --  -10.27139 -10.27057 -10.27032 -10.26951 -10.26941
 Alpha  occ. eigenvalues --  -10.26863 -10.26857 -10.26626 -10.26525 -10.26513
 Alpha  occ. eigenvalues --  -10.26400 -10.26251 -10.26155 -10.26117 -10.25878
 Alpha  occ. eigenvalues --  -10.25748 -10.25693 -10.25590 -10.25490 -10.25240
 Alpha  occ. eigenvalues --  -10.24201  -3.18640  -3.16537  -1.93539  -1.93088
 Alpha  occ. eigenvalues --   -1.92938  -1.91452  -1.90994  -1.90839  -1.17678
 Alpha  occ. eigenvalues --   -1.15845  -1.10982  -1.10084  -1.09545  -1.09489
 Alpha  occ. eigenvalues --   -1.07355  -1.06731  -1.05792  -1.05240  -1.04686
 Alpha  occ. eigenvalues --   -1.04109  -1.03958  -1.03315  -1.02352  -1.01951
 Alpha  occ. eigenvalues --   -0.94379  -0.92433  -0.89214  -0.89004  -0.88760
 Alpha  occ. eigenvalues --   -0.88717  -0.88710  -0.88332  -0.87602  -0.87571
 Alpha  occ. eigenvalues --   -0.87138  -0.86973  -0.86703  -0.85947  -0.84641
 Alpha  occ. eigenvalues --   -0.84424  -0.83705  -0.83673  -0.82954  -0.82641
 Alpha  occ. eigenvalues --   -0.82471  -0.81927  -0.81411  -0.80742  -0.80730
 Alpha  occ. eigenvalues --   -0.80388  -0.78793  -0.78110  -0.77795  -0.77427
 Alpha  occ. eigenvalues --   -0.77282  -0.76988  -0.76006  -0.75893  -0.75731
 Alpha  occ. eigenvalues --   -0.75148  -0.73651  -0.72779  -0.72294  -0.71816
 Alpha  occ. eigenvalues --   -0.69527  -0.69388  -0.68946  -0.68516  -0.68475
 Alpha  occ. eigenvalues --   -0.68226  -0.67204  -0.66917  -0.66352  -0.65548
 Alpha  occ. eigenvalues --   -0.65424  -0.65405  -0.64789  -0.64678  -0.64260
 Alpha  occ. eigenvalues --   -0.64204  -0.62855  -0.61424  -0.60566  -0.60530
 Alpha  occ. eigenvalues --   -0.60193  -0.59754  -0.59653  -0.59226  -0.59065
 Alpha  occ. eigenvalues --   -0.58954  -0.58829  -0.58102  -0.57958  -0.57299
 Alpha  occ. eigenvalues --   -0.56544  -0.56362  -0.55825  -0.55753  -0.55409
 Alpha  occ. eigenvalues --   -0.55352  -0.55122  -0.54783  -0.54574  -0.53887
 Alpha  occ. eigenvalues --   -0.53804  -0.53593  -0.53237  -0.53157  -0.52966
 Alpha  occ. eigenvalues --   -0.52834  -0.52644  -0.52592  -0.52345  -0.52317
 Alpha  occ. eigenvalues --   -0.52076  -0.51871  -0.51484  -0.51313  -0.51260
 Alpha  occ. eigenvalues --   -0.50991  -0.50859  -0.50842  -0.50647  -0.50492
 Alpha  occ. eigenvalues --   -0.50302  -0.50190  -0.49931  -0.49871  -0.49784
 Alpha  occ. eigenvalues --   -0.49437  -0.49392  -0.49345  -0.49138  -0.49037
 Alpha  occ. eigenvalues --   -0.48991  -0.48853  -0.48623  -0.48475  -0.48229
 Alpha  occ. eigenvalues --   -0.47981  -0.47720  -0.47449  -0.47385  -0.47266
 Alpha  occ. eigenvalues --   -0.47103  -0.47046  -0.46837  -0.46639  -0.46590
 Alpha  occ. eigenvalues --   -0.46537  -0.46437  -0.46385  -0.46251  -0.46065
 Alpha  occ. eigenvalues --   -0.46061  -0.45823  -0.45324  -0.45151  -0.45116
 Alpha  occ. eigenvalues --   -0.45112  -0.44798  -0.44757  -0.44633  -0.44406
 Alpha  occ. eigenvalues --   -0.44239  -0.44010  -0.43889  -0.43807  -0.43682
 Alpha  occ. eigenvalues --   -0.43372  -0.43370  -0.43292  -0.42980  -0.42809
 Alpha  occ. eigenvalues --   -0.42702  -0.42628  -0.42540  -0.42223  -0.41957
 Alpha  occ. eigenvalues --   -0.41825  -0.41587  -0.41508  -0.41361  -0.41282
 Alpha  occ. eigenvalues --   -0.41226  -0.41054  -0.40963  -0.40542  -0.40378
 Alpha  occ. eigenvalues --   -0.40342  -0.40198  -0.39504  -0.39438  -0.39276
 Alpha  occ. eigenvalues --   -0.38787  -0.38527  -0.37843  -0.37772  -0.37682
 Alpha  occ. eigenvalues --   -0.37260  -0.37176  -0.36995  -0.36884  -0.36620
 Alpha  occ. eigenvalues --   -0.36288  -0.36052  -0.35538  -0.35090  -0.34067
 Alpha  occ. eigenvalues --   -0.33982  -0.33447  -0.32983  -0.31481  -0.31307
 Alpha  occ. eigenvalues --   -0.30967  -0.30483  -0.30207  -0.30066  -0.29959
 Alpha  occ. eigenvalues --   -0.29718  -0.29552  -0.29047  -0.24357  -0.24204
 Alpha  occ. eigenvalues --   -0.22071  -0.21126
 Alpha virt. eigenvalues --   -0.09626  -0.08795  -0.02515  -0.01874  -0.00113
 Alpha virt. eigenvalues --    0.00617   0.01388   0.02564   0.02732   0.03379
 Alpha virt. eigenvalues --    0.04263   0.04701   0.05117   0.05244   0.05469

 Mulliken charges:
               1
     1  Mg   0.828805
     2  C    0.048462
     3  C   -0.079085
     4  C   -0.067483
     5  C   -0.103358
     6  N   -0.255729
     7  C   -0.052037
     8  C   -0.000605
     9  C   -0.103478
    10  C    0.035614
    11  C    0.099456
    12  C    0.042557
    13  C   -0.062444
    14  H    0.013881
    15  N   -0.403930
    16  C    0.147245
    17  C   -0.142793
    18  C   -0.017884
    19  C    0.106303
    20  C    0.100437
    21  C    0.025238
    22  O   -0.202180
    23  C    0.059503
    24  N   -0.343336
    25  C    0.041655
    26  C   -0.041072
    27  C   -0.002505
    28  C    0.022964
    29  C    0.094412
    30  C    0.043917
    31  C   -0.014170
    32  N   -0.286864
    33  C    0.152994
    34  C   -0.160750
    35  C   -0.026696
    36  C    0.074265
    37  C    0.149296
    38  C    0.065566
    39  O   -0.154839
    40  C   -0.074544
    41  C    0.174475
    42  O   -0.224077
    43  O   -0.340816
    44  C    0.172987
    45  H   -0.041511
    46  H    0.001675
    47  H   -0.024254
    48  H    0.009391
    49  H   -0.002359
    50  H    0.017512
    51  H    0.021537
    52  H    0.015325
    53  H    0.009119
    54  H    0.039089
    55  H    0.023334
    56  H    0.035809
    57  H    0.015665
    58  H    0.027312
    59  H    0.025101
    60  H    0.036038
    61  H    0.023052
    62  H    0.027282
    63  H    0.010701
    64  H    0.008019
    65  H    0.017739
    66  H    0.025453
    67  H    0.006146
    68  H    0.012074
    69  H    0.010592
    70  H    0.018372
    71  H    0.023289
    72  H   -0.001757
    73  H    0.012728
    74  H    0.047931
    75  H    0.021404
    76  H    0.037236
    77  H    0.044533
    78  H    0.065042
    79  H    0.042021
    80  Mg   0.815273
    81  C    0.014434
    82  C   -0.065270
    83  C   -0.076237
    84  C   -0.071954
    85  N   -0.233137
    86  C   -0.080913
    87  C    0.006786
    88  C   -0.104049
    89  C    0.065308
    90  C    0.076822
    91  C    0.039663
    92  C   -0.043142
    93  H    0.028171
    94  N   -0.343531
    95  C    0.106412
    96  C   -0.141763
    97  C   -0.040958
    98  C    0.143948
    99  C    0.134036
   100  C   -0.011064
   101  O   -0.242984
   102  C    0.048385
   103  N   -0.357487
   104  C    0.064204
   105  C   -0.039295
   106  C   -0.064033
   107  C    0.055463
   108  C    0.104239
   109  C    0.008805
   110  C    0.034451
   111  N   -0.298987
   112  C    0.103986
   113  C   -0.159967
   114  C    0.083447
   115  C    0.089611
   116  C    0.137607
   117  C   -0.048550
   118  O   -0.168387
   119  C   -0.001925
   120  C    0.189510
   121  O   -0.180552
   122  O   -0.329031
   123  C    0.162251
   124  H   -0.027413
   125  H   -0.039843
   126  H   -0.015031
   127  H    0.002573
   128  H    0.015773
   129  H    0.016338
   130  H    0.021274
   131  H    0.022341
   132  H    0.019975
   133  H    0.022643
   134  H    0.026578
   135  H    0.021085
   136  H    0.045659
   137  H    0.041293
   138  H    0.008722
   139  H    0.046357
   140  H    0.030955
   141  H    0.024855
   142  H    0.004669
   143  H    0.002866
   144  H    0.027606
   145  H    0.021430
   146  H   -0.005822
   147  H    0.000842
   148  H    0.012710
   149  H    0.013766
   150  H    0.012293
   151  H    0.020667
   152  H    0.032753
   153  H    0.002706
   154  H    0.040537
   155  H    0.015272
   156  H    0.028737
   157  H    0.030527
   158  H    0.044708
 Sum of Mulliken charges =  -0.00000

 Dipole moment (field-independent basis, Debye):
    X=              6.5718    Y=             -1.2268    Z=             -0.2529  Tot=              6.6901
 Quadrupole moment (field-independent basis, Debye-Ang):
   XX=           -666.7967   YY=           -512.3380   ZZ=           -547.0115
   XY=            102.5146   XZ=            -29.8430   YZ=            -10.8011

 Normal termination of Gaussian 16 at Thu Sep 16 00:16:58 2021.
