 Gaussian 16, Revision A.03,
 Gaussian 16:  ES64L-G16RevA.03 25-Dec-2016

 -----------------------------------
 #p cam-b3lyp/Def2SVP td=(nstates=5)
 -----------------------------------

 --------------------------------
 TDDFT excited states in gaussian
 --------------------------------
 Symbolic Z-matrix:
 Charge =  0 Multiplicity = 1

                         Standard orientation:
 ---------------------------------------------------------------------
 Center     Atomic      Atomic             Coordinates (Angstroms)
 Number     Number       Type             X           Y           Z
 ---------------------------------------------------------------------
      1         12           0        8.968491   -0.403166   -0.120899
      2          6           0        7.069662    2.439084   -0.987059
      3          6           0       11.221515    1.675664    1.432729
      4          6           0       10.874651   -3.051324    0.675553
      5          6           0        6.972777   -2.397047   -2.190863
      6          7           0        8.975186    1.751989    0.248618
      7          6           0        8.181978    2.749597   -0.131368
      8          6           0        8.573530    4.162899    0.348041
      9          6           0       10.054206    3.793988    0.845751
     10          6           0       10.108558    2.286551    0.797441
     11          6           0       11.147856    4.422335    0.016630
     12          6           0        7.635119    4.750070    1.541432
     13          6           0        7.588813    6.280563    1.571366
     14          1           0        6.173146    6.876472    1.360064
     15          7           0       10.743102   -0.704571    1.068152
     16          6           0       11.548923    0.341637    1.581659
     17          6           0       12.506413   -0.271704    2.474271
     18          6           0       12.417188   -1.649359    2.296222
     19          6           0       11.299882   -1.883695    1.328490
     20          6           0       13.557659    0.501771    3.247614
     21          6           0       13.168055   -2.794433    2.936352
     22          8           0       12.860236   -3.922280    2.682317
     23          6           0       14.248224   -2.570564    3.947122
     24          7           0        9.068433   -2.386065   -0.816030
     25          6           0        9.903427   -3.321980   -0.278843
     26          6           0        9.501972   -4.681730   -0.914981
     27          6           0        8.039702   -4.551130   -1.301809
     28          6           0        7.975156   -3.016934   -1.488491
     29          6           0       10.337996   -4.918253   -2.171946
     30          6           0        7.082579   -5.091039   -0.304602
     31          6           0        7.263248   -4.738950    1.151241
     32          7           0        7.327192   -0.113209   -1.331185
     33          6           0        6.612767   -0.989605   -2.126174
     34          6           0        5.514614   -0.254865   -2.772958
     35          6           0        5.656884    1.070284   -2.325950
     36          6           0        6.733533    1.100921   -1.482227
     37          6           0        4.535829   -0.804442   -3.718416
     38          6           0        5.046472    2.372039   -2.284370
     39          8           0        3.979518    2.803945   -2.811659
     40          6           0        5.968236    3.299095   -1.359185
     41          6           0        6.451783    4.425800   -2.234994
     42          8           0        6.913184    4.250054   -3.323536
     43          8           0        6.381783    5.723249   -1.659102
     44          6           0        7.149523    6.781517   -2.383303
     45          1           0       11.974826    2.322378    1.886133
     46          1           0       11.522335   -3.917790    0.826954
     47          1           0        6.211579   -2.984165   -2.709376
     48          1           0        8.487680    4.873346   -0.475096
     49          1           0       10.088322    4.179328    1.865543
     50          1           0       11.461157    5.315300    0.557275
     51          1           0       10.850710    4.591824   -1.018516
     52          1           0       11.987758    3.737604    0.133683
     53          1           0        8.014140    4.416322    2.507878
     54          1           0        6.627265    4.339967    1.473936
     55          1           0        8.304116    6.532673    0.788226
     56          1           0        8.033953    6.687298    2.479195
     57          1           0       13.176298    1.521972    3.268104
     58          1           0       14.414248    0.479948    2.574510
     59          1           0       13.687465    0.127511    4.263289
     60          1           0       13.637804   -2.238565    4.787098
     61          1           0       14.954315   -1.781263    3.690585
     62          1           0       14.774068   -3.503474    4.153142
     63          1           0        9.679440   -5.557302   -0.291458
     64          1           0        7.749843   -5.073367   -2.212989
     65          1           0        9.899033   -4.745054   -3.154555
     66          1           0       10.683823   -5.951406   -2.140440
     67          1           0       11.233131   -4.299452   -2.099724
     68          1           0        6.990390   -6.175121   -0.374796
     69          1           0        6.122096   -4.684306   -0.620504
     70          1           0        6.419451   -4.096376    1.404284
     71          1           0        8.143025   -4.229858    1.545955
     72          1           0        7.134518   -5.649445    1.736285
     73          1           0        5.053879   -1.024496   -4.651791
     74          1           0        3.778228   -0.023910   -3.787576
     75          1           0        4.133263   -1.756082   -3.368800
     76          1           0        5.322450    3.579318   -0.526792
     77          1           0        6.601422    7.108231   -3.266957
     78          1           0        8.146005    6.457648   -2.687132
     79          1           0        7.284079    7.722418   -1.850498
     80         12           0       -8.416155   -0.987465    0.375695
     81          6           0      -10.533340    1.730717    0.821692
     82          6           0       -5.794863    1.244123    0.798208
     83          6           0       -6.332755   -3.507968   -0.558515
     84          6           0      -11.169961   -3.001581   -0.186252
     85          7           0       -8.199392    1.246322    0.710996
     86          6           0       -9.209928    2.176100    0.903207
     87          6           0       -8.689836    3.657896    1.069509
     88          6           0       -7.164834    3.447132    0.723644
     89          6           0       -7.023046    1.880550    0.699872
     90          6           0       -6.558593    4.022519   -0.559675
     91          6           0       -9.003321    4.195285    2.477902
     92          6           0      -10.092465    5.229252    2.591188
     93          1           0       -9.881368    6.348399    3.626328
     94          7           0       -6.355813   -1.213650    0.326102
     95          6           0       -5.506048   -0.190989    0.612005
     96          6           0       -4.149986   -0.747132    0.438241
     97          6           0       -4.258909   -2.061323   -0.042618
     98          6           0       -5.640861   -2.340617   -0.106209
     99          6           0       -2.958796    0.011657    0.863319
    100          6           0       -3.191924   -3.029659   -0.461915
    101          8           0       -3.425706   -4.230211   -0.774374
    102          6           0       -1.809298   -2.689199   -0.583969
    103          7           0       -8.693355   -2.942781   -0.185331
    104          6           0       -7.687306   -3.805004   -0.496752
    105          6           0       -8.159790   -5.149126   -0.890132
    106          6           0       -9.716834   -5.030115   -0.719029
    107          6           0       -9.861393   -3.587136   -0.411243
    108          6           0       -7.796168   -5.818279   -2.248271
    109          6           0      -10.377946   -6.062212    0.322193
    110          6           0      -10.443178   -5.798248    1.855884
    111          7           0      -10.435264   -0.756934    0.273998
    112          6           0      -11.435565   -1.664676    0.076164
    113          6           0      -12.677283   -1.076586    0.332085
    114          6           0      -12.338637    0.314918    0.546123
    115          6           0      -10.963411    0.435497    0.526040
    116          6           0      -14.046352   -1.752464    0.379777
    117          6           0      -12.934762    1.564467    0.922622
    118          8           0      -14.055949    1.916921    1.227681
    119          6           0      -11.759893    2.603679    0.885897
    120          6           0      -11.900475    3.478607   -0.294949
    121          8           0      -11.140840    3.514920   -1.287869
    122          8           0      -12.984053    4.284977   -0.268671
    123          6           0      -13.116978    5.385258   -1.283565
    124          1           0       -4.975715    1.961954    0.868190
    125          1           0       -5.720717   -4.344628   -0.902374
    126          1           0      -12.081470   -3.603707   -0.179254
    127          1           0       -8.970632    4.288748    0.225484
    128          1           0       -6.617292    3.830703    1.584502
    129          1           0       -6.311369    3.217690   -1.252348
    130          1           0       -5.576327    4.403184   -0.283673
    131          1           0       -7.162087    4.774395   -1.069352
    132          1           0       -8.087429    4.692437    2.799547
    133          1           0       -9.157160    3.342653    3.139303
    134          1           0      -11.011153    4.706126    2.857919
    135          1           0      -10.354492    5.740458    1.664739
    136          1           0       -2.512192   -0.592625    1.651877
    137          1           0       -3.070818    1.034118    1.226352
    138          1           0       -2.251281    0.071836    0.036375
    139          1           0       -1.796716   -1.728811   -1.098662
    140          1           0       -1.237452   -3.527123   -0.980593
    141          1           0       -1.380290   -2.435075    0.385329
    142          1           0       -7.715453   -5.729442   -0.082018
    143          1           0      -10.196563   -5.174340   -1.686383
    144          1           0       -7.171854   -6.701851   -2.115179
    145          1           0       -7.216553   -5.142302   -2.877835
    146          1           0       -8.666652   -6.071551   -2.853318
    147          1           0       -9.741114   -6.939061    0.203303
    148          1           0      -11.348001   -6.221933   -0.148774
    149          1           0      -10.153648   -4.795929    2.170467
    150          1           0       -9.993541   -6.560527    2.492803
    151          1           0      -11.497804   -5.937458    2.089902
    152          1           0      -14.751256   -1.294308   -0.314774
    153          1           0      -14.458526   -1.585501    1.374801
    154          1           0      -14.022423   -2.835099    0.252807
    155          1           0      -11.912524    3.293155    1.716392
    156          1           0      -13.901378    5.940714   -0.769286
    157          1           0      -13.404013    5.060110   -2.283021
    158          1           0      -12.175999    5.931101   -1.358891
 ---------------------------------------------------------------------

 SCF Done:  E(RCAM-B3LYP) =  -4069.81030288     A.U. after   19 cycles

 Excitation energies and oscillator strengths:

 Excited State   1:      Singlet-A      1.6881 eV  734.47 nm  f=0.7031  <S**2>=0.000
     309 -> 315       -0.13952
     310 -> 316        0.10106
     311 -> 313        0.55906
     312 -> 314       -0.39988
 This state for optimization and/or second-order correction.
 Total Energy, E(TD-HF/TD-DFT) =  -4069.74826736
 Copying the excited state density for this state as the 1-particle RhoCI density.

 Excited State   2:      Singlet-A      1.7122 eV  724.11 nm  f=0.0879  <S**2>=0.000
     309 -> 315       -0.10367
     310 -> 316       -0.14558
     311 -> 313        0.40054
     312 -> 314        0.55589

 Excited State   3:      Singlet-A      2.1836 eV  567.80 nm  f=0.0933  <S**2>=0.000
     309 -> 313        0.64508
     311 -> 315        0.26884

 Excited State   4:      Singlet-A      2.2081 eV  561.51 nm  f=0.1566  <S**2>=0.000
     310 -> 314        0.64846
     312 -> 316        0.26070

 Excited State   5:      Singlet-A      2.6726 eV  463.90 nm  f=0.0000  <S**2>=0.000
     312 -> 313        0.70684

 The electronic state is 1-A.
 Alpha  occ. eigenvalues --  -46.88758 -46.87315 -19.24656 -19.23878 -19.20197
 Alpha  occ. eigenvalues --  -19.19197 -19.18415 -19.18062 -19.18024 -19.17713
 Alpha  occ. eigenvalues --  -14.43551 -14.41789 -14.41644 -14.41469 -14.39839
 Alpha  occ. eigenvalues --  -14.39312 -14.39198 -14.38147 -10.39554 -10.38343
 Alpha  occ. eigenvalues --  -10.35301 -10.34916 -10.34275 -10.33979 -10.31998
 Alpha  occ. eigenvalues --  -10.31838 -10.31830 -10.31402 -10.31260 -10.31084
 Alpha  occ. eigenvalues --  -10.30752 -10.30732 -10.30639 -10.30588 -10.30376
 Alpha  occ. eigenvalues --  -10.30247 -10.29927 -10.29819 -10.29569 -10.29520
 Alpha  occ. eigenvalues --  -10.29004 -10.28970 -10.28725 -10.28528 -10.28510
 Alpha  occ. eigenvalues --  -10.28477 -10.28360 -10.28335 -10.28332 -10.28269
 Alpha  occ. eigenvalues --  -10.28142 -10.28072 -10.27924 -10.27661 -10.27595
 Alpha  occ. eigenvalues --  -10.27509 -10.27464 -10.27389 -10.27265 -10.27223
 Alpha  occ. eigenvalues --  -10.27196 -10.27043 -10.27025 -10.26983 -10.26913
 Alpha  occ. eigenvalues --  -10.26795 -10.26775 -10.26706 -10.26691 -10.26561
 Alpha  occ. eigenvalues --  -10.26546 -10.26532 -10.26463 -10.26133 -10.25750
 Alpha  occ. eigenvalues --  -10.25740 -10.25706 -10.25678 -10.25572 -10.25492
 Alpha  occ. eigenvalues --  -10.25377 -10.25265 -10.25196 -10.24574 -10.24569
 Alpha  occ. eigenvalues --  -10.24395  -3.17253  -3.16030  -1.92176  -1.91685
 Alpha  occ. eigenvalues --   -1.91570  -1.90940  -1.90489  -1.90334  -1.15768
 Alpha  occ. eigenvalues --   -1.14944  -1.12231  -1.09328  -1.07711  -1.07540
 Alpha  occ. eigenvalues --   -1.06829  -1.05438  -1.04930  -1.04632  -1.03874
 Alpha  occ. eigenvalues --   -1.03673  -1.03076  -1.03018  -1.02009  -1.01895
 Alpha  occ. eigenvalues --   -0.93104  -0.92872  -0.90176  -0.89565  -0.88959
 Alpha  occ. eigenvalues --   -0.88814  -0.88252  -0.88091  -0.87988  -0.87332
 Alpha  occ. eigenvalues --   -0.87059  -0.86782  -0.86364  -0.85887  -0.84847
 Alpha  occ. eigenvalues --   -0.84153  -0.83686  -0.83448  -0.82744  -0.82611
 Alpha  occ. eigenvalues --   -0.82544  -0.82266  -0.81253  -0.80778  -0.80335
 Alpha  occ. eigenvalues --   -0.80065  -0.79040  -0.78321  -0.77486  -0.77317
 Alpha  occ. eigenvalues --   -0.77238  -0.76639  -0.76423  -0.76012  -0.75115
 Alpha  occ. eigenvalues --   -0.75077  -0.72901  -0.72596  -0.71463  -0.71115
 Alpha  occ. eigenvalues --   -0.69925  -0.69814  -0.68987  -0.68551  -0.67990
 Alpha  occ. eigenvalues --   -0.67795  -0.67267  -0.66868  -0.65973  -0.65080
 Alpha  occ. eigenvalues --   -0.65002  -0.64869  -0.64398  -0.64342  -0.64146
 Alpha  occ. eigenvalues --   -0.63524  -0.61914  -0.61295  -0.60507  -0.60083
 Alpha  occ. eigenvalues --   -0.59720  -0.59424  -0.59286  -0.59112  -0.58937
 Alpha  occ. eigenvalues --   -0.58769  -0.58379  -0.57730  -0.57589  -0.57086
 Alpha  occ. eigenvalues --   -0.56523  -0.55946  -0.55896  -0.55435  -0.54931
 Alpha  occ. eigenvalues --   -0.54663  -0.54651  -0.54247  -0.54234  -0.54107
 Alpha  occ. eigenvalues --   -0.53848  -0.53744  -0.53604  -0.53191  -0.53043
 Alpha  occ. eigenvalues --   -0.52644  -0.52559  -0.52313  -0.52223  -0.52011
 Alpha  occ. eigenvalues --   -0.51888  -0.51749  -0.51669  -0.51667  -0.50986
 Alpha  occ. eigenvalues --   -0.50872  -0.50859  -0.50630  -0.50326  -0.50119
 Alpha  occ. eigenvalues --   -0.50113  -0.49953  -0.49832  -0.49712  -0.49517
 Alpha  occ. eigenvalues --   -0.49399  -0.49359  -0.49225  -0.49186  -0.48721
 Alpha  occ. eigenvalues --   -0.48604  -0.48439  -0.48347  -0.48284  -0.47995
 Alpha  occ. eigenvalues --   -0.47883  -0.47785  -0.47699  -0.47530  -0.47306
 Alpha  occ. eigenvalues --   -0.47003  -0.46852  -0.46549  -0.46472  -0.46272
 Alpha  occ. eigenvalues --   -0.46032  -0.46021  -0.45776  -0.45705  -0.45537
 Alpha  occ. eigenvalues --   -0.45492  -0.45367  -0.45193  -0.45085  -0.45048
 Alpha  occ. eigenvalues --   -0.44973  -0.44592  -0.44454  -0.44312  -0.44022
 Alpha  occ. eigenvalues --   -0.43857  -0.43756  -0.43634  -0.43609  -0.43575
 Alpha  occ. eigenvalues --   -0.43277  -0.43234  -0.43180  -0.42997  -0.42681
 Alpha  occ. eigenvalues --   -0.42665  -0.42609  -0.42571  -0.42270  -0.41965
 Alpha  occ. eigenvalues --   -0.41692  -0.41400  -0.41284  -0.41170  -0.41086
 Alpha  occ. eigenvalues --   -0.40924  -0.40592  -0.40527  -0.40385  -0.40125
 Alpha  occ. eigenvalues --   -0.39865  -0.39738  -0.39659  -0.39505  -0.38691
 Alpha  occ. eigenvalues --   -0.38475  -0.38004  -0.37848  -0.37620  -0.37421
 Alpha  occ. eigenvalues --   -0.37278  -0.36692  -0.36582  -0.36331  -0.36302
 Alpha  occ. eigenvalues --   -0.36183  -0.35408  -0.34833  -0.34652  -0.34091
 Alpha  occ. eigenvalues --   -0.33344  -0.32970  -0.32681  -0.31843  -0.31486
 Alpha  occ. eigenvalues --   -0.30774  -0.30490  -0.30374  -0.30148  -0.29818
 Alpha  occ. eigenvalues --   -0.29678  -0.29482  -0.29107  -0.24280  -0.23425
 Alpha  occ. eigenvalues --   -0.21527  -0.20892
 Alpha virt. eigenvalues --   -0.09098  -0.08467  -0.01873  -0.01093   0.00294
 Alpha virt. eigenvalues --    0.00909   0.02027   0.02582   0.03111   0.03763
 Alpha virt. eigenvalues --    0.04505   0.05148   0.05233   0.05460   0.05843

 Mulliken charges:
               1
     1  Mg   0.813577
     2  C   -0.040437
     3  C   -0.100466
     4  C   -0.055954
     5  C   -0.065153
     6  N   -0.248777
     7  C   -0.044960
     8  C   -0.042144
     9  C   -0.088446
    10  C    0.097427
    11  C    0.104564
    12  C    0.047638
    13  C   -0.047160
    14  H    0.044302
    15  N   -0.365927
    16  C    0.130367
    17  C   -0.165526
    18  C   -0.009808
    19  C    0.116089
    20  C    0.118481
    21  C   -0.027426
    22  O   -0.177690
    23  C    0.053296
    24  N   -0.336402
    25  C    0.059249
    26  C   -0.036145
    27  C    0.000998
    28  C    0.092505
    29  C    0.078883
    30  C    0.053760
    31  C   -0.013903
    32  N   -0.352790
    33  C    0.067976
    34  C   -0.192845
    35  C    0.046398
    36  C    0.100476
    37  C    0.125923
    38  C    0.022367
    39  O   -0.218433
    40  C    0.037957
    41  C    0.193543
    42  O   -0.181505
    43  O   -0.372958
    44  C    0.178780
    45  H   -0.015594
    46  H   -0.006395
    47  H   -0.026400
    48  H    0.020274
    49  H    0.010288
    50  H    0.008759
    51  H    0.035093
    52  H    0.001851
    53  H    0.003191
    54  H    0.018385
    55  H    0.008506
    56  H    0.021135
    57  H    0.008457
    58  H    0.052729
    59  H    0.037303
    60  H    0.038123
    61  H    0.031011
    62  H    0.035613
    63  H   -0.002921
    64  H   -0.009438
    65  H    0.024153
    66  H    0.010051
    67  H    0.009342
    68  H    0.007118
    69  H   -0.009000
    70  H    0.007408
    71  H    0.037973
    72  H    0.006780
    73  H    0.031357
    74  H    0.041346
    75  H    0.013596
    76  H    0.045680
    77  H    0.037758
    78  H    0.033300
    79  H    0.033465
    80  Mg   0.841784
    81  C   -0.018372
    82  C   -0.053653
    83  C   -0.067973
    84  C   -0.097120
    85  N   -0.267778
    86  C   -0.058916
    87  C   -0.002163
    88  C   -0.086525
    89  C    0.002175
    90  C    0.085720
    91  C    0.098704
    92  C   -0.086126
    93  H    0.019808
    94  N   -0.397147
    95  C    0.159228
    96  C   -0.171262
    97  C    0.028641
    98  C    0.105439
    99  C    0.104225
   100  C   -0.012429
   101  O   -0.251081
   102  C    0.087384
   103  N   -0.298783
   104  C    0.055607
   105  C   -0.041398
   106  C   -0.007215
   107  C    0.040235
   108  C    0.076602
   109  C    0.015353
   110  C    0.012273
   111  N   -0.356336
   112  C    0.118985
   113  C   -0.160836
   114  C   -0.009538
   115  C    0.183416
   116  C    0.132589
   117  C    0.018304
   118  O   -0.153810
   119  C   -0.051896
   120  C    0.191649
   121  O   -0.263156
   122  O   -0.324406
   123  C    0.186522
   124  H   -0.032636
   125  H   -0.005435
   126  H   -0.039334
   127  H    0.013843
   128  H    0.000776
   129  H    0.027031
   130  H    0.011775
   131  H    0.029858
   132  H    0.011946
   133  H    0.021302
   134  H    0.043443
   135  H    0.030211
   136  H    0.033974
   137  H    0.020567
   138  H    0.017678
   139  H    0.025388
   140  H    0.039119
   141  H    0.021143
   142  H    0.019859
   143  H    0.009244
   144  H    0.021931
   145  H    0.018160
   146  H    0.014962
   147  H    0.010140
   148  H    0.016251
   149  H    0.036242
   150  H    0.017123
   151  H    0.007163
   152  H    0.037617
   153  H    0.030566
   154  H    0.002775
   155  H    0.027068
   156  H    0.047310
   157  H    0.049017
   158  H    0.037200
 Sum of Mulliken charges =  -0.00000

 Dipole moment (field-independent basis, Debye):
    X=              8.4141    Y=              1.0545    Z=              5.0958  Tot=              9.8932
 Quadrupole moment (field-independent basis, Debye-Ang):
   XX=           -482.1207   YY=           -473.4953   ZZ=           -519.6810
   XY=             53.7005   XZ=             43.3800   YZ=             18.5515

 Normal termination of Gaussian 16 at Tue Sep 14 15:15:31 2021.
