 Gaussian 16, Revision A.03,
 Gaussian 16:  ES64L-G16RevA.03 25-Dec-2016

 ----------------------------------------------------------
 #p cam-b3lyp/Def2SVP td=(nstates=5) density=(transition=1)
 ----------------------------------------------------------

 --------------------------------
 TDDFT excited states in gaussian
 --------------------------------
 Symbolic Z-matrix:
 Charge =  0 Multiplicity = 1

                         Standard orientation:
 ---------------------------------------------------------------------
 Center     Atomic      Atomic             Coordinates (Angstroms)
 Number     Number       Type             X           Y           Z
 ---------------------------------------------------------------------
      1         12           0       -0.662059    0.019618   -0.289607
      2          6           0        2.738213    0.303519    0.285794
      3          6           0       -0.406963   -3.412649    0.054237
      4          6           0       -4.029591   -0.112234   -0.096793
      5          6           0       -0.752217    3.545067   -0.262663
      6          7           0        0.950204   -1.369560    0.409732
      7          6           0        2.237409   -1.013307    0.377965
      8          6           0        3.137422   -2.226563    0.767417
      9          6           0        2.165634   -3.450346    0.417520
     10          6           0        0.790404   -2.710815    0.199613
     11          6           0        2.690873   -4.323340   -0.747605
     12          6           0        3.440521   -2.204810    2.248319
     13          6           0        4.862299   -2.584347    2.631866
     14          1           0        5.203149   -3.424286    3.920063
     15          7           0       -2.021986   -1.625107   -0.224554
     16          6           0       -1.759275   -2.926507   -0.014548
     17          6           0       -3.001948   -3.626949   -0.050724
     18          6           0       -4.072821   -2.708951   -0.272967
     19          6           0       -3.413260   -1.397609   -0.244558
     20          6           0       -3.059117   -5.109791   -0.065807
     21          6           0       -5.510927   -3.088747   -0.277810
     22          8           0       -5.835864   -4.261090   -0.188656
     23          6           0       -6.610697   -2.050000   -0.462454
     24          7           0       -2.226027    1.588174   -0.277977
     25          6           0       -3.523962    1.205927   -0.118260
     26          6           0       -4.390790    2.388884    0.167792
     27          6           0       -3.307968    3.568011    0.117591
     28          6           0       -1.988962    2.922108   -0.227102
     29          6           0       -5.596984    2.549458   -0.776354
     30          6           0       -3.219565    4.489518    1.413720
     31          6           0       -3.299255    6.029340    1.290370
     32          7           0        0.659940    1.596321   -0.072667
     33          6           0        0.493232    2.942957   -0.156506
     34          6           0        1.728757    3.569202   -0.326297
     35          6           0        2.694742    2.582331   -0.187078
     36          6           0        2.001178    1.419763    0.038274
     37          6           0        1.925271    5.105207   -0.487094
     38          6           0        4.052735    2.297195   -0.190531
     39          8           0        4.990236    3.085921   -0.236972
     40          6           0        4.237398    0.744854    0.170349
     41          6           0        4.818439    0.016757   -0.899313
     42          8           0        4.334885   -0.382707   -1.961246
     43          8           0        6.139461   -0.217045   -0.529856
     44          6           0        7.039401   -0.946399   -1.406784
     45          1           0       -0.312954   -4.499277    0.005296
     46          1           0       -5.114655    0.003212   -0.044948
     47          1           0       -0.890604    4.624363   -0.355611
     48          1           0        4.056119   -2.160198    0.185246
     49          1           0        1.930073   -4.087793    1.269119
     50          1           0        3.582777   -3.894756   -1.204262
     51          1           0        1.908130   -4.436947   -1.498287
     52          1           0        2.881396   -5.319555   -0.349074
     53          1           0        2.784154   -2.773888    2.906989
     54          1           0        3.172455   -1.196197    2.562820
     55          1           0        5.439592   -1.659970    2.623346
     56          1           0        5.169516   -3.153335    1.754402
     57          1           0       -3.170809   -5.332692   -1.126746
     58          1           0       -3.893913   -5.484567    0.526752
     59          1           0       -2.156760   -5.578548    0.326922
     60          1           0       -6.739229   -1.582432    0.513861
     61          1           0       -7.527355   -2.619061   -0.615460
     62          1           0       -6.350955   -1.347918   -1.254634
     63          1           0       -4.702841    2.150299    1.184039
     64          1           0       -3.566791    4.317871   -0.629974
     65          1           0       -6.471864    2.263798   -0.191396
     66          1           0       -5.506756    1.955451   -1.686399
     67          1           0       -5.716602    3.601962   -1.032164
     68          1           0       -2.270512    4.287479    1.910079
     69          1           0       -4.022676    4.297368    2.125532
     70          1           0       -2.239404    6.253559    1.170475
     71          1           0       -3.646125    6.466942    2.225576
     72          1           0       -3.716851    6.486805    0.393562
     73          1           0        1.761927    5.575917    0.481524
     74          1           0        1.215702    5.614400   -1.139559
     75          1           0        2.939059    5.335580   -0.815776
     76          1           0        4.812894    0.724389    1.095943
     77          1           0        8.039981   -0.551434   -1.233590
     78          1           0        6.746414   -0.971525   -2.456705
     79          1           0        7.096628   -1.970275   -1.037049
 ---------------------------------------------------------------------

 SCF Done:  E(RCAM-B3LYP) =  -2034.88311353     A.U. after   17 cycles

 Excitation energies and oscillator strengths:

 Excited State   1:      Singlet-A      1.6990 eV  729.75 nm  f=0.4023  <S**2>=0.000
     155 ->158        -0.18521
     156 ->157         0.68484
     155 <-158        -0.11001
 This state for optimization and/or second-order correction.
 Total Energy, E(TD-HF/TD-DFT) =  -2034.82067657
 Copying the excited state density for this state as the 1-particle RhoCI density.

 Excited State   2:      Singlet-A      2.2279 eV  556.51 nm  f=0.1003  <S**2>=0.000
     155 ->157         0.63665
     156 ->158         0.29391

 Excited State   3:      Singlet-A      3.2254 eV  384.40 nm  f=0.0037  <S**2>=0.000
     154 ->157         0.68119
     156 ->158        -0.12072

 Excited State   4:      Singlet-A      3.4107 eV  363.52 nm  f=0.0204  <S**2>=0.000
     150 ->157        -0.14882
     150 ->159         0.10605
     151 ->157        -0.28843
     151 ->159         0.21677
     153 ->157         0.50869
     153 ->159        -0.11186
     156 ->158        -0.18072

 Excited State   5:      Singlet-A      3.4806 eV  356.21 nm  f=0.3098  <S**2>=0.000
     150 ->157        -0.12396
     151 ->157        -0.37302
     151 ->159         0.16205
     153 ->157        -0.18925
     155 ->157        -0.19495
     156 ->158         0.46239

 The electronic state is 1-A.
 Alpha  occ. eigenvalues --  -46.89704 -19.24655 -19.20208 -19.19261 -19.18369
 Alpha  occ. eigenvalues --  -14.42366 -14.42035 -14.39821 -14.39216 -10.39638
 Alpha  occ. eigenvalues --  -10.35245 -10.34637 -10.31599 -10.31560 -10.31410
 Alpha  occ. eigenvalues --  -10.31324 -10.31157 -10.30920 -10.29790 -10.29454
 Alpha  occ. eigenvalues --  -10.28848 -10.28734 -10.28516 -10.28352 -10.28344
 Alpha  occ. eigenvalues --  -10.28330 -10.28192 -10.28191 -10.27827 -10.27812
 Alpha  occ. eigenvalues --  -10.27776 -10.27387 -10.27055 -10.26872 -10.26810
 Alpha  occ. eigenvalues --  -10.26620 -10.26545 -10.26083 -10.26045 -10.25913
 Alpha  occ. eigenvalues --  -10.25868 -10.24922 -10.24865  -3.18027  -1.92940
 Alpha  occ. eigenvalues --   -1.92477  -1.92320  -1.15763  -1.10048  -1.10004
 Alpha  occ. eigenvalues --   -1.07540  -1.05527  -1.04101  -1.03878  -1.02628
 Alpha  occ. eigenvalues --   -0.93915  -0.89495  -0.89171  -0.88420  -0.87912
 Alpha  occ. eigenvalues --   -0.86896  -0.86211  -0.85443  -0.84660  -0.83069
 Alpha  occ. eigenvalues --   -0.82274  -0.81501  -0.80817  -0.78200  -0.77633
 Alpha  occ. eigenvalues --   -0.76584  -0.76529  -0.75197  -0.73532  -0.72410
 Alpha  occ. eigenvalues --   -0.69842  -0.69279  -0.68144  -0.67441  -0.66202
 Alpha  occ. eigenvalues --   -0.65935  -0.65506  -0.64881  -0.62726  -0.60521
 Alpha  occ. eigenvalues --   -0.59910  -0.59147  -0.59122  -0.58205  -0.58016
 Alpha  occ. eigenvalues --   -0.56375  -0.56174  -0.55480  -0.54896  -0.54395
 Alpha  occ. eigenvalues --   -0.53561  -0.53420  -0.52674  -0.52356  -0.52108
 Alpha  occ. eigenvalues --   -0.52101  -0.51853  -0.51523  -0.51335  -0.50400
 Alpha  occ. eigenvalues --   -0.50159  -0.50035  -0.49611  -0.49460  -0.49047
 Alpha  occ. eigenvalues --   -0.49009  -0.48408  -0.48314  -0.47553  -0.46904
 Alpha  occ. eigenvalues --   -0.46774  -0.46728  -0.46631  -0.46148  -0.45983
 Alpha  occ. eigenvalues --   -0.45840  -0.45498  -0.45318  -0.45098  -0.44722
 Alpha  occ. eigenvalues --   -0.44539  -0.43926  -0.43631  -0.43411  -0.43185
 Alpha  occ. eigenvalues --   -0.42892  -0.42207  -0.42075  -0.41944  -0.41856
 Alpha  occ. eigenvalues --   -0.41462  -0.41089  -0.40266  -0.39750  -0.38311
 Alpha  occ. eigenvalues --   -0.38233  -0.37988  -0.37395  -0.37289  -0.36293
 Alpha  occ. eigenvalues --   -0.35692  -0.34938  -0.34382  -0.33637  -0.31846
 Alpha  occ. eigenvalues --   -0.31223  -0.30734  -0.30516  -0.29464  -0.24570
 Alpha  occ. eigenvalues --   -0.21564
 Alpha virt. eigenvalues --   -0.09202  -0.02291  -0.00196   0.02318   0.02498
 Alpha virt. eigenvalues --    0.04033   0.04621   0.05487   0.06292   0.08016
 Alpha virt. eigenvalues --    0.08392   0.08534   0.08922   0.09540   0.10449

 Mulliken charges:
               1
     1  Mg  12.002832
     2  C    6.006741
     3  C    5.967182
     4  C    5.985143
     5  C    6.029296
     6  N    6.984974
     7  C    5.978780
     8  C    6.007299
     9  C    5.989980
    10  C    6.042592
    11  C    5.999283
    12  C    6.001024
    13  C    6.002537
    14  H    0.990289
    15  N    6.993523
    16  C    6.050912
    17  C    6.021776
    18  C    6.012197
    19  C    6.042583
    20  C    5.993563
    21  C    6.009544
    22  O    8.018426
    23  C    5.996853
    24  N    7.008285
    25  C    6.029782
    26  C    5.988889
    27  C    6.010729
    28  C    5.961973
    29  C    5.996048
    30  C    6.002578
    31  C    5.997543
    32  N    7.000990
    33  C    5.961754
    34  C    5.970669
    35  C    5.994182
    36  C    5.976160
    37  C    6.000109
    38  C    5.983972
    39  O    7.966740
    40  C    5.994560
    41  C    5.998965
    42  O    7.989647
    43  O    7.998287
    44  C    6.004087
    45  H    1.004567
    46  H    1.011850
    47  H    0.994236
    48  H    1.001389
    49  H    0.999447
    50  H    1.012502
    51  H    0.995414
    52  H    1.001699
    53  H    0.987915
    54  H    1.006613
    55  H    1.005041
    56  H    0.995934
    57  H    1.023233
    58  H    1.018913
    59  H    1.023458
    60  H    1.010268
    61  H    1.013293
    62  H    1.008068
    63  H    0.999586
    64  H    0.998766
    65  H    0.999376
    66  H    0.998850
    67  H    1.012325
    68  H    1.005174
    69  H    0.989413
    70  H    1.007769
    71  H    0.996894
    72  H    0.996984
    73  H    0.978969
    74  H    0.978635
    75  H    0.987190
    76  H    0.989724
    77  H    0.995930
    78  H    0.995445
    79  H    0.991851
 Sum of Mulliken charges = 312.00000

 Dipole moment (field-independent basis, Debye):
    X=             -8.3064    Y=             -7.4727    Z=             -0.1858  Tot=             11.1746
 Quadrupole moment (field-independent basis, Debye-Ang):
   XX=              6.9581   YY=              1.1163   ZZ=             -1.0278
   XY=              6.7176   XZ=              1.8815   YZ=              2.1573

 Normal termination of Gaussian 16 at Fri Oct  8 16:31:23 2021.
