 Gaussian 16, Revision A.03,
 Gaussian 16:  ES64L-G16RevA.03 25-Dec-2016

 -----------------------------------
 #p cam-b3lyp/Def2SVP td=(nstates=5)
 -----------------------------------

 --------------------------------
 TDDFT excited states in gaussian
 --------------------------------
 Symbolic Z-matrix:
 Charge =  0 Multiplicity = 1

                         Standard orientation:
 ---------------------------------------------------------------------
 Center     Atomic      Atomic             Coordinates (Angstroms)
 Number     Number       Type             X           Y           Z
 ---------------------------------------------------------------------
      1         12           0       21.854717   -0.525771    0.208465
      2          6           0       18.450040   -1.567220    0.182103
      3          6           0       22.131506   -1.432709   -3.082978
      4          6           0       24.748253    1.427428   -0.035498
      5          6           0       21.321506    0.907225    3.372430
      6          7           0       20.242732   -1.197793   -1.341299
      7          6           0       19.053067   -1.765662   -1.084457
      8          6           0       18.669729   -2.673121   -2.239071
      9          6           0       19.825824   -2.588454   -3.347769
     10          6           0       20.875857   -1.777302   -2.432329
     11          6           0       20.282941   -4.021755   -3.700570
     12          6           0       17.309787   -2.290224   -2.800349
     13          6           0       16.982536   -0.779591   -2.868781
     14          1           0       16.987571   -0.124400   -4.276965
     15          7           0       23.329427   -0.123252   -1.346224
     16          6           0       23.194291   -0.610339   -2.628087
     17          6           0       24.417437   -0.290756   -3.294986
     18          6           0       25.195521    0.629583   -2.494239
     19          6           0       24.476535    0.663707   -1.195520
     20          6           0       24.680475   -0.662516   -4.735928
     21          6           0       26.385574    1.483692   -2.934315
     22          8           0       26.758323    1.457738   -4.091421
     23          6           0       27.103869    2.351952   -2.050255
     24          7           0       22.843640    1.034990    1.434441
     25          6           0       24.044516    1.529688    1.172961
     26          6           0       24.539583    2.502231    2.231068
     27          6           0       23.238162    2.590703    3.138859
     28          6           0       22.435903    1.422459    2.691335
     29          6           0       25.836205    1.990211    3.029111
     30          6           0       22.544722    4.021950    2.984308
     31          6           0       22.535973    4.993263    4.130602
     32          7           0       20.388144   -0.553323    1.582444
     33          6           0       20.356804   -0.028331    2.890456
     34          6           0       19.119141   -0.432163    3.583382
     35          6           0       18.406833   -1.038539    2.548838
     36          6           0       19.122195   -1.003919    1.301101
     37          6           0       18.743003   -0.325299    5.101626
     38          6           0       17.118027   -1.679236    2.268011
     39          8           0       16.131087   -1.947063    2.973080
     40          6           0       17.087135   -2.063466    0.751890
     41          6           0       15.950242   -1.212802    0.301029
     42          8           0       15.894214   -0.014212    0.404159
     43          8           0       14.945881   -1.978076   -0.116501
     44          6           0       13.718976   -1.332017   -0.700661
     45          1           0       22.324449   -1.977325   -4.009436
     46          1           0       25.656538    2.026671    0.053927
     47          1           0       21.217804    1.484370    4.294204
     48          1           0       18.613768   -3.611776   -1.687754
     49          1           0       19.515136   -2.036348   -4.235160
     50          1           0       20.112046   -4.179167   -4.765331
     51          1           0       19.733179   -4.811490   -3.187885
     52          1           0       21.354335   -4.047736   -3.503539
     53          1           0       16.525583   -2.755930   -2.203426
     54          1           0       17.214419   -2.625689   -3.833459
     55          1           0       17.681616   -0.087386   -2.399687
     56          1           0       15.995410   -0.696809   -2.413850
     57          1           0       23.821207   -1.155739   -5.191059
     58          1           0       25.607707   -1.235896   -4.763372
     59          1           0       24.951455    0.252962   -5.260660
     60          1           0       26.529939    3.184938   -1.643683
     61          1           0       27.951292    2.784754   -2.581568
     62          1           0       27.381259    1.684225   -1.233879
     63          1           0       24.698818    3.515580    1.863334
     64          1           0       23.680410    2.611473    4.135057
     65          1           0       26.172077    1.042702    2.606771
     66          1           0       25.526419    1.802559    4.057353
     67          1           0       26.666680    2.694739    3.095694
     68          1           0       21.469520    3.925131    2.833309
     69          1           0       22.958780    4.566967    2.137117
     70          1           0       21.589528    5.031262    4.670011
     71          1           0       22.695561    5.920489    3.579268
     72          1           0       23.421802    4.962041    4.765194
     73          1           0       18.488743    0.714414    5.305839
     74          1           0       19.592404   -0.706937    5.668406
     75          1           0       17.832964   -0.900768    5.270256
     76          1           0       16.933029   -3.142678    0.720218
     77          1           0       12.998022   -1.029417    0.059127
     78          1           0       13.209564   -2.006085   -1.390507
     79          1           0       14.097878   -0.475770   -1.258643
     80         12           0      -20.652572    0.741759   -0.515257
     81          6           0      -21.574845   -2.687538   -0.026448
     82          6           0      -17.687854    0.071871    0.727031
     83          6           0      -20.291896    4.028650   -0.290104
     84          6           0      -24.153665    1.276388   -1.507857
     85          7           0      -19.734841   -1.118364    0.215494
     86          6           0      -20.276025   -2.410337    0.368696
     87          6           0      -19.266176   -3.454535    0.978609
     88          6           0      -17.965083   -2.452429    1.135355
     89          6           0      -18.441112   -1.082009    0.663817
     90          6           0      -17.437382   -2.378932    2.632214
     91          6           0      -19.029653   -4.752460    0.130432
     92          6           0      -17.783590   -5.556171    0.482610
     93          1           0      -18.063551   -6.946070    1.082931
     94          7           0      -19.141179    1.888122    0.042397
     95          6           0      -17.920877    1.483246    0.530100
     96          6           0      -17.032017    2.596756    0.786743
     97          6           0      -17.833322    3.761849    0.461025
     98          6           0      -19.151535    3.221710   -0.028429
     99          6           0      -15.638157    2.524237    1.201803
    100          6           0      -17.476403    5.237293    0.511537
    101          8           0      -18.185004    6.114601    0.104188
    102          6           0      -16.176102    5.546814    1.204619
    103          7           0      -22.052932    2.424793   -0.791873
    104          6           0      -21.599904    3.696984   -0.659968
    105          6           0      -22.702105    4.721569   -1.040084
    106          6           0      -23.860796    3.794507   -1.547554
    107          6           0      -23.317910    2.396639   -1.321216
    108          6           0      -23.181613    5.733036    0.056093
    109          6           0      -24.290015    3.980826   -3.045646
    110          6           0      -25.173576    5.226287   -3.278779
    111          7           0      -22.499570   -0.374993   -0.720763
    112          6           0      -23.755258   -0.059046   -1.185985
    113          6           0      -24.522099   -1.237782   -1.271530
    114          6           0      -23.788946   -2.261381   -0.800070
    115          6           0      -22.523081   -1.712189   -0.432955
    116          6           0      -25.914829   -1.230150   -1.888117
    117          6           0      -23.706555   -3.679780   -0.437258
    118          8           0      -24.529133   -4.555866   -0.511096
    119          6           0      -22.231208   -3.984093    0.110152
    120          6           0      -22.353528   -4.282163    1.570479
    121          8           0      -22.363423   -3.561521    2.542905
    122          8           0      -22.414951   -5.659783    1.641320
    123          6           0      -22.520744   -6.260568    2.992286
    124          1           0      -16.698474   -0.040920    1.174942
    125          1           0      -20.159700    5.086870   -0.052210
    126          1           0      -25.116289    1.586313   -1.921124
    127          1           0      -19.597183   -3.680048    1.992489
    128          1           0      -17.152675   -2.864205    0.536122
    129          1           0      -16.349316   -2.441923    2.634524
    130          1           0      -17.829793   -3.080916    3.367483
    131          1           0      -17.609974   -1.385029    3.043950
    132          1           0      -19.038026   -4.321396   -0.871522
    133          1           0      -19.838130   -5.480382    0.059179
    134          1           0      -17.190914   -4.994390    1.204029
    135          1           0      -17.260009   -5.806902   -0.439526
    136          1           0      -15.168291    2.940447    0.310710
    137          1           0      -15.350745    1.499648    1.438337
    138          1           0      -15.323943    3.132910    2.049433
    139          1           0      -15.378561    5.605162    0.464048
    140          1           0      -16.059560    5.039965    2.162984
    141          1           0      -16.390038    6.489367    1.707744
    142          1           0      -22.359703    5.167364   -1.974439
    143          1           0      -24.695078    3.856860   -0.848498
    144          1           0      -24.242007    5.705397    0.308566
    145          1           0      -23.075823    6.716925   -0.400388
    146          1           0      -22.653481    5.676079    1.007892
    147          1           0      -24.872603    3.116597   -3.362733
    148          1           0      -23.353027    3.998505   -3.604017
    149          1           0      -25.650527    5.534159   -2.348075
    150          1           0      -25.883425    4.944484   -4.056380
    151          1           0      -24.622426    6.112141   -3.595781
    152          1           0      -26.166950   -2.205441   -2.304608
    153          1           0      -25.959620   -0.443934   -2.641816
    154          1           0      -26.652799   -0.906542   -1.153767
    155          1           0      -21.756487   -4.797139   -0.439630
    156          1           0      -23.222848   -7.087666    2.887868
    157          1           0      -22.873249   -5.574736    3.762517
    158          1           0      -21.487179   -6.583765    3.120149
 ---------------------------------------------------------------------

 SCF Done:  E(RCAM-B3LYP) =  -4069.77897317     A.U. after   19 cycles

 Excitation energies and oscillator strengths:

 Excited State   1:      Singlet-A      1.6890 eV  734.09 nm  f=0.3787  <S**2>=0.000
     309 -> 315        0.20027
     311 -> 313        0.67885
     309 <- 315        0.11464
 This state for optimization and/or second-order correction.
 Total Energy, E(TD-HF/TD-DFT) =  -4069.71690523
 Copying the excited state density for this state as the 1-particle RhoCI density.

 Excited State   2:      Singlet-A      1.6973 eV  730.47 nm  f=0.3737  <S**2>=0.000
     310 -> 316        0.17733
     312 -> 314        0.68471
     310 <- 316        0.10740

 Excited State   3:      Singlet-A      2.1999 eV  563.59 nm  f=0.0721  <S**2>=0.000
     309 -> 313        0.61850
     311 -> 315       -0.32997

 Excited State   4:      Singlet-A      2.2114 eV  560.66 nm  f=0.1388  <S**2>=0.000
     310 -> 314        0.65073
     312 -> 316       -0.26506

 Excited State   5:      Singlet-A      3.0855 eV  401.83 nm  f=0.0000  <S**2>=0.000
     312 -> 313        0.70710

 The electronic state is 1-A.
 Alpha  occ. eigenvalues --  -46.90250 -46.88561 -19.25123 -19.23832 -19.19912
 Alpha  occ. eigenvalues --  -19.19100 -19.18937 -19.18900 -19.18895 -19.18105
 Alpha  occ. eigenvalues --  -14.42470 -14.42180 -14.42012 -14.41311 -14.40178
 Alpha  occ. eigenvalues --  -14.39617 -14.39577 -14.38839 -10.38965 -10.38771
 Alpha  occ. eigenvalues --  -10.35258 -10.35010 -10.34759 -10.34357 -10.32508
 Alpha  occ. eigenvalues --  -10.32046 -10.31429 -10.31195 -10.31017 -10.30966
 Alpha  occ. eigenvalues --  -10.30902 -10.30855 -10.30775 -10.30743 -10.30358
 Alpha  occ. eigenvalues --  -10.30179 -10.30096 -10.30094 -10.29993 -10.29888
 Alpha  occ. eigenvalues --  -10.29370 -10.29079 -10.28897 -10.28894 -10.28857
 Alpha  occ. eigenvalues --  -10.28849 -10.28768 -10.28753 -10.28478 -10.28445
 Alpha  occ. eigenvalues --  -10.28425 -10.28190 -10.28136 -10.28102 -10.27891
 Alpha  occ. eigenvalues --  -10.27740 -10.27706 -10.27658 -10.27478 -10.27174
 Alpha  occ. eigenvalues --  -10.27051 -10.27028 -10.26983 -10.26949 -10.26932
 Alpha  occ. eigenvalues --  -10.26832 -10.26812 -10.26770 -10.26757 -10.26742
 Alpha  occ. eigenvalues --  -10.26729 -10.26696 -10.26636 -10.26450 -10.26230
 Alpha  occ. eigenvalues --  -10.26143 -10.25872 -10.25825 -10.25699 -10.25671
 Alpha  occ. eigenvalues --  -10.25590 -10.25555 -10.25553 -10.25539 -10.25085
 Alpha  occ. eigenvalues --  -10.24697  -3.18557  -3.17104  -1.93420  -1.93044
 Alpha  occ. eigenvalues --   -1.92834  -1.92000  -1.91540  -1.91428  -1.17109
 Alpha  occ. eigenvalues --   -1.15696  -1.11356  -1.10781  -1.10250  -1.08859
 Alpha  occ. eigenvalues --   -1.07748  -1.07457  -1.04638  -1.03798  -1.03716
 Alpha  occ. eigenvalues --   -1.03287  -1.02493  -1.02436  -1.01640  -1.01582
 Alpha  occ. eigenvalues --   -0.93005  -0.91985  -0.88988  -0.88921  -0.88859
 Alpha  occ. eigenvalues --   -0.88290  -0.88239  -0.88112  -0.87137  -0.87126
 Alpha  occ. eigenvalues --   -0.86835  -0.86158  -0.86012  -0.85393  -0.84725
 Alpha  occ. eigenvalues --   -0.84081  -0.83885  -0.83182  -0.82890  -0.82658
 Alpha  occ. eigenvalues --   -0.82167  -0.82039  -0.81135  -0.80700  -0.80292
 Alpha  occ. eigenvalues --   -0.80066  -0.78103  -0.77939  -0.77387  -0.76965
 Alpha  occ. eigenvalues --   -0.76633  -0.76426  -0.76339  -0.75534  -0.75002
 Alpha  occ. eigenvalues --   -0.74809  -0.72893  -0.72761  -0.71760  -0.71312
 Alpha  occ. eigenvalues --   -0.69633  -0.68939  -0.68741  -0.68562  -0.68160
 Alpha  occ. eigenvalues --   -0.67712  -0.66946  -0.66718  -0.65619  -0.65232
 Alpha  occ. eigenvalues --   -0.65035  -0.64794  -0.64599  -0.64404  -0.64069
 Alpha  occ. eigenvalues --   -0.63880  -0.62461  -0.61450  -0.60322  -0.60070
 Alpha  occ. eigenvalues --   -0.59464  -0.59310  -0.59016  -0.58810  -0.58733
 Alpha  occ. eigenvalues --   -0.58322  -0.57840  -0.57833  -0.57300  -0.56863
 Alpha  occ. eigenvalues --   -0.56357  -0.56119  -0.55878  -0.55759  -0.55074
 Alpha  occ. eigenvalues --   -0.54991  -0.54948  -0.54548  -0.54455  -0.54271
 Alpha  occ. eigenvalues --   -0.54119  -0.53901  -0.53650  -0.53567  -0.53093
 Alpha  occ. eigenvalues --   -0.52652  -0.52648  -0.52529  -0.52368  -0.52057
 Alpha  occ. eigenvalues --   -0.51938  -0.51790  -0.51611  -0.51565  -0.51327
 Alpha  occ. eigenvalues --   -0.50986  -0.50711  -0.50532  -0.50193  -0.50180
 Alpha  occ. eigenvalues --   -0.49841  -0.49791  -0.49727  -0.49664  -0.49522
 Alpha  occ. eigenvalues --   -0.49473  -0.49252  -0.49145  -0.48984  -0.48819
 Alpha  occ. eigenvalues --   -0.48543  -0.48396  -0.48296  -0.47958  -0.47832
 Alpha  occ. eigenvalues --   -0.47802  -0.47738  -0.47337  -0.47044  -0.46987
 Alpha  occ. eigenvalues --   -0.46935  -0.46745  -0.46632  -0.46329  -0.46326
 Alpha  occ. eigenvalues --   -0.45883  -0.45841  -0.45734  -0.45635  -0.45437
 Alpha  occ. eigenvalues --   -0.45343  -0.45290  -0.45216  -0.45166  -0.45134
 Alpha  occ. eigenvalues --   -0.45031  -0.44930  -0.44835  -0.44708  -0.44390
 Alpha  occ. eigenvalues --   -0.43982  -0.43970  -0.43802  -0.43712  -0.43608
 Alpha  occ. eigenvalues --   -0.43466  -0.43249  -0.43175  -0.42924  -0.42749
 Alpha  occ. eigenvalues --   -0.42540  -0.42423  -0.42061  -0.42031  -0.41806
 Alpha  occ. eigenvalues --   -0.41609  -0.41526  -0.41439  -0.41322  -0.41106
 Alpha  occ. eigenvalues --   -0.40937  -0.40895  -0.40766  -0.40464  -0.40152
 Alpha  occ. eigenvalues --   -0.40059  -0.39836  -0.39331  -0.38778  -0.38675
 Alpha  occ. eigenvalues --   -0.38092  -0.38027  -0.37743  -0.37454  -0.37149
 Alpha  occ. eigenvalues --   -0.37000  -0.36783  -0.36533  -0.36418  -0.36332
 Alpha  occ. eigenvalues --   -0.35748  -0.35724  -0.34629  -0.34291  -0.34139
 Alpha  occ. eigenvalues --   -0.33927  -0.33382  -0.32581  -0.31416  -0.31302
 Alpha  occ. eigenvalues --   -0.30821  -0.30780  -0.30710  -0.30560  -0.30310
 Alpha  occ. eigenvalues --   -0.30100  -0.29731  -0.28956  -0.24317  -0.23579
 Alpha  occ. eigenvalues --   -0.21351  -0.20951
 Alpha virt. eigenvalues --   -0.08802  -0.08523  -0.02590  -0.01120   0.00231
 Alpha virt. eigenvalues --    0.00891   0.00997   0.02394   0.02476   0.02686
 Alpha virt. eigenvalues --    0.04751   0.04955   0.05150   0.05861   0.06385

 Mulliken charges:
               1
     1  Mg   0.809044
     2  C   -0.024254
     3  C   -0.063380
     4  C   -0.069221
     5  C   -0.046398
     6  N   -0.259842
     7  C   -0.095516
     8  C    0.047104
     9  C   -0.095000
    10  C    0.038587
    11  C    0.067259
    12  C    0.028231
    13  C   -0.086675
    14  H   -0.003198
    15  N   -0.383447
    16  C    0.151052
    17  C   -0.160408
    18  C   -0.041611
    19  C    0.173076
    20  C    0.133621
    21  C   -0.012988
    22  O   -0.204432
    23  C    0.070698
    24  N   -0.255747
    25  C    0.022701
    26  C   -0.100958
    27  C   -0.016323
    28  C    0.028513
    29  C    0.062462
    30  C    0.013452
    31  C    0.006253
    32  N   -0.412700
    33  C    0.143967
    34  C   -0.181424
    35  C    0.017250
    36  C    0.150111
    37  C    0.132505
    38  C    0.023755
    39  O   -0.196900
    40  C    0.022533
    41  C    0.168901
    42  O   -0.207068
    43  O   -0.315700
    44  C    0.170872
    45  H   -0.008621
    46  H   -0.041453
    47  H   -0.025241
    48  H    0.008612
    49  H    0.035944
    50  H    0.010334
    51  H    0.022934
    52  H    0.020769
    53  H    0.017486
    54  H    0.016105
    55  H    0.065864
    56  H    0.027649
    57  H    0.007254
    58  H    0.023958
    59  H    0.038924
    60  H    0.044555
    61  H    0.029545
    62  H    0.034976
    63  H    0.015092
    64  H   -0.005451
    65  H    0.022383
    66  H    0.010559
    67  H    0.024223
    68  H    0.012509
    69  H    0.009696
    70  H    0.031439
    71  H    0.006077
    72  H    0.005332
    73  H    0.031921
    74  H    0.035015
    75  H    0.039119
    76  H    0.037203
    77  H    0.053474
    78  H    0.040909
    79  H    0.052148
    80  Mg   0.840139
    81  C   -0.023595
    82  C   -0.059946
    83  C   -0.059505
    84  C   -0.088246
    85  N   -0.312899
    86  C   -0.052888
    87  C    0.013277
    88  C   -0.070181
    89  C    0.084894
    90  C    0.032868
    91  C    0.022267
    92  C   -0.067089
    93  H    0.013107
    94  N   -0.403480
    95  C    0.093555
    96  C   -0.114430
    97  C   -0.089660
    98  C    0.139395
    99  C    0.129794
   100  C   -0.007908
   101  O   -0.175143
   102  C    0.037068
   103  N   -0.268497
   104  C    0.008202
   105  C    0.022476
   106  C   -0.064392
   107  C   -0.003247
   108  C    0.067819
   109  C    0.012966
   110  C    0.024893
   111  N   -0.316137
   112  C    0.150935
   113  C   -0.226528
   114  C    0.063313
   115  C    0.099526
   116  C    0.138226
   117  C    0.034462
   118  O   -0.135707
   119  C   -0.039659
   120  C    0.217461
   121  O   -0.203416
   122  O   -0.356826
   123  C    0.167136
   124  H   -0.052208
   125  H   -0.001821
   126  H   -0.022111
   127  H    0.024663
   128  H    0.022134
   129  H    0.009535
   130  H    0.028693
   131  H    0.021748
   132  H    0.009437
   133  H    0.037177
   134  H    0.040143
   135  H    0.040328
   136  H    0.035127
   137  H    0.015727
   138  H    0.025436
   139  H    0.055364
   140  H    0.027335
   141  H    0.014955
   142  H    0.011965
   143  H    0.007778
   144  H    0.012399
   145  H    0.017596
   146  H    0.029886
   147  H    0.004769
   148  H    0.008081
   149  H    0.011341
   150  H    0.020277
   151  H    0.015884
   152  H    0.034509
   153  H    0.007366
   154  H    0.021758
   155  H    0.051795
   156  H    0.045604
   157  H    0.055978
   158  H    0.036953
 Sum of Mulliken charges =  -0.00000

 Dipole moment (field-independent basis, Debye):
    X=              5.1452    Y=             -0.2543    Z=              1.0871  Tot=              5.2650
 Quadrupole moment (field-independent basis, Debye-Ang):
   XX=           -584.7132   YY=           -508.4101   ZZ=           -509.5661
   XY=            -43.8673   XZ=             83.3694   YZ=             16.0747

 Normal termination of Gaussian 16 at Tue Sep 14 18:28:42 2021.
