 Gaussian 16, Revision A.03,
 Gaussian 16:  ES64L-G16RevA.03 25-Dec-2016

 ----------------------------------------------------------
 #p cam-b3lyp/Def2SVP td=(nstates=5) density=(transition=1)
 ----------------------------------------------------------

 --------------------------------
 TDDFT excited states in gaussian
 --------------------------------
 Symbolic Z-matrix:
 Charge =  0 Multiplicity = 1

                         Standard orientation:
 ---------------------------------------------------------------------
 Center     Atomic      Atomic             Coordinates (Angstroms)
 Number     Number       Type             X           Y           Z
 ---------------------------------------------------------------------
      1         12           0      -17.806490   -0.818915    0.066593
      2          6           0      -17.487004    2.661887   -0.562819
      3          6           0      -16.739313   -0.073153    3.355512
      4          6           0      -17.704844   -4.019947    0.689006
      5          6           0      -18.550486   -1.304368   -3.296054
      6          7           0      -17.162034    1.117376    1.282737
      7          6           0      -17.235841    2.391678    0.775983
      8          6           0      -16.966579    3.465605    1.816418
      9          6           0      -16.600674    2.527913    3.045683
     10          6           0      -16.882672    1.097296    2.561446
     11          6           0      -15.198562    2.830558    3.565974
     12          6           0      -18.226592    4.327109    2.052431
     13          6           0      -18.044237    5.865175    2.345045
     14          1           0      -16.665241    6.352512    2.848715
     15          7           0      -17.367851   -1.912128    1.809080
     16          6           0      -16.874553   -1.418070    3.017000
     17          6           0      -16.694136   -2.554155    3.934645
     18          6           0      -17.074410   -3.713704    3.183286
     19          6           0      -17.441593   -3.202641    1.848741
     20          6           0      -16.155001   -2.420973    5.257552
     21          6           0      -17.086076   -5.172461    3.628985
     22          8           0      -17.349779   -6.083875    2.828651
     23          6           0      -16.957831   -5.526981    5.058386
     24          7           0      -17.987213   -2.443163   -1.161612
     25          6           0      -18.007594   -3.672884   -0.640782
     26          6           0      -18.198472   -4.752260   -1.755409
     27          6           0      -18.655529   -3.872424   -2.962025
     28          6           0      -18.383784   -2.474510   -2.501921
     29          6           0      -16.939835   -5.660520   -1.999039
     30          6           0      -20.202954   -4.138396   -3.103266
     31          6           0      -21.235797   -3.195391   -2.395210
     32          7           0      -18.093008    0.384774   -1.586450
     33          6           0      -18.382729    0.021061   -2.914034
     34          6           0      -18.387176    1.252383   -3.742406
     35          6           0      -17.990581    2.257743   -2.868345
     36          6           0      -17.847758    1.760008   -1.590434
     37          6           0      -18.458966    1.162166   -5.190553
     38          6           0      -17.586586    3.661596   -2.862814
     39          8           0      -17.517227    4.429276   -3.815996
     40          6           0      -17.207474    3.997110   -1.344418
     41          6           0      -15.810341    4.482594   -1.234627
     42          8           0      -14.822896    3.798158   -0.982395
     43          8           0      -15.790797    5.873909   -1.448034
     44          6           0      -14.552581    6.619567   -1.459793
     45          1           0      -16.658959    0.086390    4.433165
     46          1           0      -17.708929   -5.102626    0.833919
     47          1           0      -18.835984   -1.579118   -4.313341
     48          1           0      -16.134992    4.115866    1.543667
     49          1           0      -17.241123    2.851186    3.865850
     50          1           0      -15.144650    3.076092    4.626010
     51          1           0      -14.653215    3.619121    3.047397
     52          1           0      -14.636288    1.898814    3.491332
     53          1           0      -18.827721    3.919830    2.865280
     54          1           0      -18.761280    4.150662    1.118470
     55          1           0      -18.705322    6.177160    3.152892
     56          1           0      -18.490776    6.369541    1.488134
     57          1           0      -16.864293   -2.910457    5.925257
     58          1           0      -15.826749   -1.398914    5.444144
     59          1           0      -15.212935   -2.955854    5.133003
     60          1           0      -15.950191   -5.391005    5.452324
     61          1           0      -17.185009   -6.584789    5.189410
     62          1           0      -17.560359   -4.819886    5.627812
     63          1           0      -18.980766   -5.334861   -1.268842
     64          1           0      -18.174376   -4.176416   -3.891979
     65          1           0      -17.040639   -6.593809   -1.444887
     66          1           0      -16.067212   -5.056590   -1.752348
     67          1           0      -16.925692   -5.866767   -3.069125
     68          1           0      -20.398075   -5.202029   -2.964998
     69          1           0      -20.408667   -3.823823   -4.126844
     70          1           0      -21.959472   -3.891851   -1.972721
     71          1           0      -21.763344   -2.541245   -3.090588
     72          1           0      -20.852270   -2.595580   -1.570549
     73          1           0      -17.736951    0.419160   -5.526874
     74          1           0      -18.149129    2.134441   -5.575017
     75          1           0      -19.491305    1.067203   -5.526149
     76          1           0      -17.890478    4.808797   -1.091968
     77          1           0      -14.155380    6.783061   -2.461296
     78          1           0      -13.869193    6.267884   -0.686728
     79          1           0      -14.879505    7.556110   -1.007107
     80         12           0       17.717049   -0.676646    0.231483
     81          6           0       15.756342    2.208176    0.467214
     82          6           0       20.510364    1.345561    0.353135
     83          6           0       19.641503   -3.339393   -0.694432
     84          6           0       14.854214   -2.469334   -0.532343
     85          7           0       18.026147    1.475049    0.479463
     86          6           0       17.101648    2.400178    0.767129
     87          6           0       17.666900    3.741702    1.256203
     88          6           0       19.213501    3.524551    1.038769
     89          6           0       19.316336    1.940495    0.670915
     90          6           0       19.910262    4.410792   -0.016122
     91          6           0       17.280436    4.112461    2.688164
     92          6           0       17.276597    5.630641    2.943492
     93          1           0       17.666108    6.584657    1.805497
     94          7           0       19.782493   -1.008712   -0.017075
     95          6           0       20.804161   -0.044591    0.144274
     96          6           0       22.082325   -0.699825   -0.048056
     97          6           0       21.847002   -2.074548   -0.424988
     98          6           0       20.392800   -2.210931   -0.359113
     99          6           0       23.372446    0.022464    0.227186
    100          6           0       22.872827   -3.268684   -0.678110
    101          8           0       22.538768   -4.415744   -0.850593
    102          6           0       24.339214   -2.896444   -0.712793
    103          7           0       17.314476   -2.574278   -0.590219
    104          6           0       18.256802   -3.524113   -0.856536
    105          6           0       17.618246   -4.881707   -1.329696
    106          6           0       16.128289   -4.572444   -1.193483
    107          6           0       16.105809   -3.120948   -0.752726
    108          6           0       18.040903   -5.563543   -2.693026
    109          6           0       15.453387   -5.509233   -0.164285
    110          6           0       15.560310   -5.167786    1.338508
    111          7           0       15.653431   -0.329426    0.137919
    112          6           0       14.602260   -1.148341   -0.183929
    113          6           0       13.362950   -0.449224   -0.115558
    114          6           0       13.763037    0.938401    0.142567
    115          6           0       15.098948    0.929233    0.252750
    116          6           0       11.980187   -0.898892   -0.290516
    117          6           0       13.306011    2.318855    0.222912
    118          8           0       12.158028    2.775610    0.240885
    119          6           0       14.555841    3.220836    0.444184
    120          6           0       14.676595    4.234133   -0.599019
    121          8           0       15.098858    4.053111   -1.736193
    122          8           0       14.033943    5.376550   -0.192572
    123          6           0       13.644715    6.391498   -1.190800
    124          1           0       21.332741    2.063929    0.375796
    125          1           0       20.245622   -4.241394   -0.812032
    126          1           0       13.941723   -3.051357   -0.677207
    127          1           0       17.421095    4.553735    0.572266
    128          1           0       19.787813    3.546752    1.964241
    129          1           0       20.727470    4.815213    0.580871
    130          1           0       19.243703    5.203844   -0.354206
    131          1           0       20.226934    3.811536   -0.869854
    132          1           0       17.920794    3.627318    3.423841
    133          1           0       16.278259    3.746592    2.913108
    134          1           0       17.984914    5.693968    3.769812
    135          1           0       16.338920    5.966028    3.388939
    136          1           0       23.095515    1.067528    0.366417
    137          1           0       24.042793   -0.111758   -0.622033
    138          1           0       23.894633   -0.356294    1.107082
    139          1           0       24.701915   -2.387734   -1.606561
    140          1           0       24.914357   -3.801431   -0.517093
    141          1           0       24.421315   -2.240040    0.153448
    142          1           0       17.976662   -5.554210   -0.550683
    143          1           0       15.695971   -4.709125   -2.184047
    144          1           0       17.208862   -5.878809   -3.321537
    145          1           0       18.583546   -6.478496   -2.457459
    146          1           0       18.728627   -4.886561   -3.200686
    147          1           0       15.872576   -6.495834   -0.358020
    148          1           0       14.406725   -5.541723   -0.468273
    149          1           0       15.739502   -6.127689    1.822168
    150          1           0       14.636331   -4.770513    1.758044
    151          1           0       16.307013   -4.410787    1.575670
    152          1           0       11.376919   -0.413677    0.475980
    153          1           0       11.825052   -1.976712   -0.241213
    154          1           0       11.563643   -0.470796   -1.202466
    155          1           0       14.396110    3.651961    1.432361
    156          1           0       13.981730    6.132078   -2.195007
    157          1           0       14.129419    7.328444   -0.915302
    158          1           0       12.560525    6.375814   -1.085212
 ---------------------------------------------------------------------

 SCF Done:  E(RCAM-B3LYP) =  -4069.82292180     A.U. after   19 cycles

 Excitation energies and oscillator strengths:

 Excited State   1:      Singlet-A      1.7177 eV  721.80 nm  f=0.4142  <S**2>=0.000
     310 -> 316        0.18152
     311 -> 313        0.68397
     310 <- 316        0.10677
 This state for optimization and/or second-order correction.
 Total Energy, E(TD-HF/TD-DFT) =  -4069.75979738
 Copying the excited state density for this state as the 1-particle RhoCI density.

 Excited State   2:      Singlet-A      1.7491 eV  708.84 nm  f=0.3717  <S**2>=0.000
     309 -> 315       -0.18983
     312 -> 314        0.68131
     309 <- 315       -0.10803

 Excited State   3:      Singlet-A      2.1355 eV  580.59 nm  f=0.1566  <S**2>=0.000
     310 -> 313        0.65932
     311 -> 316       -0.23566

 Excited State   4:      Singlet-A      2.2728 eV  545.50 nm  f=0.0723  <S**2>=0.000
     309 -> 314        0.62313
     312 -> 315        0.32196

 Excited State   5:      Singlet-A      2.9576 eV  419.20 nm  f=0.0000  <S**2>=0.000
     312 -> 313        0.70709

 The electronic state is 1-A.
 Alpha  occ. eigenvalues --  -46.88472 -46.88229 -19.23942 -19.23858 -19.19930
 Alpha  occ. eigenvalues --  -19.19845 -19.19284 -19.18970 -19.18705 -19.18690
 Alpha  occ. eigenvalues --  -14.42265 -14.42091 -14.41878 -14.41252 -14.39652
 Alpha  occ. eigenvalues --  -14.39416 -14.38884 -14.38149 -10.39444 -10.38667
 Alpha  occ. eigenvalues --  -10.36174 -10.35340 -10.35255 -10.35070 -10.31151
 Alpha  occ. eigenvalues --  -10.31144 -10.30974 -10.30871 -10.30865 -10.30737
 Alpha  occ. eigenvalues --  -10.30696 -10.30658 -10.30419 -10.30356 -10.30303
 Alpha  occ. eigenvalues --  -10.30282 -10.30182 -10.29856 -10.29201 -10.29154
 Alpha  occ. eigenvalues --  -10.28996 -10.28863 -10.28838 -10.28836 -10.28562
 Alpha  occ. eigenvalues --  -10.28257 -10.28202 -10.28139 -10.28096 -10.28007
 Alpha  occ. eigenvalues --  -10.27763 -10.27649 -10.27561 -10.27556 -10.27550
 Alpha  occ. eigenvalues --  -10.27522 -10.27413 -10.27407 -10.27358 -10.27247
 Alpha  occ. eigenvalues --  -10.27207 -10.27110 -10.27109 -10.27009 -10.26990
 Alpha  occ. eigenvalues --  -10.26934 -10.26898 -10.26777 -10.26577 -10.26476
 Alpha  occ. eigenvalues --  -10.26397 -10.26340 -10.26332 -10.26310 -10.25968
 Alpha  occ. eigenvalues --  -10.25904 -10.25835 -10.25781 -10.25719 -10.25458
 Alpha  occ. eigenvalues --  -10.25302 -10.25278 -10.25250 -10.25061 -10.24744
 Alpha  occ. eigenvalues --  -10.24662  -3.17015  -3.16754  -1.91922  -1.91655
 Alpha  occ. eigenvalues --   -1.91483  -1.91303  -1.91207  -1.91061  -1.15074
 Alpha  occ. eigenvalues --   -1.14616  -1.11569  -1.09623  -1.09173  -1.08851
 Alpha  occ. eigenvalues --   -1.07207  -1.06628  -1.04725  -1.04436  -1.04007
 Alpha  occ. eigenvalues --   -1.03314  -1.03060  -1.02433  -1.01340  -1.01007
 Alpha  occ. eigenvalues --   -0.92061  -0.91945  -0.89848  -0.89168  -0.88796
 Alpha  occ. eigenvalues --   -0.88623  -0.88353  -0.88125  -0.87299  -0.87082
 Alpha  occ. eigenvalues --   -0.86701  -0.86445  -0.86149  -0.86073  -0.84188
 Alpha  occ. eigenvalues --   -0.84097  -0.83424  -0.83264  -0.82611  -0.82326
 Alpha  occ. eigenvalues --   -0.81959  -0.81953  -0.80986  -0.80796  -0.80403
 Alpha  occ. eigenvalues --   -0.80158  -0.78911  -0.78114  -0.77126  -0.77070
 Alpha  occ. eigenvalues --   -0.76826  -0.76818  -0.75887  -0.75748  -0.75000
 Alpha  occ. eigenvalues --   -0.74744  -0.72418  -0.72091  -0.71266  -0.71080
 Alpha  occ. eigenvalues --   -0.69806  -0.69202  -0.68873  -0.68436  -0.67803
 Alpha  occ. eigenvalues --   -0.67674  -0.66671  -0.66066  -0.64966  -0.64753
 Alpha  occ. eigenvalues --   -0.64689  -0.64644  -0.64429  -0.64423  -0.64147
 Alpha  occ. eigenvalues --   -0.63712  -0.61493  -0.61386  -0.60293  -0.59759
 Alpha  occ. eigenvalues --   -0.59325  -0.59078  -0.59069  -0.59006  -0.58303
 Alpha  occ. eigenvalues --   -0.58023  -0.57836  -0.57654  -0.57397  -0.57127
 Alpha  occ. eigenvalues --   -0.56241  -0.55843  -0.55453  -0.55423  -0.55289
 Alpha  occ. eigenvalues --   -0.55158  -0.54649  -0.54240  -0.53920  -0.53810
 Alpha  occ. eigenvalues --   -0.53691  -0.53337  -0.53286  -0.53113  -0.52856
 Alpha  occ. eigenvalues --   -0.52726  -0.52667  -0.52314  -0.52291  -0.52121
 Alpha  occ. eigenvalues --   -0.51964  -0.51771  -0.51598  -0.51460  -0.51267
 Alpha  occ. eigenvalues --   -0.50789  -0.50727  -0.50623  -0.50568  -0.50211
 Alpha  occ. eigenvalues --   -0.49867  -0.49744  -0.49657  -0.49570  -0.49520
 Alpha  occ. eigenvalues --   -0.49353  -0.49046  -0.48989  -0.48987  -0.48867
 Alpha  occ. eigenvalues --   -0.48529  -0.48485  -0.48348  -0.48218  -0.48115
 Alpha  occ. eigenvalues --   -0.48041  -0.47609  -0.47556  -0.47322  -0.47100
 Alpha  occ. eigenvalues --   -0.46909  -0.46734  -0.46640  -0.46243  -0.46112
 Alpha  occ. eigenvalues --   -0.46065  -0.45953  -0.45812  -0.45633  -0.45354
 Alpha  occ. eigenvalues --   -0.45233  -0.45015  -0.44977  -0.44629  -0.44575
 Alpha  occ. eigenvalues --   -0.44255  -0.44213  -0.44195  -0.44010  -0.43954
 Alpha  occ. eigenvalues --   -0.43891  -0.43628  -0.43625  -0.43393  -0.43379
 Alpha  occ. eigenvalues --   -0.43276  -0.43173  -0.43043  -0.42917  -0.42775
 Alpha  occ. eigenvalues --   -0.42661  -0.42514  -0.42350  -0.41914  -0.41911
 Alpha  occ. eigenvalues --   -0.41656  -0.41486  -0.41265  -0.41084  -0.40983
 Alpha  occ. eigenvalues --   -0.40871  -0.40620  -0.40600  -0.40306  -0.40218
 Alpha  occ. eigenvalues --   -0.39902  -0.39816  -0.39331  -0.38538  -0.38502
 Alpha  occ. eigenvalues --   -0.38378  -0.37829  -0.37709  -0.37675  -0.37384
 Alpha  occ. eigenvalues --   -0.37072  -0.36614  -0.36596  -0.36108  -0.36076
 Alpha  occ. eigenvalues --   -0.35657  -0.35643  -0.34306  -0.34133  -0.33996
 Alpha  occ. eigenvalues --   -0.33785  -0.33261  -0.33255  -0.31590  -0.31159
 Alpha  occ. eigenvalues --   -0.30921  -0.30869  -0.30802  -0.30782  -0.30116
 Alpha  occ. eigenvalues --   -0.29591  -0.29303  -0.28640  -0.23840  -0.23499
 Alpha  occ. eigenvalues --   -0.21303  -0.20743
 Alpha virt. eigenvalues --   -0.08899  -0.08104  -0.01666  -0.01298   0.00277
 Alpha virt. eigenvalues --    0.00617   0.02224   0.02506   0.02622   0.03369
 Alpha virt. eigenvalues --    0.04872   0.05130   0.05154   0.05346   0.05773

 Mulliken charges:
               1
     1  Mg  12.000004
     2  C    5.999842
     3  C    5.999960
     4  C    6.000233
     5  C    5.999963
     6  N    6.999893
     7  C    6.000173
     8  C    5.999899
     9  C    6.000096
    10  C    5.999836
    11  C    6.000063
    12  C    5.999961
    13  C    6.000000
    14  H    0.999893
    15  N    7.000036
    16  C    5.999674
    17  C    5.999853
    18  C    5.999881
    19  C    5.999787
    20  C    6.000129
    21  C    5.999868
    22  O    7.999842
    23  C    6.000049
    24  N    7.000065
    25  C    5.999774
    26  C    6.000037
    27  C    5.999914
    28  C    6.000149
    29  C    6.000005
    30  C    5.999956
    31  C    5.999907
    32  N    7.000004
    33  C    6.000205
    34  C    6.000320
    35  C    5.999959
    36  C    6.000245
    37  C    5.999917
    38  C    6.000115
    39  O    8.000169
    40  C    6.000006
    41  C    6.000000
    42  O    7.999918
    43  O    8.000058
    44  C    6.000007
    45  H    0.999928
    46  H    1.000016
    47  H    1.000151
    48  H    0.999922
    49  H    1.000026
    50  H    0.999970
    51  H    0.999786
    52  H    0.999898
    53  H    1.000147
    54  H    1.000004
    55  H    1.000117
    56  H    1.000021
    57  H    0.999952
    58  H    0.999812
    59  H    0.999734
    60  H    0.999848
    61  H    0.999976
    62  H    1.000038
    63  H    1.000120
    64  H    1.000022
    65  H    1.000064
    66  H    0.999865
    67  H    0.999954
    68  H    1.000151
    69  H    1.000049
    70  H    1.000177
    71  H    1.000049
    72  H    1.000000
    73  H    1.000086
    74  H    1.000115
    75  H    1.000277
    76  H    1.000121
    77  H    0.999947
    78  H    0.999900
    79  H    1.000091
    80  Mg  12.003040
    81  C    5.978736
    82  C    6.020916
    83  C    6.023412
    84  C    5.993675
    85  N    6.993758
    86  C    6.035431
    87  C    5.985266
    88  C    6.002716
    89  C    5.971130
    90  C    6.002970
    91  C    5.997673
    92  C    5.998721
    93  H    1.004722
    94  N    7.005477
    95  C    5.953774
    96  C    5.981570
    97  C    5.978973
    98  C    5.964590
    99  C    6.006234
   100  C    5.985883
   101  O    7.973727
   102  C    6.004588
   103  N    7.007829
   104  C    5.960244
   105  C    6.009916
   106  C    5.988318
   107  C    6.031951
   108  C    5.998491
   109  C    5.994997
   110  C    5.993233
   111  N    6.999226
   112  C    6.030091
   113  C    6.039077
   114  C    6.002193
   115  C    6.025400
   116  C    5.992417
   117  C    6.013408
   118  O    8.026575
   119  C    6.002408
   120  C    6.005241
   121  O    8.006720
   122  O    8.000456
   123  C    5.998187
   124  H    0.989655
   125  H    0.994035
   126  H    1.011034
   127  H    1.001799
   128  H    1.000944
   129  H    0.998677
   130  H    0.987099
   131  H    1.003113
   132  H    1.008910
   133  H    0.992008
   134  H    1.004691
   135  H    0.997675
   136  H    0.981144
   137  H    0.980003
   138  H    0.977812
   139  H    0.989485
   140  H    0.984655
   141  H    0.997953
   142  H    1.001324
   143  H    1.004079
   144  H    0.989516
   145  H    0.999985
   146  H    1.004046
   147  H    1.012465
   148  H    0.996840
   149  H    1.008840
   150  H    0.994395
   151  H    1.007573
   152  H    1.021723
   153  H    1.021592
   154  H    1.026183
   155  H    1.007361
   156  H    1.003512
   157  H    1.006362
   158  H    1.000154
 Sum of Mulliken charges = 624.00000

 Dipole moment (field-independent basis, Debye):
    X=            -11.1269    Y=              1.8243    Z=              0.1753  Tot=             11.2768
 Quadrupole moment (field-independent basis, Debye-Ang):
   XX=           -392.9250   YY=              0.1787   ZZ=              0.0856
   XY=             38.5514   XZ=              7.3837   YZ=             -1.4466

 Normal termination of Gaussian 16 at Wed Sep 22 07:36:44 2021.
