 Gaussian 16, Revision A.03,
 Gaussian 16:  ES64L-G16RevA.03 25-Dec-2016

 ----------------------------------------------------------
 #p cam-b3lyp/Def2SVP td=(nstates=5) density=(transition=1)
 ----------------------------------------------------------

 --------------------------------
 TDDFT excited states in gaussian
 --------------------------------
 Symbolic Z-matrix:
 Charge =  0 Multiplicity = 1

                         Standard orientation:
 ---------------------------------------------------------------------
 Center     Atomic      Atomic             Coordinates (Angstroms)
 Number     Number       Type             X           Y           Z
 ---------------------------------------------------------------------
      1         12           0      -26.439738   -0.806674    0.121023
      2          6           0      -27.245349    2.673716   -0.274475
      3          6           0      -23.961285   -0.285798   -2.360275
      4          6           0      -25.582720   -4.189924    0.245333
      5          6           0      -29.052843   -1.268288    2.150531
      6          7           0      -25.849992    1.037956   -1.331537
      7          6           0      -26.244693    2.321344   -1.188600
      8          6           0      -25.552182    3.218581   -2.276524
      9          6           0      -24.688171    2.142256   -3.025961
     10          6           0      -24.758764    0.871383   -2.148558
     11          6           0      -25.167190    1.915478   -4.502335
     12          6           0      -24.708948    4.347748   -1.684740
     13          6           0      -24.847823    5.685510   -2.334130
     14          1           0      -24.104445    6.883322   -1.725415
     15          7           0      -24.888923   -2.019545   -0.720443
     16          6           0      -24.005265   -1.604382   -1.711111
     17          6           0      -23.118735   -2.710116   -2.015094
     18          6           0      -23.473468   -3.797360   -1.233791
     19          6           0      -24.756237   -3.389916   -0.567549
     20          6           0      -22.092702   -2.707245   -3.111614
     21          6           0      -22.880157   -5.263409   -1.155725
     22          8           0      -23.244360   -6.169312   -0.446635
     23          6           0      -21.608863   -5.569903   -1.917380
     24          7           0      -27.246873   -2.491542    0.901935
     25          6           0      -26.783240   -3.780896    0.870313
     26          6           0      -27.792909   -4.780275    1.481592
     27          6           0      -28.766349   -3.830132    2.300745
     28          6           0      -28.298730   -2.422669    1.766858
     29          6           0      -28.480888   -5.685905    0.410575
     30          6           0      -28.644962   -3.959181    3.849692
     31          6           0      -27.333001   -3.464323    4.454409
     32          7           0      -27.879756    0.359771    0.801240
     33          6           0      -28.914611    0.059674    1.730385
     34          6           0      -29.727381    1.244996    1.994278
     35          6           0      -29.078655    2.270088    1.282632
     36          6           0      -27.970621    1.715847    0.588657
     37          6           0      -30.893978    1.310888    2.866473
     38          6           0      -29.178126    3.699461    1.005686
     39          8           0      -29.952256    4.525550    1.459317
     40          6           0      -28.035999    4.023196   -0.100340
     41          6           0      -27.314127    5.172307    0.607571
     42          8           0      -26.568048    5.120597    1.601965
     43          8           0      -27.655539    6.309888    0.027795
     44          6           0      -26.869118    7.570527    0.344425
     45          1           0      -23.153705   -0.095871   -3.069914
     46          1           0      -25.393985   -5.261832    0.343302
     47          1           0      -29.842139   -1.474541    2.876019
     48          1           0      -26.383218    3.685206   -2.804359
     49          1           0      -23.632814    2.417263   -3.048221
     50          1           0      -24.409203    2.042284   -5.275300
     51          1           0      -26.097001    2.427226   -4.751384
     52          1           0      -25.422397    0.890407   -4.771974
     53          1           0      -23.726661    4.105259   -2.090604
     54          1           0      -24.699296    4.351204   -0.594229
     55          1           0      -25.839572    6.085430   -2.551445
     56          1           0      -24.389613    5.529010   -3.310744
     57          1           0      -21.967817   -1.711486   -3.536241
     58          1           0      -22.296787   -3.387266   -3.940133
     59          1           0      -21.079220   -2.971557   -2.809350
     60          1           0      -20.774889   -4.942395   -1.603212
     61          1           0      -21.933649   -5.419667   -2.947013
     62          1           0      -21.501354   -6.647593   -1.794251
     63          1           0      -27.163142   -5.462195    2.054061
     64          1           0      -29.799774   -3.757637    1.961086
     65          1           0      -28.171227   -6.728628    0.480367
     66          1           0      -28.440378   -5.371986   -0.631868
     67          1           0      -29.528731   -5.570013    0.688105
     68          1           0      -29.016522   -4.946579    4.124075
     69          1           0      -29.401389   -3.307982    4.287379
     70          1           0      -26.561335   -3.171339    3.743445
     71          1           0      -26.938356   -4.307914    5.020176
     72          1           0      -27.393715   -2.538621    5.025520
     73          1           0      -31.370715    2.289501    2.926039
     74          1           0      -30.528253    1.008559    3.847690
     75          1           0      -31.601452    0.554226    2.524336
     76          1           0      -28.448179    4.480783   -0.999668
     77          1           0      -27.102087    8.270942   -0.457903
     78          1           0      -25.790893    7.421321    0.295968
     79          1           0      -27.075353    7.974079    1.336426
     80         12           0       27.069759    0.586410    0.127955
     81          6           0       23.919895   -0.347445   -0.998684
     82          6           0       25.828060    0.498995    3.445952
     83          6           0       30.190531    0.338372    1.295607
     84          6           0       28.279178   -0.041063   -3.123544
     85          7           0       25.111763   -0.237091    1.147853
     86          6           0       23.948308   -0.294236    0.418853
     87          6           0       22.754593   -0.473917    1.303349
     88          6           0       23.313813    0.051099    2.704781
     89          6           0       24.865857    0.094681    2.474478
     90          6           0       22.734158    1.467416    3.209480
     91          6           0       22.205309   -1.989948    1.217455
     92          6           0       20.801644   -2.143408    1.521410
     93          1           0       20.520326   -3.160163    2.647987
     94          7           0       27.920627    0.620388    2.064645
     95          6           0       27.235550    0.590799    3.311567
     96          6           0       28.236316    0.672021    4.362072
     97          6           0       29.524365    0.649625    3.774015
     98          6           0       29.252130    0.619291    2.297640
     99          6           0       27.875816    0.599863    5.799063
    100          6           0       30.881140    0.612298    4.594446
    101          8           0       30.789562    0.622961    5.821022
    102          6           0       32.231562    0.874035    3.936475
    103          7           0       28.904630    0.104443   -0.805629
    104          6           0       30.050178    0.199751   -0.084175
    105          6           0       31.393642   -0.192442   -0.963220
    106          6           0       30.783728   -0.098654   -2.443356
    107          6           0       29.250018    0.017695   -2.174340
    108          6           0       32.624757    0.778342   -0.806504
    109          6           0       31.110395   -1.318662   -3.306661
    110          6           0       31.875008   -1.163143   -4.643080
    111          7           0       26.246901    0.226012   -1.731307
    112          6           0       26.852674    0.036178   -2.939361
    113          6           0       25.845739   -0.062526   -3.959745
    114          6           0       24.646935   -0.275997   -3.180526
    115          6           0       24.992440   -0.126046   -1.826616
    116          6           0       26.080119   -0.232485   -5.432983
    117          6           0       23.250243   -0.643382   -3.285908
    118          8           0       22.544264   -0.708255   -4.245998
    119          6           0       22.637767   -0.661281   -1.831319
    120          6           0       21.570841    0.423741   -1.566311
    121          8           0       21.709932    1.602058   -1.814880
    122          8           0       20.389085   -0.181668   -1.091451
    123          6           0       19.240189    0.662455   -0.959309
    124          1           0       25.369972    0.526363    4.436051
    125          1           0       31.182164    0.018705    1.622088
    126          1           0       28.697591   -0.208670   -4.117675
    127          1           0       21.983813    0.274948    1.118222
    128          1           0       23.088915   -0.703022    3.459848
    129          1           0       22.254107    1.253385    4.164300
    130          1           0       22.032712    1.913960    2.505408
    131          1           0       23.599997    2.111564    3.365472
    132          1           0       22.788873   -2.509832    1.977056
    133          1           0       22.557058   -2.280644    0.227203
    134          1           0       20.328566   -2.472548    0.597003
    135          1           0       20.388798   -1.196706    1.869748
    136          1           0       26.805680    0.737638    5.952729
    137          1           0       28.330351    1.431235    6.338456
    138          1           0       28.140708   -0.367781    6.225853
    139          1           0       32.531260    0.102875    3.226132
    140          1           0       32.969325    0.969413    4.733838
    141          1           0       32.167004    1.843817    3.442932
    142          1           0       31.572767   -1.231907   -0.689765
    143          1           0       31.001445    0.829608   -2.972038
    144          1           0       33.442676    0.256982   -0.310069
    145          1           0       32.334704    1.637094   -0.199913
    146          1           0       32.912549    1.080201   -1.814131
    147          1           0       30.227037   -1.930543   -3.487950
    148          1           0       31.670742   -2.101289   -2.795438
    149          1           0       31.321978   -1.348217   -5.564355
    150          1           0       32.646617   -1.932835   -4.613490
    151          1           0       32.307854   -0.166511   -4.737507
    152          1           0       25.150061    0.034923   -5.935176
    153          1           0       26.092170   -1.264158   -5.783150
    154          1           0       26.969730    0.264353   -5.819181
    155          1           0       22.155353   -1.638021   -1.785031
    156          1           0       18.706121    0.135478   -0.167968
    157          1           0       18.576776    0.587874   -1.820770
    158          1           0       19.534614    1.695615   -0.779328
 ---------------------------------------------------------------------

 SCF Done:  E(RCAM-B3LYP) =  -4069.76679011     A.U. after   19 cycles

 Excitation energies and oscillator strengths:

 Excited State   1:      Singlet-A      1.6510 eV  750.97 nm  f=0.3688  <S**2>=0.000
     310 -> 315        0.18397
     312 -> 314        0.68515
     310 <- 315        0.11254
 This state for optimization and/or second-order correction.
 Total Energy, E(TD-HF/TD-DFT) =  -4069.70611769
 Copying the excited state density for this state as the 1-particle RhoCI density.

 Excited State   2:      Singlet-A      1.6846 eV  736.00 nm  f=0.3895  <S**2>=0.000
     309 -> 316        0.17409
     311 -> 313        0.68815
     309 <- 316        0.10834

 Excited State   3:      Singlet-A      2.2173 eV  559.17 nm  f=0.0914  <S**2>=0.000
     310 -> 314        0.62583
     312 -> 315       -0.32031

 Excited State   4:      Singlet-A      2.2457 eV  552.09 nm  f=0.1075  <S**2>=0.000
     309 -> 313        0.63691
     311 -> 316       -0.29182

 Excited State   5:      Singlet-A      3.1315 eV  395.93 nm  f=0.0000  <S**2>=0.000
     312 -> 313        0.70711

 The electronic state is 1-A.
 Alpha  occ. eigenvalues --  -46.89813 -46.88282 -19.25146 -19.24929 -19.20757
 Alpha  occ. eigenvalues --  -19.19708 -19.19504 -19.19353 -19.18271 -19.17989
 Alpha  occ. eigenvalues --  -14.42448 -14.42324 -14.42024 -14.41539 -14.40210
 Alpha  occ. eigenvalues --  -14.40093 -14.39667 -14.39093 -10.40097 -10.38453
 Alpha  occ. eigenvalues --  -10.36391 -10.35579 -10.35381 -10.34033 -10.32193
 Alpha  occ. eigenvalues --  -10.31823 -10.31633 -10.31472 -10.31392 -10.31360
 Alpha  occ. eigenvalues --  -10.31227 -10.31200 -10.31076 -10.31028 -10.30982
 Alpha  occ. eigenvalues --  -10.30617 -10.30573 -10.30488 -10.29990 -10.29902
 Alpha  occ. eigenvalues --  -10.29666 -10.29293 -10.28857 -10.28765 -10.28731
 Alpha  occ. eigenvalues --  -10.28661 -10.28586 -10.28521 -10.28521 -10.28492
 Alpha  occ. eigenvalues --  -10.28403 -10.28400 -10.28356 -10.28347 -10.28277
 Alpha  occ. eigenvalues --  -10.28234 -10.28177 -10.28147 -10.28129 -10.28127
 Alpha  occ. eigenvalues --  -10.27823 -10.27663 -10.27632 -10.27522 -10.27275
 Alpha  occ. eigenvalues --  -10.27052 -10.26878 -10.26877 -10.26823 -10.26708
 Alpha  occ. eigenvalues --  -10.26604 -10.26451 -10.26443 -10.26409 -10.26304
 Alpha  occ. eigenvalues --  -10.26210 -10.26084 -10.26059 -10.26008 -10.25871
 Alpha  occ. eigenvalues --  -10.25710 -10.25698 -10.25471 -10.25410 -10.25391
 Alpha  occ. eigenvalues --  -10.24644  -3.18231  -3.16973  -1.93080  -1.92740
 Alpha  occ. eigenvalues --   -1.92498  -1.91859  -1.91445  -1.91278  -1.16094
 Alpha  occ. eigenvalues --   -1.15932  -1.11443  -1.10809  -1.10303  -1.10024
 Alpha  occ. eigenvalues --   -1.08750  -1.05273  -1.04925  -1.03778  -1.03116
 Alpha  occ. eigenvalues --   -1.02927  -1.02397  -1.02205  -1.01691  -1.01609
 Alpha  occ. eigenvalues --   -0.92257  -0.90852  -0.89243  -0.89229  -0.88739
 Alpha  occ. eigenvalues --   -0.88384  -0.88198  -0.87985  -0.87344  -0.86944
 Alpha  occ. eigenvalues --   -0.86886  -0.86441  -0.86437  -0.85827  -0.84110
 Alpha  occ. eigenvalues --   -0.84105  -0.83572  -0.83382  -0.82713  -0.82355
 Alpha  occ. eigenvalues --   -0.82245  -0.81496  -0.81162  -0.81018  -0.80268
 Alpha  occ. eigenvalues --   -0.80155  -0.78123  -0.77849  -0.77345  -0.77293
 Alpha  occ. eigenvalues --   -0.76944  -0.76778  -0.76139  -0.75967  -0.75115
 Alpha  occ. eigenvalues --   -0.74949  -0.72675  -0.72583  -0.71636  -0.71359
 Alpha  occ. eigenvalues --   -0.70057  -0.69254  -0.68740  -0.68451  -0.67525
 Alpha  occ. eigenvalues --   -0.67468  -0.66520  -0.66266  -0.65933  -0.65469
 Alpha  occ. eigenvalues --   -0.65109  -0.64828  -0.64558  -0.64518  -0.64109
 Alpha  occ. eigenvalues --   -0.64046  -0.62837  -0.61767  -0.59664  -0.59584
 Alpha  occ. eigenvalues --   -0.59493  -0.59267  -0.59007  -0.58929  -0.58581
 Alpha  occ. eigenvalues --   -0.58022  -0.57693  -0.57479  -0.57352  -0.56344
 Alpha  occ. eigenvalues --   -0.56229  -0.55632  -0.55480  -0.55347  -0.55014
 Alpha  occ. eigenvalues --   -0.54981  -0.54848  -0.54656  -0.54020  -0.53954
 Alpha  occ. eigenvalues --   -0.53320  -0.53259  -0.53203  -0.52883  -0.52736
 Alpha  occ. eigenvalues --   -0.52708  -0.52613  -0.52462  -0.52415  -0.52109
 Alpha  occ. eigenvalues --   -0.52106  -0.51750  -0.51656  -0.51509  -0.51054
 Alpha  occ. eigenvalues --   -0.50956  -0.50882  -0.50813  -0.50216  -0.50101
 Alpha  occ. eigenvalues --   -0.50099  -0.49789  -0.49718  -0.49628  -0.49595
 Alpha  occ. eigenvalues --   -0.49277  -0.49231  -0.49216  -0.49163  -0.48941
 Alpha  occ. eigenvalues --   -0.48776  -0.48642  -0.48464  -0.48427  -0.48121
 Alpha  occ. eigenvalues --   -0.48028  -0.47905  -0.47511  -0.47441  -0.47321
 Alpha  occ. eigenvalues --   -0.47040  -0.46965  -0.46715  -0.46644  -0.46436
 Alpha  occ. eigenvalues --   -0.46330  -0.46184  -0.46174  -0.45936  -0.45819
 Alpha  occ. eigenvalues --   -0.45690  -0.45492  -0.45252  -0.45227  -0.44972
 Alpha  occ. eigenvalues --   -0.44901  -0.44778  -0.44525  -0.44401  -0.44149
 Alpha  occ. eigenvalues --   -0.44089  -0.43980  -0.43956  -0.43630  -0.43546
 Alpha  occ. eigenvalues --   -0.43518  -0.43396  -0.43145  -0.43123  -0.42979
 Alpha  occ. eigenvalues --   -0.42957  -0.42725  -0.42695  -0.42509  -0.42486
 Alpha  occ. eigenvalues --   -0.42208  -0.42135  -0.41803  -0.41441  -0.41397
 Alpha  occ. eigenvalues --   -0.41089  -0.40989  -0.40900  -0.40476  -0.40356
 Alpha  occ. eigenvalues --   -0.40176  -0.39817  -0.39570  -0.39189  -0.38666
 Alpha  occ. eigenvalues --   -0.38623  -0.38198  -0.38038  -0.37741  -0.37509
 Alpha  occ. eigenvalues --   -0.37081  -0.36708  -0.36612  -0.36243  -0.36045
 Alpha  occ. eigenvalues --   -0.35625  -0.35620  -0.34802  -0.34276  -0.33894
 Alpha  occ. eigenvalues --   -0.33293  -0.33115  -0.32716  -0.31596  -0.31428
 Alpha  occ. eigenvalues --   -0.31266  -0.30974  -0.30787  -0.30345  -0.30231
 Alpha  occ. eigenvalues --   -0.29982  -0.29971  -0.29187  -0.24330  -0.24096
 Alpha  occ. eigenvalues --   -0.21183  -0.20946
 Alpha virt. eigenvalues --   -0.08797  -0.08688  -0.02021  -0.01662   0.00378
 Alpha virt. eigenvalues --    0.00666   0.01319   0.02150   0.02402   0.03422
 Alpha virt. eigenvalues --    0.04556   0.04655   0.05166   0.05278   0.05818

 Mulliken charges:
               1
     1  Mg  12.000715
     2  C    5.977977
     3  C    6.023459
     4  C    6.028236
     5  C    5.992558
     6  N    6.990705
     7  C    6.029354
     8  C    5.995196
     9  C    6.006193
    10  C    5.966797
    11  C    6.002568
    12  C    5.994224
    13  C    5.998081
    14  H    1.000580
    15  N    7.009824
    16  C    5.948237
    17  C    5.985491
    18  C    5.981518
    19  C    5.956373
    20  C    6.006951
    21  C    5.987795
    22  O    7.973478
    23  C    6.003682
    24  N    7.012174
    25  C    5.957563
    26  C    6.007223
    27  C    5.995874
    28  C    6.033690
    29  C    6.005436
    30  C    5.994487
    31  C    5.993046
    32  N    6.994244
    33  C    6.041001
    34  C    6.028537
    35  C    6.004162
    36  C    6.036205
    37  C    5.997929
    38  C    6.014310
    39  O    8.028306
    40  C    6.002898
    41  C    6.003457
    42  O    8.005039
    43  O    8.000096
    44  C    5.997590
    45  H    0.989779
    46  H    0.993903
    47  H    1.012751
    48  H    0.996384
    49  H    1.001231
    50  H    0.997124
    51  H    0.987020
    52  H    1.002361
    53  H    1.009735
    54  H    0.996326
    55  H    0.996653
    56  H    1.005877
    57  H    0.981588
    58  H    0.979352
    59  H    0.980442
    60  H    0.992250
    61  H    0.995018
    62  H    0.985519
    63  H    1.002492
    64  H    0.997554
    65  H    1.000080
    66  H    1.001217
    67  H    0.986110
    68  H    1.010555
    69  H    0.995892
    70  H    1.011761
    71  H    1.008737
    72  H    0.995795
    73  H    1.015439
    74  H    1.018639
    75  H    1.018749
    76  H    1.008850
    77  H    1.004628
    78  H    1.005310
    79  H    1.001613
    80  Mg  12.000003
    81  C    5.999827
    82  C    6.000273
    83  C    6.000101
    84  C    5.999724
    85  N    7.000083
    86  C    6.000263
    87  C    5.999861
    88  C    6.000109
    89  C    5.999640
    90  C    6.000009
    91  C    6.000005
    92  C    5.999945
    93  H    1.000133
    94  N    7.000041
    95  C    5.999533
    96  C    5.999894
    97  C    5.999835
    98  C    5.999728
    99  C    6.000099
   100  C    5.999872
   101  O    7.999803
   102  C    6.000047
   103  N    6.999853
   104  C    5.999797
   105  C    6.000084
   106  C    5.999920
   107  C    6.000328
   108  C    6.000013
   109  C    5.999983
   110  C    5.999993
   111  N    7.000008
   112  C    6.000396
   113  C    6.000139
   114  C    6.000101
   115  C    6.000281
   116  C    5.999952
   117  C    6.000196
   118  O    8.000303
   119  C    6.000022
   120  C    6.000058
   121  O    8.000038
   122  O    8.000031
   123  C    5.999953
   124  H    0.999916
   125  H    0.999888
   126  H    1.000063
   127  H    1.000048
   128  H    0.999974
   129  H    0.999981
   130  H    0.999899
   131  H    1.000009
   132  H    1.000092
   133  H    0.999917
   134  H    1.000009
   135  H    1.000042
   136  H    0.999836
   137  H    0.999828
   138  H    0.999826
   139  H    0.999899
   140  H    0.999853
   141  H    0.999920
   142  H    0.999968
   143  H    0.999995
   144  H    0.999980
   145  H    1.000021
   146  H    0.999893
   147  H    0.999976
   148  H    1.000067
   149  H    0.999978
   150  H    1.000022
   151  H    1.000009
   152  H    1.000143
   153  H    1.000211
   154  H    1.000144
   155  H    1.000131
   156  H    1.000082
   157  H    1.000082
   158  H    1.000025
 Sum of Mulliken charges = 624.00000

 Dipole moment (field-independent basis, Debye):
    X=             -7.6941    Y=              6.0362    Z=              4.7089  Tot=             10.8540
 Quadrupole moment (field-independent basis, Debye-Ang):
   XX=            399.3435   YY=             -7.7974   ZZ=              0.0291
   XY=           -152.3393   XZ=           -129.1186   YZ=             -4.1841

 Normal termination of Gaussian 16 at Wed Sep 22 10:19:05 2021.
