 Gaussian 16, Revision A.03,
 Gaussian 16:  ES64L-G16RevA.03 25-Dec-2016

 -----------------------------------
 #p cam-b3lyp/Def2SVP td=(nstates=5)
 -----------------------------------

 --------------------------------
 TDDFT excited states in gaussian
 --------------------------------
 Symbolic Z-matrix:
 Charge =  0 Multiplicity = 1

                         Standard orientation:
 ---------------------------------------------------------------------
 Center     Atomic      Atomic             Coordinates (Angstroms)
 Number     Number       Type             X           Y           Z
 ---------------------------------------------------------------------
      1         12           0      -19.348358    0.410233    0.150474
      2          6           0      -17.922727   -2.664905   -0.722670
      3          6           0      -16.135547    1.681612    0.001770
      4          6           0      -20.646261    3.447290    0.633936
      5          6           0      -22.515791   -0.875046   -0.581518
      6          7           0      -17.195875   -0.469668   -0.542718
      7          6           0      -16.890581   -1.769097   -0.722029
      8          6           0      -15.424870   -2.013989   -0.989133
      9          6           0      -14.908207   -0.629018   -0.441916
     10          6           0      -16.109694    0.306286   -0.352614
     11          6           0      -14.319541   -0.808833    0.982842
     12          6           0      -15.181564   -2.406864   -2.451811
     13          6           0      -15.969416   -1.703743   -3.576707
     14          1           0      -15.141914   -1.187482   -4.747859
     15          7           0      -18.527119    2.277224    0.307515
     16          6           0      -17.185357    2.550957    0.336886
     17          6           0      -16.982493    3.867770    0.954926
     18          6           0      -18.288166    4.500512    1.015882
     19          6           0      -19.212160    3.381860    0.656322
     20          6           0      -15.559855    4.530607    1.104757
     21          6           0      -18.587476    5.958874    1.371779
     22          8           0      -17.717084    6.680968    1.771471
     23          6           0      -19.989830    6.485092    1.267029
     24          7           0      -21.347401    1.194973   -0.186515
     25          6           0      -21.692111    2.504129    0.197711
     26          6           0      -23.246781    2.797742    0.070898
     27          6           0      -23.813258    1.337133   -0.267211
     28          6           0      -22.475019    0.466488   -0.312176
     29          6           0      -24.035312    3.537000    1.264014
     30          6           0      -24.718193    1.182358   -1.573397
     31          6           0      -25.846652    0.058754   -1.349566
     32          7           0      -20.148570   -1.417304   -0.471800
     33          6           0      -21.462311   -1.806809   -0.636011
     34          6           0      -21.504806   -3.235251   -0.924144
     35          6           0      -20.160390   -3.688503   -0.916167
     36          6           0      -19.354439   -2.511091   -0.710536
     37          6           0      -22.737490   -4.095989   -1.016341
     38          6           0      -19.192676   -4.811994   -1.137795
     39          8           0      -19.384916   -5.947925   -1.510361
     40          6           0      -17.755276   -4.162078   -0.957813
     41          6           0      -17.109689   -4.864483    0.204902
     42          8           0      -16.609714   -6.015442    0.140732
     43          8           0      -17.025301   -3.996725    1.284087
     44          6           0      -16.231858   -4.451931    2.376447
     45          1           0      -15.114242    2.065836    0.045740
     46          1           0      -21.190980    4.332078    0.970598
     47          1           0      -23.519672   -1.304153   -0.609807
     48          1           0      -15.010836   -2.762004   -0.313266
     49          1           0      -14.147060   -0.104705   -1.018125
     50          1           0      -14.541068    0.116999    1.514303
     51          1           0      -13.267221   -1.084449    0.930263
     52          1           0      -14.784966   -1.521595    1.664338
     53          1           0      -15.497628   -3.446584   -2.530792
     54          1           0      -14.112746   -2.325223   -2.649826
     55          1           0      -16.464459   -0.825234   -3.163613
     56          1           0      -16.667556   -2.424766   -4.000970
     57          1           0      -15.146947    4.951108    0.187410
     58          1           0      -14.858751    3.799812    1.508000
     59          1           0      -15.473096    5.312686    1.858152
     60          1           0      -20.030879    7.566663    1.400015
     61          1           0      -20.673676    6.030404    1.984046
     62          1           0      -20.210478    6.316125    0.212718
     63          1           0      -23.234083    3.430715   -0.815596
     64          1           0      -24.395378    0.942030    0.564835
     65          1           0      -23.985656    4.606783    1.064407
     66          1           0      -23.600182    3.304128    2.235492
     67          1           0      -25.063395    3.174389    1.272855
     68          1           0      -24.141200    0.774688   -2.403372
     69          1           0      -25.135706    2.142247   -1.878368
     70          1           0      -25.728201   -0.760496   -2.058836
     71          1           0      -26.831525    0.501619   -1.494969
     72          1           0      -25.855779   -0.503410   -0.416398
     73          1           0      -23.371447   -3.702937   -1.810422
     74          1           0      -23.287671   -4.048049   -0.076361
     75          1           0      -22.504784   -5.127716   -1.279439
     76          1           0      -17.209758   -4.489568   -1.842554
     77          1           0      -16.156094   -3.658329    3.119435
     78          1           0      -15.279970   -4.856482    2.031993
     79          1           0      -16.733004   -5.232435    2.948893
     80         12           0       19.414972   -0.020613   -0.685427
     81          6           0       16.866864    0.307256    1.744511
     82          6           0       20.484126   -2.830197    0.955371
     83          6           0       22.151481    0.047721   -2.549474
     84          6           0       18.487374    3.113200   -1.938518
     85          7           0       18.841677   -1.040862    1.242933
     86          6           0       17.690100   -0.768709    1.986267
     87          6           0       17.406217   -1.935074    2.964656
     88          6           0       18.600320   -2.923886    2.702348
     89          6           0       19.378167   -2.277698    1.522568
     90          6           0       19.386680   -3.397452    3.912256
     91          6           0       16.030821   -2.610095    2.846837
     92          6           0       15.229929   -2.644933    4.177417
     93          1           0       14.787710   -4.017296    4.634622
     94          7           0       21.043909   -1.298370   -0.820031
     95          6           0       21.348312   -2.384750   -0.053520
     96          6           0       22.500729   -3.026175   -0.640281
     97          6           0       23.098046   -2.098009   -1.596506
     98          6           0       22.078824   -1.060984   -1.645475
     99          6           0       23.131352   -4.390068   -0.046446
    100          6           0       24.456408   -1.995911   -2.143914
    101          8           0       24.864515   -1.196850   -2.937767
    102          6           0       25.461570   -3.020695   -1.626721
    103          7           0       20.303903    1.519199   -1.914378
    104          6           0       21.417847    1.255735   -2.624951
    105          6           0       21.645323    2.328546   -3.692496
    106          6           0       20.301266    3.073968   -3.716722
    107          6           0       19.614831    2.532878   -2.482462
    108          6           0       22.863348    3.287078   -3.306151
    109          6           0       19.495746    2.632343   -5.042479
    110          6           0       18.912415    1.192983   -5.028490
    111          7           0       17.914400    1.431223   -0.338313
    112          6           0       17.673464    2.613597   -0.927502
    113          6           0       16.520194    3.200746   -0.300006
    114          6           0       16.152668    2.319575    0.699540
    115          6           0       17.066560    1.262232    0.703446
    116          6           0       15.830331    4.516791   -0.604795
    117          6           0       15.175804    2.189065    1.783977
    118          8           0       14.308091    2.840057    2.294123
    119          6           0       15.545095    0.841952    2.459482
    120          6           0       15.827399    1.172832    3.878351
    121          8           0       16.639678    2.011144    4.178997
    122          8           0       15.015108    0.498300    4.775633
    123          6           0       15.031653    0.994231    6.192505
    124          1           0       20.684566   -3.826111    1.356219
    125          1           0       22.972705    0.060237   -3.269661
    126          1           0       18.000706    3.978204   -2.393970
    127          1           0       17.547968   -1.576123    3.984261
    128          1           0       18.180378   -3.873157    2.369158
    129          1           0       19.198617   -2.763079    4.777194
    130          1           0       20.460916   -3.465886    3.738844
    131          1           0       18.970909   -4.370448    4.172793
    132          1           0       15.998335   -3.656252    2.542487
    133          1           0       15.418174   -2.108262    2.098228
    134          1           0       14.411091   -1.925600    4.169735
    135          1           0       15.898417   -2.309680    4.969384
    136          1           0       23.298959   -5.069679   -0.881919
    137          1           0       22.503012   -4.951349    0.644080
    138          1           0       24.042611   -4.330242    0.548593
    139          1           0       25.038456   -3.971249   -1.952408
    140          1           0       25.441442   -2.904686   -0.543560
    141          1           0       26.456090   -2.946898   -2.067794
    142          1           0       21.791315    1.922874   -4.694167
    143          1           0       20.271070    4.159172   -3.616645
    144          1           0       23.292039    3.644342   -4.242837
    145          1           0       23.696503    2.870225   -2.739288
    146          1           0       22.388787    4.115368   -2.780235
    147          1           0       20.082800    2.752622   -5.952764
    148          1           0       18.568877    3.202030   -5.110755
    149          1           0       18.521444    0.836871   -5.981015
    150          1           0       18.084758    1.183157   -4.319092
    151          1           0       19.694499    0.526292   -4.663755
    152          1           0       15.397366    4.576807   -1.603056
    153          1           0       16.634517    5.248437   -0.531330
    154          1           0       15.102523    4.796977    0.156691
    155          1           0       14.618591    0.271477    2.396803
    156          1           0       15.079935    0.031949    6.702191
    157          1           0       14.115730    1.513357    6.474196
    158          1           0       15.826554    1.656740    6.534104
 ---------------------------------------------------------------------

 SCF Done:  E(RCAM-B3LYP) =  -4069.81313599     A.U. after   19 cycles

 Excitation energies and oscillator strengths:

 Excited State   1:      Singlet-A      1.7036 eV  727.76 nm  f=0.4000  <S**2>=0.000
     309 -> 316        0.17554
     311 -> 313        0.68722
     309 <- 316        0.10762
 This state for optimization and/or second-order correction.
 Total Energy, E(TD-HF/TD-DFT) =  -4069.75052834
 Copying the excited state density for this state as the 1-particle RhoCI density.

 Excited State   2:      Singlet-A      1.7469 eV  709.73 nm  f=0.3614  <S**2>=0.000
     310 -> 315        0.19409
     312 -> 314        0.68059
     310 <- 315        0.10945

 Excited State   3:      Singlet-A      2.1918 eV  565.68 nm  f=0.1393  <S**2>=0.000
     309 -> 313        0.65684
     311 -> 316       -0.24836

 Excited State   4:      Singlet-A      2.2375 eV  554.13 nm  f=0.1043  <S**2>=0.000
     310 -> 314        0.63522
     312 -> 315       -0.29910

 Excited State   5:      Singlet-A      3.0820 eV  402.28 nm  f=0.0000  <S**2>=0.000
     312 -> 313        0.70709

 The electronic state is 1-A.
 Alpha  occ. eigenvalues --  -46.90396 -46.89557 -19.26042 -19.25158 -19.20015
 Alpha  occ. eigenvalues --  -19.19620 -19.19547 -19.19294 -19.19038 -19.18412
 Alpha  occ. eigenvalues --  -14.42260 -14.42125 -14.41935 -14.41813 -14.40523
 Alpha  occ. eigenvalues --  -14.39786 -14.39476 -14.39244 -10.39977 -10.38809
 Alpha  occ. eigenvalues --  -10.35789 -10.35304 -10.35170 -10.34388 -10.32832
 Alpha  occ. eigenvalues --  -10.31982 -10.31832 -10.31823 -10.31541 -10.31130
 Alpha  occ. eigenvalues --  -10.30851 -10.30788 -10.30772 -10.30768 -10.30587
 Alpha  occ. eigenvalues --  -10.30254 -10.30211 -10.29976 -10.29886 -10.29641
 Alpha  occ. eigenvalues --  -10.29582 -10.29549 -10.29366 -10.29266 -10.29174
 Alpha  occ. eigenvalues --  -10.28957 -10.28690 -10.28540 -10.28527 -10.28443
 Alpha  occ. eigenvalues --  -10.28393 -10.28201 -10.28067 -10.28045 -10.28040
 Alpha  occ. eigenvalues --  -10.28010 -10.27993 -10.27910 -10.27904 -10.27794
 Alpha  occ. eigenvalues --  -10.27789 -10.27779 -10.27747 -10.27722 -10.27522
 Alpha  occ. eigenvalues --  -10.27406 -10.27043 -10.27002 -10.26877 -10.26661
 Alpha  occ. eigenvalues --  -10.26567 -10.26523 -10.26429 -10.26291 -10.26287
 Alpha  occ. eigenvalues --  -10.26262 -10.26218 -10.26188 -10.26177 -10.25976
 Alpha  occ. eigenvalues --  -10.25969 -10.25948 -10.25887 -10.25622 -10.25075
 Alpha  occ. eigenvalues --  -10.25056  -3.18759  -3.17959  -1.93622  -1.93234
 Alpha  occ. eigenvalues --   -1.93049  -1.92842  -1.92429  -1.92253  -1.16459
 Alpha  occ. eigenvalues --   -1.15704  -1.11685  -1.11503  -1.11081  -1.10659
 Alpha  occ. eigenvalues --   -1.07637  -1.07052  -1.05201  -1.04787  -1.04304
 Alpha  occ. eigenvalues --   -1.03888  -1.03848  -1.02964  -1.02012  -1.01898
 Alpha  occ. eigenvalues --   -0.92514  -0.92375  -0.89020  -0.88892  -0.88826
 Alpha  occ. eigenvalues --   -0.88338  -0.88232  -0.87755  -0.87741  -0.87346
 Alpha  occ. eigenvalues --   -0.86558  -0.86344  -0.86050  -0.85665  -0.84852
 Alpha  occ. eigenvalues --   -0.84426  -0.83511  -0.83352  -0.82713  -0.82521
 Alpha  occ. eigenvalues --   -0.81882  -0.81224  -0.80878  -0.80808  -0.80369
 Alpha  occ. eigenvalues --   -0.80180  -0.78393  -0.77537  -0.77435  -0.77291
 Alpha  occ. eigenvalues --   -0.76777  -0.76707  -0.76422  -0.76179  -0.75323
 Alpha  occ. eigenvalues --   -0.75237  -0.73117  -0.72815  -0.72061  -0.71779
 Alpha  occ. eigenvalues --   -0.69934  -0.69405  -0.69380  -0.69212  -0.68222
 Alpha  occ. eigenvalues --   -0.68092  -0.67315  -0.67160  -0.65899  -0.65498
 Alpha  occ. eigenvalues --   -0.65335  -0.65171  -0.64897  -0.64840  -0.64631
 Alpha  occ. eigenvalues --   -0.64455  -0.63720  -0.62294  -0.60426  -0.60032
 Alpha  occ. eigenvalues --   -0.59733  -0.59299  -0.59275  -0.58959  -0.58766
 Alpha  occ. eigenvalues --   -0.58180  -0.58140  -0.57798  -0.57550  -0.57349
 Alpha  occ. eigenvalues --   -0.56295  -0.56094  -0.56001  -0.55492  -0.55384
 Alpha  occ. eigenvalues --   -0.55236  -0.55066  -0.54591  -0.54304  -0.54213
 Alpha  occ. eigenvalues --   -0.53667  -0.53440  -0.53217  -0.53062  -0.52957
 Alpha  occ. eigenvalues --   -0.52789  -0.52685  -0.52452  -0.52141  -0.51932
 Alpha  occ. eigenvalues --   -0.51900  -0.51638  -0.51508  -0.51444  -0.51275
 Alpha  occ. eigenvalues --   -0.51090  -0.50778  -0.50700  -0.50555  -0.50048
 Alpha  occ. eigenvalues --   -0.50046  -0.49941  -0.49812  -0.49720  -0.49553
 Alpha  occ. eigenvalues --   -0.49521  -0.49396  -0.49333  -0.49048  -0.48937
 Alpha  occ. eigenvalues --   -0.48693  -0.48420  -0.48379  -0.48301  -0.47953
 Alpha  occ. eigenvalues --   -0.47589  -0.47572  -0.47483  -0.47315  -0.47240
 Alpha  occ. eigenvalues --   -0.47022  -0.46951  -0.46673  -0.46446  -0.46318
 Alpha  occ. eigenvalues --   -0.46146  -0.46113  -0.46084  -0.45911  -0.45693
 Alpha  occ. eigenvalues --   -0.45608  -0.45560  -0.45328  -0.45321  -0.45207
 Alpha  occ. eigenvalues --   -0.45118  -0.44886  -0.44531  -0.44253  -0.44069
 Alpha  occ. eigenvalues --   -0.43957  -0.43860  -0.43699  -0.43640  -0.43399
 Alpha  occ. eigenvalues --   -0.43386  -0.43344  -0.43268  -0.43070  -0.42987
 Alpha  occ. eigenvalues --   -0.42914  -0.42787  -0.42450  -0.42323  -0.42227
 Alpha  occ. eigenvalues --   -0.42215  -0.42087  -0.42004  -0.42000  -0.41737
 Alpha  occ. eigenvalues --   -0.41477  -0.41381  -0.41237  -0.40936  -0.40378
 Alpha  occ. eigenvalues --   -0.40329  -0.39922  -0.39747  -0.39101  -0.39095
 Alpha  occ. eigenvalues --   -0.38948  -0.38341  -0.38124  -0.38079  -0.37853
 Alpha  occ. eigenvalues --   -0.37279  -0.37194  -0.37037  -0.36787  -0.36377
 Alpha  occ. eigenvalues --   -0.36321  -0.36250  -0.34691  -0.34416  -0.34397
 Alpha  occ. eigenvalues --   -0.34097  -0.33410  -0.33159  -0.31631  -0.31374
 Alpha  occ. eigenvalues --   -0.31235  -0.31207  -0.30906  -0.30610  -0.30404
 Alpha  occ. eigenvalues --   -0.30314  -0.30164  -0.29734  -0.24191  -0.24036
 Alpha  occ. eigenvalues --   -0.21594  -0.21397
 Alpha virt. eigenvalues --   -0.09186  -0.08637  -0.02081  -0.01443   0.00091
 Alpha virt. eigenvalues --    0.00544   0.00762   0.01673   0.02005   0.02497
 Alpha virt. eigenvalues --    0.04431   0.05294   0.05487   0.05657   0.05910

 Mulliken charges:
               1
     1  Mg   0.821319
     2  C    0.141388
     3  C   -0.072413
     4  C   -0.088181
     5  C   -0.079403
     6  N   -0.220267
     7  C   -0.143097
     8  C    0.066445
     9  C   -0.054787
    10  C   -0.010663
    11  C    0.063581
    12  C    0.064057
    13  C   -0.078556
    14  H    0.015473
    15  N   -0.372566
    16  C    0.163236
    17  C   -0.137154
    18  C   -0.058518
    19  C    0.190603
    20  C    0.093524
    21  C   -0.010326
    22  O   -0.168248
    23  C    0.051840
    24  N   -0.300565
    25  C   -0.021022
    26  C   -0.011935
    27  C   -0.040252
    28  C    0.044982
    29  C    0.055017
    30  C    0.036440
    31  C   -0.036868
    32  N   -0.352648
    33  C    0.125105
    34  C   -0.196552
    35  C    0.022488
    36  C    0.045492
    37  C    0.117942
    38  C    0.063988
    39  O   -0.137453
    40  C   -0.139029
    41  C    0.228310
    42  O   -0.237518
    43  O   -0.322905
    44  C    0.183481
    45  H   -0.018105
    46  H   -0.048421
    47  H   -0.045707
    48  H    0.002303
    49  H   -0.000432
    50  H    0.003855
    51  H    0.026717
    52  H    0.004875
    53  H    0.013080
    54  H    0.020343
    55  H    0.050695
    56  H    0.037455
    57  H    0.040210
    58  H    0.005514
    59  H    0.031897
    60  H    0.019366
    61  H    0.059875
    62  H    0.032458
    63  H    0.026037
    64  H    0.015643
    65  H    0.028261
    66  H    0.025967
    67  H    0.028341
    68  H    0.025544
    69  H    0.019000
    70  H    0.017217
    71  H    0.020679
    72  H    0.021740
    73  H    0.015696
    74  H    0.029788
    75  H    0.034172
    76  H    0.055804
    77  H    0.031254
    78  H    0.037694
    79  H    0.027402
    80  Mg   0.813010
    81  C   -0.023661
    82  C   -0.077248
    83  C   -0.061994
    84  C   -0.064328
    85  N   -0.302453
    86  C   -0.035111
    87  C    0.006879
    88  C   -0.058613
    89  C    0.050781
    90  C    0.068885
    91  C    0.056700
    92  C   -0.088713
    93  H    0.008358
    94  N   -0.363078
    95  C    0.161211
    96  C   -0.116986
    97  C   -0.041628
    98  C    0.130641
    99  C    0.062504
   100  C   -0.022265
   101  O   -0.176331
   102  C    0.054563
   103  N   -0.263213
   104  C    0.030029
   105  C   -0.035221
   106  C   -0.014437
   107  C    0.032493
   108  C    0.066533
   109  C    0.004395
   110  C   -0.014670
   111  N   -0.320726
   112  C    0.065147
   113  C   -0.162616
   114  C   -0.035092
   115  C    0.140030
   116  C    0.116967
   117  C    0.069098
   118  O   -0.136724
   119  C    0.003843
   120  C    0.181193
   121  O   -0.201518
   122  O   -0.351203
   123  C    0.165229
   124  H   -0.034077
   125  H   -0.000964
   126  H   -0.031192
   127  H    0.018623
   128  H    0.008136
   129  H    0.008561
   130  H    0.022448
   131  H    0.009364
   132  H    0.019169
   133  H    0.009144
   134  H    0.046100
   135  H    0.015639
   136  H    0.027204
   137  H    0.003894
   138  H    0.033298
   139  H    0.021876
   140  H    0.036827
   141  H    0.022634
   142  H    0.016593
   143  H    0.012834
   144  H    0.017358
   145  H    0.035557
   146  H    0.016220
   147  H    0.020209
   148  H    0.002067
   149  H    0.023685
   150  H    0.021700
   151  H    0.021069
   152  H    0.029127
   153  H    0.019748
   154  H    0.036332
   155  H    0.033822
   156  H    0.035896
   157  H    0.044020
   158  H    0.056421
 Sum of Mulliken charges =  -0.00000

 Dipole moment (field-independent basis, Debye):
    X=             -2.6050    Y=              0.8030    Z=              1.5068  Tot=              3.1147
 Quadrupole moment (field-independent basis, Debye-Ang):
   XX=           -413.4320   YY=           -562.9225   ZZ=           -497.1396
   XY=           -146.6051   XZ=            -50.5237   YZ=            -39.4031

 Normal termination of Gaussian 16 at Thu Sep  2 01:52:40 2021.
