 Gaussian 16, Revision A.03,
 Gaussian 16:  ES64L-G16RevA.03 25-Dec-2016

 ----------------------------------------------------------
 #p cam-b3lyp/Def2SVP td=(nstates=5) density=(transition=1)
 ----------------------------------------------------------

 --------------------------------
 TDDFT excited states in gaussian
 --------------------------------
 Symbolic Z-matrix:
 Charge =  0 Multiplicity = 1

                         Standard orientation:
 ---------------------------------------------------------------------
 Center     Atomic      Atomic             Coordinates (Angstroms)
 Number     Number       Type             X           Y           Z
 ---------------------------------------------------------------------
      1         12           0       -8.944619   -0.330808   -0.221865
      2          6           0       -7.173679    2.455910    0.876853
      3          6           0      -11.147200    1.670699   -1.801114
      4          6           0      -10.832803   -3.062915   -0.851019
      5          6           0       -6.944044   -2.267028    1.812477
      6          7           0       -9.119730    1.870809   -0.405096
      7          6           0       -8.163367    2.787000   -0.047998
      8          6           0       -8.535654    4.136805   -0.531876
      9          6           0       -9.823525    3.967430   -1.346165
     10          6           0      -10.092116    2.405383   -1.228650
     11          6           0      -11.027506    4.833255   -1.008987
     12          6           0       -7.311650    4.833220   -1.358267
     13          6           0       -6.718568    6.145487   -0.793936
     14          1           0       -6.323313    7.274548   -1.713661
     15          7           0      -10.668634   -0.671684   -1.288547
     16          6           0      -11.467677    0.300689   -1.871010
     17          6           0      -12.607983   -0.307560   -2.453740
     18          6           0      -12.547689   -1.702362   -2.187482
     19          6           0      -11.303031   -1.866946   -1.429613
     20          6           0      -13.573550    0.589823   -3.322548
     21          6           0      -13.622905   -2.719686   -2.565416
     22          8           0      -13.609507   -3.923285   -2.266110
     23          6           0      -14.742508   -2.307595   -3.416412
     24          7           0       -9.086072   -2.361756    0.562353
     25          6           0       -9.853249   -3.314872    0.075059
     26          6           0       -9.639692   -4.641864    0.837694
     27          6           0       -8.132494   -4.405753    1.246881
     28          6           0       -8.014662   -2.886150    1.185449
     29          6           0      -10.508297   -4.990977    2.102571
     30          6           0       -7.013800   -5.124955    0.350946
     31          6           0       -6.959696   -4.801962   -1.086002
     32          7           0       -7.342322   -0.049739    1.181402
     33          6           0       -6.594993   -0.966264    1.946828
     34          6           0       -5.608548   -0.259654    2.700089
     35          6           0       -5.819001    1.068068    2.385296
     36          6           0       -6.825025    1.132046    1.366263
     37          6           0       -4.794406   -0.797944    3.772519
     38          6           0       -5.269681    2.335761    2.506217
     39          8           0       -4.324817    2.761637    3.178453
     40          6           0       -6.153118    3.336017    1.629867
     41          6           0       -6.879581    4.190154    2.615645
     42          8           0       -7.655422    3.915116    3.506804
     43          8           0       -6.475456    5.434892    2.356076
     44          6           0       -7.087408    6.514076    3.198555
     45          1           0      -11.649500    2.392463   -2.448536
     46          1           0      -11.385059   -3.933598   -1.208753
     47          1           0       -6.277282   -2.901128    2.400166
     48          1           0       -8.726264    4.712093    0.373260
     49          1           0       -9.600260    4.141699   -2.398493
     50          1           0      -11.509301    4.112156   -0.349743
     51          1           0      -11.614960    5.179835   -1.859396
     52          1           0      -10.890706    5.750917   -0.437547
     53          1           0       -7.633483    4.994379   -2.386701
     54          1           0       -6.404687    4.228859   -1.388265
     55          1           0       -5.769876    5.869615   -0.332615
     56          1           0       -7.309869    6.540260    0.031201
     57          1           0      -14.591699    0.449803   -2.959906
     58          1           0      -13.449480    0.042523   -4.257063
     59          1           0      -13.440895    1.671430   -3.295547
     60          1           0      -15.291721   -1.480962   -2.967832
     61          1           0      -15.486736   -3.097731   -3.319722
     62          1           0      -14.497155   -2.154752   -4.467698
     63          1           0       -9.565447   -5.445851    0.105306
     64          1           0       -8.072636   -4.830815    2.248516
     65          1           0      -10.718270   -4.161180    2.776370
     66          1           0       -9.916764   -5.773674    2.578880
     67          1           0      -11.477490   -5.392670    1.805740
     68          1           0       -7.090722   -6.212501    0.356328
     69          1           0       -6.016791   -4.761608    0.599882
     70          1           0       -6.410031   -3.861944   -1.105317
     71          1           0       -7.889028   -4.629723   -1.629788
     72          1           0       -6.409574   -5.469484   -1.748423
     73          1           0       -5.458547   -0.765156    4.637022
     74          1           0       -3.887784   -0.237957    3.999941
     75          1           0       -4.389451   -1.786950    3.555314
     76          1           0       -5.575174    3.888268    0.888776
     77          1           0       -7.793014    7.008060    2.530196
     78          1           0       -6.306002    7.175212    3.572577
     79          1           0       -7.679290    6.203197    4.059904
     80         12           0        8.558875   -1.008090   -0.440137
     81          6           0       10.792799    1.677841   -0.616234
     82          6           0        6.019423    1.069913   -0.493388
     83          6           0        6.484990   -3.584901    0.488761
     84          6           0       11.279749   -3.184433    0.130732
     85          7           0        8.474503    1.087821   -0.643531
     86          6           0        9.469196    2.032670   -0.768296
     87          6           0        8.904858    3.406580   -1.106090
     88          6           0        7.381850    3.195341   -0.828679
     89          6           0        7.262688    1.712889   -0.754439
     90          6           0        6.713949    3.951282    0.299585
     91          6           0        9.274964    3.937716   -2.527765
     92          6           0        8.733799    5.331342   -2.864984
     93          1           0        9.754425    6.338638   -3.374075
     94          7           0        6.434617   -1.216491    0.024100
     95          6           0        5.542314   -0.232074   -0.211351
     96          6           0        4.213073   -0.745076   -0.027207
     97          6           0        4.341627   -2.087228    0.369813
     98          6           0        5.807356   -2.339746    0.317556
     99          6           0        2.958191    0.088174   -0.180619
    100          6           0        3.286593   -3.101731    0.667551
    101          8           0        3.472439   -4.248172    1.156418
    102          6           0        1.828375   -2.808214    0.336758
    103          7           0        8.847567   -3.038284    0.230328
    104          6           0        7.836984   -3.854144    0.610775
    105          6           0        8.405843   -5.358240    0.828532
    106          6           0        9.856232   -5.244624    0.240783
    107          6           0       10.022526   -3.764140    0.115545
    108          6           0        8.327461   -5.721024    2.362995
    109          6           0        9.916783   -5.833447   -1.215972
    110          6           0        8.911827   -5.358470   -2.253864
    111          7           0       10.692928   -0.845013   -0.322800
    112          6           0       11.612266   -1.831063   -0.091283
    113          6           0       12.865534   -1.232845   -0.118331
    114          6           0       12.676776    0.167820   -0.297276
    115          6           0       11.325039    0.356997   -0.416569
    116          6           0       14.200969   -1.845461    0.117562
    117          6           0       13.298938    1.507403   -0.399334
    118          8           0       14.451852    1.912366   -0.303716
    119          6           0       12.077947    2.533916   -0.715522
    120          6           0       12.182542    3.747862    0.137224
    121          8           0       12.595992    3.757520    1.334681
    122          8           0       11.932679    4.790393   -0.643475
    123          6           0       12.430191    6.050263   -0.124935
    124          1           0        5.136627    1.700117   -0.620709
    125          1           0        5.836356   -4.424246    0.750603
    126          1           0       12.098486   -3.903957    0.180533
    127          1           0        9.429778    4.080025   -0.428304
    128          1           0        6.754461    3.455342   -1.681946
    129          1           0        7.223374    4.843463    0.663672
    130          1           0        6.530368    3.265773    1.127351
    131          1           0        5.676097    4.107018    0.004453
    132          1           0        8.953392    3.219076   -3.282025
    133          1           0       10.359899    3.965887   -2.623454
    134          1           0        8.531204    5.907139   -1.962101
    135          1           0        7.856969    5.270762   -3.510328
    136          1           0        3.130966    1.154942   -0.322448
    137          1           0        2.326903    0.162647    0.704499
    138          1           0        2.316863   -0.239525   -0.999375
    139          1           0        1.482986   -2.029615    1.016331
    140          1           0        1.167273   -3.612919    0.657664
    141          1           0        1.656807   -2.618687   -0.723456
    142          1           0        7.767303   -6.069189    0.304180
    143          1           0       10.503485   -5.661371    1.012434
    144          1           0        7.706687   -5.036168    2.940941
    145          1           0        9.290886   -5.713487    2.873014
    146          1           0        7.861348   -6.685491    2.559418
    147          1           0        9.775220   -6.887360   -0.976320
    148          1           0       10.886023   -5.740192   -1.704915
    149          1           0        8.116159   -4.789444   -1.772531
    150          1           0        8.516080   -6.116667   -2.928730
    151          1           0        9.532061   -4.754496   -2.916199
    152          1           0       14.420016   -2.703986   -0.517800
    153          1           0       14.164584   -2.209757    1.143831
    154          1           0       15.012276   -1.121806    0.045783
    155          1           0       12.256499    2.832091   -1.748307
    156          1           0       12.899438    6.623960   -0.925152
    157          1           0       13.192555    5.986134    0.651092
    158          1           0       11.553988    6.590215    0.235461
 ---------------------------------------------------------------------

 SCF Done:  E(RCAM-B3LYP) =  -4069.79717472     A.U. after   19 cycles

 Excitation energies and oscillator strengths:

 Excited State   1:      Singlet-A      1.6962 eV  730.95 nm  f=0.6851  <S**2>=0.000
     309 -> 315        0.14654
     311 -> 313       -0.36840
     312 -> 314        0.58045
 This state for optimization and/or second-order correction.
 Total Energy, E(TD-HF/TD-DFT) =  -4069.73484021
 Copying the excited state density for this state as the 1-particle RhoCI density.

 Excited State   2:      Singlet-A      1.7221 eV  719.96 nm  f=0.1158  <S**2>=0.000
     310 -> 316        0.14143
     311 -> 313        0.58231
     312 -> 314        0.36579

 Excited State   3:      Singlet-A      2.1456 eV  577.84 nm  f=0.1458  <S**2>=0.000
     310 -> 313        0.66220
     311 -> 316       -0.22602

 Excited State   4:      Singlet-A      2.1771 eV  569.50 nm  f=0.1519  <S**2>=0.000
     309 -> 314        0.65034
     312 -> 315       -0.26256

 Excited State   5:      Singlet-A      2.7964 eV  443.38 nm  f=0.0000  <S**2>=0.000
     312 -> 313        0.70674

 The electronic state is 1-A.
 Alpha  occ. eigenvalues --  -46.89563 -46.89312 -19.26597 -19.25282 -19.19305
 Alpha  occ. eigenvalues --  -19.19057 -19.18984 -19.18858 -19.18469 -19.18389
 Alpha  occ. eigenvalues --  -14.42833 -14.42225 -14.42039 -14.41755 -14.39919
 Alpha  occ. eigenvalues --  -14.39692 -14.39217 -14.37957 -10.39173 -10.38849
 Alpha  occ. eigenvalues --  -10.35705 -10.35263 -10.34762 -10.34415 -10.32046
 Alpha  occ. eigenvalues --  -10.31958 -10.31925 -10.31655 -10.31432 -10.31031
 Alpha  occ. eigenvalues --  -10.30941 -10.30826 -10.30719 -10.30554 -10.30504
 Alpha  occ. eigenvalues --  -10.30318 -10.30030 -10.30019 -10.29688 -10.29321
 Alpha  occ. eigenvalues --  -10.29214 -10.29190 -10.28888 -10.28789 -10.28768
 Alpha  occ. eigenvalues --  -10.28556 -10.28447 -10.28381 -10.28264 -10.28215
 Alpha  occ. eigenvalues --  -10.28182 -10.28146 -10.28140 -10.28098 -10.28097
 Alpha  occ. eigenvalues --  -10.27977 -10.27810 -10.27800 -10.27745 -10.27721
 Alpha  occ. eigenvalues --  -10.27718 -10.27716 -10.27652 -10.27645 -10.27626
 Alpha  occ. eigenvalues --  -10.27378 -10.27005 -10.26710 -10.26621 -10.26555
 Alpha  occ. eigenvalues --  -10.26473 -10.26449 -10.26407 -10.26403 -10.26379
 Alpha  occ. eigenvalues --  -10.26273 -10.26082 -10.26078 -10.26017 -10.25754
 Alpha  occ. eigenvalues --  -10.25621 -10.25387 -10.24927 -10.24890 -10.24829
 Alpha  occ. eigenvalues --  -10.24205  -3.17972  -3.17700  -1.92875  -1.92609
 Alpha  occ. eigenvalues --   -1.92406  -1.92289  -1.92125  -1.92015  -1.18033
 Alpha  occ. eigenvalues --   -1.17243  -1.09313  -1.08825  -1.08733  -1.08320
 Alpha  occ. eigenvalues --   -1.07593  -1.05855  -1.05632  -1.05342  -1.04485
 Alpha  occ. eigenvalues --   -1.04290  -1.03608  -1.03271  -1.02853  -1.02393
 Alpha  occ. eigenvalues --   -0.92450  -0.91787  -0.89518  -0.89425  -0.89222
 Alpha  occ. eigenvalues --   -0.88982  -0.88595  -0.88334  -0.88175  -0.87910
 Alpha  occ. eigenvalues --   -0.87815  -0.87075  -0.87073  -0.85615  -0.84867
 Alpha  occ. eigenvalues --   -0.84731  -0.84479  -0.83701  -0.83298  -0.82859
 Alpha  occ. eigenvalues --   -0.82218  -0.81790  -0.81783  -0.81270  -0.80961
 Alpha  occ. eigenvalues --   -0.80611  -0.78973  -0.78784  -0.77886  -0.77587
 Alpha  occ. eigenvalues --   -0.77530  -0.77277  -0.76175  -0.76055  -0.75565
 Alpha  occ. eigenvalues --   -0.75168  -0.73705  -0.72680  -0.71895  -0.71675
 Alpha  occ. eigenvalues --   -0.69845  -0.69593  -0.69301  -0.69134  -0.68284
 Alpha  occ. eigenvalues --   -0.68017  -0.67619  -0.67440  -0.65979  -0.65620
 Alpha  occ. eigenvalues --   -0.65457  -0.65136  -0.65024  -0.64612  -0.64506
 Alpha  occ. eigenvalues --   -0.64183  -0.62678  -0.62287  -0.60939  -0.60641
 Alpha  occ. eigenvalues --   -0.60151  -0.59702  -0.59541  -0.59186  -0.58837
 Alpha  occ. eigenvalues --   -0.58491  -0.58465  -0.58153  -0.57547  -0.57162
 Alpha  occ. eigenvalues --   -0.56657  -0.56136  -0.56010  -0.55970  -0.55736
 Alpha  occ. eigenvalues --   -0.55689  -0.55416  -0.55279  -0.55251  -0.55039
 Alpha  occ. eigenvalues --   -0.54918  -0.54320  -0.53582  -0.53449  -0.53205
 Alpha  occ. eigenvalues --   -0.53199  -0.53076  -0.52911  -0.52852  -0.52477
 Alpha  occ. eigenvalues --   -0.52411  -0.52139  -0.51656  -0.51507  -0.51396
 Alpha  occ. eigenvalues --   -0.51335  -0.50906  -0.50563  -0.50498  -0.50379
 Alpha  occ. eigenvalues --   -0.50034  -0.50033  -0.49950  -0.49662  -0.49460
 Alpha  occ. eigenvalues --   -0.49399  -0.49232  -0.49025  -0.48783  -0.48717
 Alpha  occ. eigenvalues --   -0.48552  -0.48528  -0.48407  -0.48296  -0.48279
 Alpha  occ. eigenvalues --   -0.48049  -0.47575  -0.47334  -0.47164  -0.47121
 Alpha  occ. eigenvalues --   -0.47047  -0.46900  -0.46687  -0.46437  -0.46427
 Alpha  occ. eigenvalues --   -0.46317  -0.46206  -0.46051  -0.45892  -0.45792
 Alpha  occ. eigenvalues --   -0.45462  -0.45375  -0.45121  -0.44871  -0.44708
 Alpha  occ. eigenvalues --   -0.44672  -0.44400  -0.44321  -0.44278  -0.44217
 Alpha  occ. eigenvalues --   -0.43924  -0.43787  -0.43668  -0.43588  -0.43413
 Alpha  occ. eigenvalues --   -0.43359  -0.43177  -0.43138  -0.42804  -0.42743
 Alpha  occ. eigenvalues --   -0.42522  -0.42422  -0.42302  -0.42302  -0.42050
 Alpha  occ. eigenvalues --   -0.42005  -0.41809  -0.41710  -0.41379  -0.41306
 Alpha  occ. eigenvalues --   -0.41184  -0.41172  -0.40917  -0.40801  -0.40430
 Alpha  occ. eigenvalues --   -0.40392  -0.39734  -0.39523  -0.39202  -0.39163
 Alpha  occ. eigenvalues --   -0.38621  -0.38276  -0.38251  -0.37915  -0.37831
 Alpha  occ. eigenvalues --   -0.37246  -0.37242  -0.36856  -0.36604  -0.36513
 Alpha  occ. eigenvalues --   -0.36340  -0.36234  -0.34697  -0.34537  -0.34014
 Alpha  occ. eigenvalues --   -0.33885  -0.33701  -0.32838  -0.31876  -0.31701
 Alpha  occ. eigenvalues --   -0.31229  -0.31102  -0.30753  -0.30725  -0.30714
 Alpha  occ. eigenvalues --   -0.30217  -0.30041  -0.28443  -0.24240  -0.24001
 Alpha  occ. eigenvalues --   -0.21704  -0.21661
 Alpha virt. eigenvalues --   -0.09301  -0.09203  -0.01834  -0.01223   0.00038
 Alpha virt. eigenvalues --    0.00052   0.01775   0.01849   0.02239   0.02564
 Alpha virt. eigenvalues --    0.04508   0.04720   0.05119   0.05750   0.05852

 Mulliken charges:
               1
     1  Mg  12.003046
     2  C    6.028822
     3  C    5.993365
     4  C    5.971028
     5  C    5.992088
     6  N    7.016422
     7  C    5.967879
     8  C    6.010351
     9  C    5.994944
    10  C    6.022165
    11  C    5.997912
    12  C    6.002100
    13  C    6.000004
    14  H    0.997325
    15  N    6.991739
    16  C    6.035522
    17  C    6.015564
    18  C    6.013045
    19  C    6.034452
    20  C    5.999326
    21  C    6.010522
    22  O    8.025115
    23  C    5.992438
    24  N    6.980737
    25  C    6.035956
    26  C    5.991148
    27  C    6.008139
    28  C    5.981657
    29  C    6.000888
    30  C    6.009020
    31  C    5.999310
    32  N    7.005680
    33  C    5.970978
    34  C    5.973585
    35  C    5.993704
    36  C    5.971850
    37  C    6.004616
    38  C    5.991053
    39  O    7.969327
    40  C    5.998414
    41  C    5.996367
    42  O    7.998532
    43  O    7.998813
    44  C    6.001806
    45  H    1.012884
    46  H    1.000665
    47  H    0.986111
    48  H    1.000769
    49  H    1.003079
    50  H    0.999220
    51  H    1.001809
    52  H    1.012339
    53  H    0.993689
    54  H    1.003668
    55  H    1.004529
    56  H    1.000086
    57  H    1.016112
    58  H    1.013796
    59  H    1.014024
    60  H    1.004507
    61  H    1.012623
    62  H    1.007814
    63  H    0.998762
    64  H    0.995373
    65  H    1.003817
    66  H    1.006426
    67  H    0.994940
    68  H    0.990758
    69  H    1.001903
    70  H    1.005543
    71  H    0.985674
    72  H    0.995755
    73  H    0.982788
    74  H    0.984204
    75  H    0.984354
    76  H    0.993519
    77  H    0.994441
    78  H    0.998714
    79  H    0.998555
    80  Mg  11.996382
    81  C    6.014046
    82  C    5.994139
    83  C    5.984926
    84  C    6.002740
    85  N    7.009075
    86  C    5.979478
    87  C    6.005126
    88  C    5.994966
    89  C    6.019785
    90  C    5.998807
    91  C    6.001666
    92  C    5.998827
    93  H    1.000705
    94  N    6.994374
    95  C    6.022946
    96  C    6.009387
    97  C    6.011389
    98  C    6.019106
    99  C    5.995915
   100  C    6.005155
   101  O    8.018096
   102  C    5.995875
   103  N    6.995766
   104  C    6.017090
   105  C    5.997495
   106  C    6.006872
   107  C    5.983853
   108  C    5.998958
   109  C    6.005822
   110  C    6.001516
   111  N    7.002645
   112  C    5.980980
   113  C    5.982962
   114  C    5.999866
   115  C    5.979307
   116  C    6.001468
   117  C    5.992582
   118  O    7.985108
   119  C    5.996936
   120  C    5.996851
   121  O    7.999140
   122  O    7.998853
   123  C    6.001322
   124  H    1.005949
   125  H    1.001190
   126  H    0.991489
   127  H    1.001015
   128  H    1.001382
   129  H    1.007906
   130  H    1.000393
   131  H    1.000154
   132  H    0.996492
   133  H    1.003671
   134  H    0.998524
   135  H    0.996858
   136  H    1.009643
   137  H    1.013241
   138  H    1.010890
   139  H    1.006945
   140  H    1.009760
   141  H    1.004001
   142  H    0.998827
   143  H    0.998052
   144  H    0.996970
   145  H    1.005516
   146  H    0.999912
   147  H    0.993265
   148  H    1.000842
   149  H    0.991655
   150  H    0.996500
   151  H    1.002550
   152  H    0.988083
   153  H    0.988259
   154  H    0.990914
   155  H    0.997036
   156  H    0.997853
   157  H    0.999453
   158  H    0.996505
 Sum of Mulliken charges = 624.00000

 Dipole moment (field-independent basis, Debye):
    X=            -13.7321    Y=             -0.0975    Z=             -4.9437  Tot=             14.5953
 Quadrupole moment (field-independent basis, Debye-Ang):
   XX=             35.9294   YY=             -2.8072   ZZ=             -1.5789
   XY=              8.2083   XZ=             50.5541   YZ=             -0.6629

 Normal termination of Gaussian 16 at Tue Sep 21 23:05:34 2021.
