 Gaussian 16, Revision A.03,
 Gaussian 16:  ES64L-G16RevA.03 25-Dec-2016

 -----------------------------------
 #p cam-b3lyp/Def2SVP td=(nstates=5)
 -----------------------------------

 --------------------------------
 TDDFT excited states in gaussian
 --------------------------------
 Symbolic Z-matrix:
 Charge =  0 Multiplicity = 1

                         Standard orientation:
 ---------------------------------------------------------------------
 Center     Atomic      Atomic             Coordinates (Angstroms)
 Number     Number       Type             X           Y           Z
 ---------------------------------------------------------------------
      1         12           0      -26.733741   -0.505099   -0.062936
      2          6           0      -25.030254    2.390923   -0.932169
      3          6           0      -28.104859    1.076276    2.581570
      4          6           0      -28.181704   -3.404601    0.774423
      5          6           0      -25.135579   -2.102531   -2.738018
      6          7           0      -26.556526    1.550337    0.664567
      7          6           0      -25.913501    2.565242    0.138511
      8          6           0      -26.223109    3.849350    1.037777
      9          6           0      -26.469602    3.135790    2.350229
     10          6           0      -27.140817    1.815063    1.855784
     11          6           0      -25.146857    2.978259    3.130766
     12          6           0      -27.340100    4.753153    0.359006
     13          6           0      -27.377493    6.201554    0.856103
     14          1           0      -26.551722    6.579131    2.073774
     15          7           0      -28.092590   -1.033614    1.339830
     16          6           0      -28.603116   -0.184880    2.319191
     17          6           0      -29.726245   -0.901887    2.994202
     18          6           0      -29.722375   -2.278300    2.508410
     19          6           0      -28.575197   -2.259906    1.562327
     20          6           0      -30.605440   -0.249676    4.034810
     21          6           0      -30.690332   -3.511197    2.820332
     22          8           0      -30.601202   -4.610908    2.263936
     23          6           0      -31.776858   -3.272425    3.847978
     24          7           0      -26.588226   -2.443561   -0.772191
     25          6           0      -27.261894   -3.472534   -0.265113
     26          6           0      -26.887530   -4.830105   -0.936055
     27          6           0      -26.129202   -4.319104   -2.169486
     28          6           0      -25.971961   -2.849121   -1.937728
     29          6           0      -26.071979   -5.797464   -0.033401
     30          6           0      -26.647170   -4.753722   -3.612277
     31          6           0      -27.401249   -3.739156   -4.407424
     32          7           0      -25.210042   -0.071862   -1.426663
     33          6           0      -24.716488   -0.771386   -2.475941
     34          6           0      -23.735384   -0.057137   -3.212297
     35          6           0      -23.818536    1.247935   -2.632665
     36          6           0      -24.717770    1.131523   -1.597413
     37          6           0      -22.791970   -0.420294   -4.329572
     38          6           0      -23.360733    2.605108   -2.662734
     39          8           0      -22.558725    3.175096   -3.370676
     40          6           0      -24.220922    3.460556   -1.678788
     41          6           0      -23.338653    4.252727   -0.816704
     42          8           0      -22.534221    3.739110   -0.054166
     43          8           0      -23.377121    5.645622   -1.081551
     44          6           0      -22.424124    6.473116   -0.325334
     45          1           0      -28.474667    1.603342    3.462291
     46          1           0      -28.635637   -4.342237    1.099554
     47          1           0      -24.619679   -2.646801   -3.531354
     48          1           0      -25.349565    4.499360    1.064116
     49          1           0      -27.219765    3.607425    2.984493
     50          1           0      -25.311537    3.627659    3.991229
     51          1           0      -24.275527    3.308491    2.563697
     52          1           0      -25.134323    1.949653    3.490521
     53          1           0      -28.327433    4.327653    0.540725
     54          1           0      -27.060298    4.798077   -0.693771
     55          1           0      -28.424006    6.435781    1.048726
     56          1           0      -27.073442    6.828241    0.018059
     57          1           0      -30.749675    0.811084    3.826508
     58          1           0      -30.294567   -0.339581    5.075158
     59          1           0      -31.602992   -0.682268    3.959752
     60          1           0      -31.232232   -2.871184    4.702337
     61          1           0      -32.278157   -4.174663    4.197160
     62          1           0      -32.538161   -2.611280    3.433637
     63          1           0      -27.777277   -5.385150   -1.232936
     64          1           0      -25.099603   -4.646109   -2.028913
     65          1           0      -25.296692   -6.203146   -0.683821
     66          1           0      -26.621654   -6.603190    0.450711
     67          1           0      -25.673497   -5.217204    0.798875
     68          1           0      -27.193342   -5.691759   -3.512193
     69          1           0      -25.785950   -4.941159   -4.253174
     70          1           0      -26.777708   -3.465365   -5.258833
     71          1           0      -27.516759   -2.756488   -3.948464
     72          1           0      -28.345255   -4.096431   -4.819040
     73          1           0      -22.826080   -1.482577   -4.573985
     74          1           0      -21.797399   -0.043824   -4.088648
     75          1           0      -23.027914   -0.018726   -5.315288
     76          1           0      -24.885643    4.141687   -2.209454
     77          1           0      -22.580943    7.548376   -0.407298
     78          1           0      -21.461976    6.192423   -0.754662
     79          1           0      -22.463963    6.096079    0.695926
     80         12           0       26.043697   -0.830353    0.294436
     81          6           0       27.215155    2.512218   -0.456085
     82          6           0       25.609698    0.228146    3.315795
     83          6           0       25.277511   -3.990093    0.834383
     84          6           0       27.355950   -1.998029   -2.887414
     85          7           0       26.277417    1.235635    1.271604
     86          6           0       26.762488    2.449629    0.831408
     87          6           0       26.762141    3.438957    1.940508
     88          6           0       26.712405    2.555928    3.213854
     89          6           0       26.209649    1.235095    2.584862
     90          6           0       28.079869    2.351694    3.902059
     91          6           0       25.469526    4.307851    1.869098
     92          6           0       25.652259    5.858861    2.094009
     93          1           0       24.542964    6.866702    1.592266
     94          7           0       25.443038   -1.754316    1.954405
     95          6           0       25.206326   -1.155640    3.091174
     96          6           0       24.632941   -2.127160    4.003347
     97          6           0       24.442209   -3.282582    3.209428
     98          6           0       25.091327   -3.035526    1.950515
     99          6           0       24.209157   -1.722401    5.426928
    100          6           0       23.754153   -4.550726    3.631796
    101          8           0       23.682186   -5.475096    2.878320
    102          6           0       23.075229   -4.603802    4.961505
    103          7           0       26.574168   -2.802601   -0.829645
    104          6           0       25.949055   -3.886667   -0.375038
    105          6           0       25.947067   -4.987324   -1.368340
    106          6           0       26.817224   -4.356199   -2.500997
    107          6           0       26.962684   -2.917926   -2.079174
    108          6           0       26.382374   -6.416930   -0.883588
    109          6           0       26.143751   -4.555668   -3.914696
    110          6           0       26.730728   -5.597355   -4.907562
    111          7           0       27.032210   -0.041922   -1.301939
    112          6           0       27.441511   -0.562348   -2.550009
    113          6           0       28.014489    0.524392   -3.370830
    114          6           0       27.914666    1.675721   -2.601213
    115          6           0       27.379267    1.323337   -1.373910
    116          6           0       28.720341    0.334723   -4.735339
    117          6           0       28.216732    3.142703   -2.642324
    118          8           0       28.658793    3.883652   -3.488338
    119          6           0       27.929148    3.722611   -1.167962
    120          6           0       27.233702    4.956161   -1.213989
    121          8           0       25.997104    5.016148   -1.166340
    122          8           0       28.004325    6.105519   -1.359303
    123          6           0       27.347426    7.440732   -1.213859
    124          1           0       25.375111    0.465210    4.355016
    125          1           0       24.964640   -5.024670    0.989382
    126          1           0       27.746298   -2.330835   -3.850391
    127          1           0       27.714490    3.969253    1.965071
    128          1           0       26.055940    2.894488    4.015199
    129          1           0       28.055285    2.736413    4.922045
    130          1           0       28.814910    2.899556    3.313162
    131          1           0       28.427386    1.318474    3.926125
    132          1           0       24.832140    3.918783    2.663329
    133          1           0       25.009625    4.075370    0.908820
    134          1           0       26.616873    6.140025    1.672307
    135          1           0       25.714471    5.924898    3.180880
    136          1           0       23.124203   -1.808255    5.499652
    137          1           0       24.542855   -0.741557    5.763848
    138          1           0       24.537174   -2.474879    6.143492
    139          1           0       22.259219   -3.886117    5.041945
    140          1           0       23.668900   -4.313686    5.828318
    141          1           0       22.611602   -5.583736    5.077715
    142          1           0       24.928669   -5.088039   -1.743626
    143          1           0       27.827858   -4.761301   -2.445484
    144          1           0       26.509650   -6.345595    0.196103
    145          1           0       27.231217   -6.880115   -1.387841
    146          1           0       25.576183   -7.114822   -1.110279
    147          1           0       26.181771   -3.611681   -4.459018
    148          1           0       25.075598   -4.605804   -3.703459
    149          1           0       25.925729   -6.193830   -5.336547
    150          1           0       27.452231   -6.227851   -4.387658
    151          1           0       27.229870   -5.097491   -5.738545
    152          1           0       28.237471   -0.499217   -5.243959
    153          1           0       29.746579    0.009455   -4.563069
    154          1           0       28.678715    1.235778   -5.347715
    155          1           0       28.889736    3.871913   -0.675807
    156          1           0       26.948404    7.574174   -0.207343
    157          1           0       26.700206    7.662724   -2.061495
    158          1           0       28.151402    8.175364   -1.170537
 ---------------------------------------------------------------------

 SCF Done:  E(RCAM-B3LYP) =  -4069.79112070     A.U. after   18 cycles

 Excitation energies and oscillator strengths:

 Excited State   1:      Singlet-A      1.7355 eV  714.38 nm  f=0.3794  <S**2>=0.000
     309 -> 315        0.17780
     312 -> 314        0.68636
     309 <- 315        0.10691
 This state for optimization and/or second-order correction.
 Total Energy, E(TD-HF/TD-DFT) =  -4069.72734081
 Copying the excited state density for this state as the 1-particle RhoCI density.

 Excited State   2:      Singlet-A      1.7382 eV  713.31 nm  f=0.3932  <S**2>=0.000
     310 -> 316        0.16384
     311 -> 313        0.68882
     310 <- 316        0.10276

 Excited State   3:      Singlet-A      2.1720 eV  570.83 nm  f=0.2253  <S**2>=0.000
     310 -> 313        0.67444
     311 -> 316       -0.20201

 Excited State   4:      Singlet-A      2.2152 eV  559.70 nm  f=0.1510  <S**2>=0.000
     309 -> 314        0.65494
     312 -> 315       -0.25752

 Excited State   5:      Singlet-A      3.1790 eV  390.01 nm  f=0.0000  <S**2>=0.000
     312 -> 313        0.70711

 The electronic state is 1-A.
 Alpha  occ. eigenvalues --  -46.89432 -46.87770 -19.23962 -19.23919 -19.20485
 Alpha  occ. eigenvalues --  -19.19632 -19.19494 -19.19249 -19.18520 -19.17908
 Alpha  occ. eigenvalues --  -14.42019 -14.41752 -14.41466 -14.40163 -14.40117
 Alpha  occ. eigenvalues --  -14.39814 -14.39764 -14.38639 -10.38880 -10.38508
 Alpha  occ. eigenvalues --  -10.37242 -10.35947 -10.35122 -10.34112 -10.31610
 Alpha  occ. eigenvalues --  -10.31336 -10.31144 -10.31130 -10.31071 -10.31014
 Alpha  occ. eigenvalues --  -10.31004 -10.30598 -10.30588 -10.30462 -10.30314
 Alpha  occ. eigenvalues --  -10.30030 -10.30015 -10.29857 -10.29829 -10.29363
 Alpha  occ. eigenvalues --  -10.29307 -10.29021 -10.28935 -10.28827 -10.28702
 Alpha  occ. eigenvalues --  -10.28677 -10.28237 -10.28178 -10.28126 -10.28102
 Alpha  occ. eigenvalues --  -10.28098 -10.27994 -10.27964 -10.27956 -10.27898
 Alpha  occ. eigenvalues --  -10.27634 -10.27598 -10.27556 -10.27299 -10.27255
 Alpha  occ. eigenvalues --  -10.27248 -10.27169 -10.27153 -10.27131 -10.27069
 Alpha  occ. eigenvalues --  -10.26795 -10.26769 -10.26515 -10.26346 -10.26337
 Alpha  occ. eigenvalues --  -10.26284 -10.26273 -10.26039 -10.25911 -10.25900
 Alpha  occ. eigenvalues --  -10.25769 -10.25749 -10.25719 -10.25700 -10.25677
 Alpha  occ. eigenvalues --  -10.25586 -10.25523 -10.25433 -10.25093 -10.24527
 Alpha  occ. eigenvalues --  -10.24189  -3.17955  -3.16536  -1.92842  -1.92418
 Alpha  occ. eigenvalues --   -1.92254  -1.91447  -1.90955  -1.90883  -1.14504
 Alpha  occ. eigenvalues --   -1.14175  -1.12159  -1.10840  -1.10491  -1.09581
 Alpha  occ. eigenvalues --   -1.06750  -1.06400  -1.05646  -1.05591  -1.04947
 Alpha  occ. eigenvalues --   -1.04874  -1.04734  -1.04154  -1.03168  -1.00976
 Alpha  occ. eigenvalues --   -0.92137  -0.91248  -0.89249  -0.89215  -0.88860
 Alpha  occ. eigenvalues --   -0.88587  -0.88292  -0.87982  -0.87788  -0.87628
 Alpha  occ. eigenvalues --   -0.87302  -0.87126  -0.86268  -0.85185  -0.84340
 Alpha  occ. eigenvalues --   -0.84334  -0.83671  -0.83047  -0.82768  -0.82573
 Alpha  occ. eigenvalues --   -0.82131  -0.82006  -0.80960  -0.80946  -0.80394
 Alpha  occ. eigenvalues --   -0.80076  -0.78760  -0.78594  -0.77249  -0.77115
 Alpha  occ. eigenvalues --   -0.76690  -0.76670  -0.76212  -0.75866  -0.75396
 Alpha  occ. eigenvalues --   -0.75077  -0.72824  -0.72765  -0.71184  -0.71092
 Alpha  occ. eigenvalues --   -0.69258  -0.69206  -0.68773  -0.68759  -0.67938
 Alpha  occ. eigenvalues --   -0.67926  -0.67329  -0.66623  -0.66101  -0.65613
 Alpha  occ. eigenvalues --   -0.65060  -0.64964  -0.64671  -0.64213  -0.64197
 Alpha  occ. eigenvalues --   -0.64010  -0.61428  -0.61256  -0.61033  -0.60642
 Alpha  occ. eigenvalues --   -0.60096  -0.59594  -0.59136  -0.59053  -0.58043
 Alpha  occ. eigenvalues --   -0.58023  -0.57986  -0.57626  -0.57559  -0.57170
 Alpha  occ. eigenvalues --   -0.56540  -0.55807  -0.55734  -0.55678  -0.55497
 Alpha  occ. eigenvalues --   -0.55446  -0.54794  -0.53999  -0.53997  -0.53864
 Alpha  occ. eigenvalues --   -0.53695  -0.53381  -0.53365  -0.53024  -0.53002
 Alpha  occ. eigenvalues --   -0.52666  -0.52629  -0.52420  -0.52342  -0.52142
 Alpha  occ. eigenvalues --   -0.51973  -0.51841  -0.51805  -0.51304  -0.51216
 Alpha  occ. eigenvalues --   -0.50731  -0.50701  -0.50539  -0.50352  -0.50229
 Alpha  occ. eigenvalues --   -0.50076  -0.49897  -0.49845  -0.49693  -0.49548
 Alpha  occ. eigenvalues --   -0.49510  -0.49264  -0.49240  -0.49013  -0.48825
 Alpha  occ. eigenvalues --   -0.48814  -0.48730  -0.48551  -0.48505  -0.48298
 Alpha  occ. eigenvalues --   -0.47930  -0.47766  -0.47762  -0.47545  -0.47431
 Alpha  occ. eigenvalues --   -0.47384  -0.46883  -0.46461  -0.46421  -0.46296
 Alpha  occ. eigenvalues --   -0.46223  -0.46028  -0.45793  -0.45775  -0.45577
 Alpha  occ. eigenvalues --   -0.45520  -0.45392  -0.44951  -0.44910  -0.44769
 Alpha  occ. eigenvalues --   -0.44650  -0.44541  -0.44454  -0.44331  -0.44016
 Alpha  occ. eigenvalues --   -0.44007  -0.43952  -0.43451  -0.43429  -0.43327
 Alpha  occ. eigenvalues --   -0.43323  -0.43229  -0.42984  -0.42981  -0.42738
 Alpha  occ. eigenvalues --   -0.42654  -0.42484  -0.42206  -0.42073  -0.41865
 Alpha  occ. eigenvalues --   -0.41800  -0.41414  -0.41290  -0.41033  -0.41032
 Alpha  occ. eigenvalues --   -0.40977  -0.40622  -0.40531  -0.40355  -0.40223
 Alpha  occ. eigenvalues --   -0.40184  -0.39980  -0.39883  -0.39842  -0.39191
 Alpha  occ. eigenvalues --   -0.38315  -0.38199  -0.38062  -0.37652  -0.37572
 Alpha  occ. eigenvalues --   -0.37027  -0.36628  -0.36511  -0.36155  -0.36050
 Alpha  occ. eigenvalues --   -0.35718  -0.35630  -0.34445  -0.33943  -0.33583
 Alpha  occ. eigenvalues --   -0.33257  -0.33043  -0.32596  -0.32200  -0.31834
 Alpha  occ. eigenvalues --   -0.31516  -0.31158  -0.31088  -0.30732  -0.30511
 Alpha  occ. eigenvalues --   -0.30187  -0.29669  -0.29566  -0.23901  -0.23524
 Alpha  occ. eigenvalues --   -0.21612  -0.21397
 Alpha virt. eigenvalues --   -0.09059  -0.08841  -0.01261  -0.00341  -0.00022
 Alpha virt. eigenvalues --    0.00949   0.02332   0.02469   0.02672   0.03499
 Alpha virt. eigenvalues --    0.04544   0.04790   0.05166   0.05319   0.06130

 Mulliken charges:
               1
     1  Mg   0.842547
     2  C   -0.021635
     3  C   -0.078604
     4  C   -0.075102
     5  C   -0.111279
     6  N   -0.243041
     7  C   -0.062034
     8  C   -0.047429
     9  C   -0.052406
    10  C    0.015700
    11  C    0.105862
    12  C    0.057334
    13  C   -0.053901
    14  H    0.023559
    15  N   -0.393554
    16  C    0.179575
    17  C   -0.141563
    18  C   -0.075168
    19  C    0.104595
    20  C    0.096174
    21  C    0.057906
    22  O   -0.196826
    23  C    0.033351
    24  N   -0.301810
    25  C    0.062649
    26  C   -0.047737
    27  C    0.014850
    28  C    0.029775
    29  C    0.068821
    30  C    0.044642
    31  C    0.006248
    32  N   -0.283331
    33  C    0.112472
    34  C   -0.165600
    35  C    0.022721
    36  C    0.067187
    37  C    0.123692
    38  C    0.018815
    39  O   -0.167204
    40  C    0.053352
    41  C    0.179848
    42  O   -0.224401
    43  O   -0.371075
    44  C    0.187054
    45  H   -0.022525
    46  H   -0.009367
    47  H   -0.032022
    48  H   -0.002139
    49  H   -0.022983
    50  H    0.012568
    51  H    0.048810
    52  H    0.014408
    53  H    0.011123
    54  H    0.016549
    55  H    0.022746
    56  H    0.030183
    57  H    0.017734
    58  H    0.042048
    59  H    0.008706
    60  H    0.038369
    61  H    0.029184
    62  H    0.060245
    63  H    0.009239
    64  H    0.004404
    65  H    0.017341
    66  H    0.022858
    67  H    0.019445
    68  H    0.008880
    69  H    0.003218
    70  H   -0.003651
    71  H    0.027803
    72  H    0.017086
    73  H   -0.005935
    74  H    0.043978
    75  H    0.023730
    76  H    0.037107
    77  H    0.045000
    78  H    0.038817
    79  H    0.032011
    80  Mg   0.836538
    81  C   -0.017210
    82  C   -0.043208
    83  C   -0.045008
    84  C   -0.101684
    85  N   -0.239112
    86  C   -0.040157
    87  C   -0.024282
    88  C   -0.084510
    89  C    0.050312
    90  C    0.081901
    91  C    0.071414
    92  C   -0.043354
    93  H    0.034267
    94  N   -0.366954
    95  C    0.065583
    96  C   -0.128893
    97  C   -0.029948
    98  C    0.104876
    99  C    0.110687
   100  C    0.002108
   101  O   -0.168067
   102  C    0.040325
   103  N   -0.199815
   104  C   -0.011560
   105  C   -0.045232
   106  C    0.011789
   107  C    0.027153
   108  C    0.070643
   109  C    0.014192
   110  C    0.026942
   111  N   -0.397685
   112  C    0.109386
   113  C   -0.209675
   114  C   -0.008121
   115  C    0.122781
   116  C    0.119302
   117  C    0.086577
   118  O   -0.138068
   119  C   -0.010440
   120  C    0.199188
   121  O   -0.246408
   122  O   -0.357450
   123  C    0.195818
   124  H   -0.050858
   125  H   -0.004298
   126  H   -0.024483
   127  H   -0.003120
   128  H    0.009584
   129  H    0.019437
   130  H    0.006397
   131  H    0.023211
   132  H    0.001098
   133  H    0.050128
   134  H    0.026196
   135  H    0.014065
   136  H    0.026321
   137  H    0.029675
   138  H    0.019810
   139  H    0.028410
   140  H    0.022300
   141  H    0.029398
   142  H    0.020294
   143  H    0.004779
   144  H    0.028987
   145  H    0.015497
   146  H    0.009560
   147  H   -0.002209
   148  H   -0.009379
   149  H    0.017912
   150  H    0.014454
   151  H    0.016685
   152  H    0.008498
   153  H    0.029946
   154  H    0.038362
   155  H    0.050209
   156  H    0.028688
   157  H    0.055470
   158  H    0.024035
 Sum of Mulliken charges =  -0.00000

 Dipole moment (field-independent basis, Debye):
    X=             -5.0857    Y=             -1.1277    Z=              7.9762  Tot=              9.5266
 Quadrupole moment (field-independent basis, Debye-Ang):
   XX=           -298.5136   YY=           -503.9762   ZZ=           -480.4397
   XY=            -50.7743   XZ=             43.8595   YZ=             47.1488

 Normal termination of Gaussian 16 at Thu Sep 16 14:34:08 2021.
