 Gaussian 16, Revision A.03,
 Gaussian 16:  ES64L-G16RevA.03 25-Dec-2016

 -----------------------------------
 #p cam-b3lyp/Def2SVP td=(nstates=5)
 -----------------------------------

 --------------------------------
 TDDFT excited states in gaussian
 --------------------------------
 Symbolic Z-matrix:
 Charge =  0 Multiplicity = 1

                         Standard orientation:
 ---------------------------------------------------------------------
 Center     Atomic      Atomic             Coordinates (Angstroms)
 Number     Number       Type             X           Y           Z
 ---------------------------------------------------------------------
      1         12           0      -29.132829   -0.010553   -0.536242
      2          6           0      -25.633104    0.029383   -0.219179
      3          6           0      -29.059726   -3.421230   -0.107189
      4          6           0      -32.407051    0.140269   -0.086495
      5          6           0      -29.087045    3.537289   -0.705253
      6          7           0      -27.568175   -1.457329    0.045475
      7          6           0      -26.169646   -1.230184    0.120492
      8          6           0      -25.385328   -2.476816    0.092593
      9          6           0      -26.521228   -3.586926    0.027867
     10          6           0      -27.810662   -2.785107   -0.052921
     11          6           0      -26.270250   -4.629628   -1.088288
     12          6           0      -24.577299   -2.736258    1.327382
     13          6           0      -25.210002   -2.327890    2.666069
     14          1           0      -24.981748   -3.177168    3.976724
     15          7           0      -30.592630   -1.445669   -0.180095
     16          6           0      -30.352714   -2.770778   -0.166401
     17          6           0      -31.616007   -3.461323   -0.094298
     18          6           0      -32.618511   -2.462542   -0.161172
     19          6           0      -31.909039   -1.173186   -0.177303
     20          6           0      -31.803000   -4.947085    0.056737
     21          6           0      -34.125753   -2.713479   -0.196637
     22          8           0      -34.574581   -3.842374   -0.156460
     23          6           0      -35.221410   -1.689396   -0.166326
     24          7           0      -30.515786    1.598374   -0.156991
     25          6           0      -31.866228    1.397834   -0.050004
     26          6           0      -32.657929    2.738344   -0.200784
     27          6           0      -31.523351    3.800660   -0.083086
     28          6           0      -30.304126    2.944569   -0.347289
     29          6           0      -33.432508    2.908102   -1.530040
     30          6           0      -31.278573    4.409734    1.377571
     31          6           0      -31.129640    5.884985    1.472957
     32          7           0      -27.750226    1.464891   -0.582236
     33          6           0      -27.885350    2.773250   -0.837492
     34          6           0      -26.561392    3.355514   -1.276790
     35          6           0      -25.673114    2.250311   -1.082024
     36          6           0      -26.419326    1.175080   -0.521919
     37          6           0      -26.206518    4.755600   -1.756466
     38          6           0      -24.280565    1.906112   -1.075356
     39          8           0      -23.294517    2.576890   -1.336719
     40          6           0      -24.211812    0.420305   -0.536529
     41          6           0      -23.505585    0.469547    0.802477
     42          8           0      -23.901773    0.945651    1.814578
     43          8           0      -22.333715   -0.247863    0.689477
     44          6           0      -21.688298   -0.528676    1.975908
     45          1           0      -29.015412   -4.510363   -0.169659
     46          1           0      -33.496217    0.200705   -0.117267
     47          1           0      -29.157779    4.610079   -0.896428
     48          1           0      -24.720758   -2.428641   -0.770029
     49          1           0      -26.715702   -4.127211    0.954295
     50          1           0      -26.427542   -5.553681   -0.531689
     51          1           0      -25.246102   -4.485422   -1.432609
     52          1           0      -27.010661   -4.586263   -1.887292
     53          1           0      -23.537734   -2.416477    1.250897
     54          1           0      -24.358160   -3.787350    1.516506
     55          1           0      -26.277580   -2.252536    2.456665
     56          1           0      -24.847631   -1.306494    2.783747
     57          1           0      -32.544478   -5.172433    0.823959
     58          1           0      -30.840230   -5.424168    0.239547
     59          1           0      -32.184151   -5.263727   -0.914415
     60          1           0      -35.299159   -1.113229    0.755115
     61          1           0      -36.102771   -2.330417   -0.141416
     62          1           0      -35.326886   -1.145150   -1.105429
     63          1           0      -33.380904    2.788430    0.613302
     64          1           0      -31.599382    4.599637   -0.821074
     65          1           0      -32.958415    3.701455   -2.107625
     66          1           0      -34.510095    2.938935   -1.369759
     67          1           0      -33.305756    2.001596   -2.120802
     68          1           0      -30.428940    3.930989    1.863882
     69          1           0      -32.165898    4.107801    1.934243
     70          1           0      -31.840676    6.341692    2.161084
     71          1           0      -31.197156    6.392765    0.510546
     72          1           0      -30.157374    6.167748    1.875590
     73          1           0      -25.448873    5.132281   -1.069287
     74          1           0      -27.137766    5.309670   -1.880580
     75          1           0      -25.687344    4.613600   -2.704216
     76          1           0      -23.709907   -0.250067   -1.233876
     77          1           0      -22.397404   -0.612896    2.799308
     78          1           0      -21.035131    0.331535    2.122903
     79          1           0      -21.017542   -1.367449    1.791754
     80         12           0       28.477176    0.714897   -0.510670
     81          6           0       27.514848   -2.676593   -0.527788
     82          6           0       25.605293    1.389355    1.193606
     83          6           0       29.750193    3.813216    0.168520
     84          6           0       31.601626   -0.389795   -1.821198
     85          7           0       26.796196   -0.557506    0.382141
     86          6           0       26.500149   -1.868849    0.143004
     87          6           0       25.250571   -2.333847    0.910608
     88          6           0       24.567984   -0.888258    1.074531
     89          6           0       25.729823    0.051457    0.867989
     90          6           0       23.407121   -0.576053    0.092463
     91          6           0       25.551490   -2.995610    2.330078
     92          6           0       24.532524   -3.955126    2.925178
     93          1           0       23.694112   -3.595692    4.170327
     94          7           0       27.802580    2.476021    0.522266
     95          6           0       26.533321    2.549382    1.018068
     96          6           0       26.216565    3.854931    1.397177
     97          6           0       27.399342    4.628219    1.091820
     98          6           0       28.420886    3.663442    0.595230
     99          6           0       24.877410    4.300035    1.972465
    100          6           0       27.472906    6.122472    1.310601
    101          8           0       26.472080    6.733012    1.767000
    102          6           0       28.703462    7.003650    0.895895
    103          7           0       30.374403    1.515899   -0.808147
    104          6           0       30.649460    2.867892   -0.467162
    105          6           0       31.940042    3.304472   -1.102846
    106          6           0       32.677256    1.985065   -1.418983
    107          6           0       31.498454    0.968704   -1.435837
    108          6           0       31.913503    4.135630   -2.405482
    109          6           0       33.739776    1.582284   -0.266202
    110          6           0       35.131991    2.193434   -0.315993
    111          7           0       29.292768   -1.143090   -1.229874
    112          6           0       30.552871   -1.427490   -1.734330
    113          6           0       30.707480   -2.776539   -1.992270
    114          6           0       29.488741   -3.341072   -1.578523
    115          6           0       28.674556   -2.300720   -1.099938
    116          6           0       31.930538   -3.408963   -2.577644
    117          6           0       28.761287   -4.498078   -1.554581
    118          8           0       29.010113   -5.590081   -2.026187
    119          6           0       27.564097   -4.159005   -0.641790
    120          6           0       27.837300   -4.889645    0.638954
    121          8           0       28.817194   -4.736148    1.299499
    122          8           0       26.824098   -5.816250    0.891279
    123          6           0       27.120665   -6.650462    2.003533
    124          1           0       24.616362    1.684672    1.551010
    125          1           0       30.135252    4.835498    0.174258
    126          1           0       32.527995   -0.627012   -2.348050
    127          1           0       24.565944   -2.905737    0.285138
    128          1           0       24.132871   -0.867400    2.073316
    129          1           0       22.525343   -0.790132    0.697051
    130          1           0       23.403112   -1.243731   -0.769017
    131          1           0       23.395819    0.475552   -0.194535
    132          1           0       25.645585   -2.225257    3.095514
    133          1           0       26.542319   -3.444201    2.255257
    134          1           0       25.115415   -4.850894    3.144366
    135          1           0       23.840387   -4.222923    2.127008
    136          1           0       24.475904    5.279767    1.711421
    137          1           0       25.115152    4.165366    3.027406
    138          1           0       24.081373    3.654291    1.601676
    139          1           0       28.837168    6.953388   -0.184366
    140          1           0       29.512197    6.553837    1.471511
    141          1           0       28.699509    8.033490    1.252740
    142          1           0       32.500921    3.824324   -0.326819
    143          1           0       33.198593    2.021096   -2.375614
    144          1           0       32.301092    3.626813   -3.287907
    145          1           0       32.132617    5.185665   -2.210682
    146          1           0       30.852236    4.206481   -2.643257
    147          1           0       33.775654    0.503717   -0.418194
    148          1           0       33.336604    1.795706    0.723930
    149          1           0       35.357573    2.646080    0.649200
    150          1           0       35.159372    2.961296   -1.089627
    151          1           0       35.894689    1.431909   -0.480748
    152          1           0       32.168061   -4.253074   -1.930868
    153          1           0       32.801201   -2.752948   -2.542740
    154          1           0       31.770796   -3.786985   -3.587585
    155          1           0       26.661438   -4.544539   -1.114531
    156          1           0       27.616279   -7.557352    1.658176
    157          1           0       26.234197   -7.070480    2.480303
    158          1           0       27.760236   -6.157844    2.733921
 ---------------------------------------------------------------------

 SCF Done:  E(RCAM-B3LYP) =  -4069.77544316     A.U. after   17 cycles

 Excitation energies and oscillator strengths:

 Excited State   1:      Singlet-A      1.6651 eV  744.61 nm  f=0.3731  <S**2>=0.000
     310 -> 316        0.17250
     312 -> 314        0.68783
     310 <- 316        0.10779
 This state for optimization and/or second-order correction.
 Total Energy, E(TD-HF/TD-DFT) =  -4069.71425205
 Copying the excited state density for this state as the 1-particle RhoCI density.

 Excited State   2:      Singlet-A      1.7067 eV  726.48 nm  f=0.4037  <S**2>=0.000
     309 -> 315       -0.18535
     311 -> 313        0.68241
     309 <- 315       -0.10819

 Excited State   3:      Singlet-A      2.1433 eV  578.46 nm  f=0.1303  <S**2>=0.000
     309 -> 313        0.65034
     311 -> 315        0.26013

 Excited State   4:      Singlet-A      2.2662 eV  547.11 nm  f=0.1010  <S**2>=0.000
     310 -> 314        0.62926
     312 -> 316       -0.31016

 Excited State   5:      Singlet-A      2.9527 eV  419.90 nm  f=0.0000  <S**2>=0.000
     312 -> 313        0.70711

 The electronic state is 1-A.
 Alpha  occ. eigenvalues --  -46.90324 -46.88586 -19.25404 -19.24611 -19.20934
 Alpha  occ. eigenvalues --  -19.20434 -19.19130 -19.18254 -19.18105 -19.17895
 Alpha  occ. eigenvalues --  -14.43188 -14.42681 -14.42381 -14.41891 -14.39832
 Alpha  occ. eigenvalues --  -14.39600 -14.39539 -14.39217 -10.39710 -10.39251
 Alpha  occ. eigenvalues --  -10.35036 -10.34998 -10.34610 -10.33367 -10.32412
 Alpha  occ. eigenvalues --  -10.32337 -10.31647 -10.31444 -10.31215 -10.30999
 Alpha  occ. eigenvalues --  -10.30951 -10.30951 -10.30823 -10.30726 -10.30662
 Alpha  occ. eigenvalues --  -10.30588 -10.30474 -10.30238 -10.29958 -10.29954
 Alpha  occ. eigenvalues --  -10.29323 -10.29245 -10.29108 -10.28721 -10.28522
 Alpha  occ. eigenvalues --  -10.28512 -10.28340 -10.28335 -10.28315 -10.28295
 Alpha  occ. eigenvalues --  -10.28221 -10.28131 -10.28072 -10.28063 -10.28053
 Alpha  occ. eigenvalues --  -10.27969 -10.27875 -10.27851 -10.27827 -10.27750
 Alpha  occ. eigenvalues --  -10.27678 -10.27561 -10.27462 -10.27440 -10.27422
 Alpha  occ. eigenvalues --  -10.27349 -10.27046 -10.26756 -10.26626 -10.26600
 Alpha  occ. eigenvalues --  -10.26568 -10.26513 -10.26502 -10.26494 -10.26491
 Alpha  occ. eigenvalues --  -10.26395 -10.26377 -10.26094 -10.26009 -10.25853
 Alpha  occ. eigenvalues --  -10.25671 -10.25518 -10.25495 -10.25375 -10.25135
 Alpha  occ. eigenvalues --  -10.24177  -3.18616  -3.17231  -1.93514  -1.93064
 Alpha  occ. eigenvalues --   -1.92914  -1.92093  -1.91691  -1.91549  -1.17652
 Alpha  occ. eigenvalues --   -1.17272  -1.10415  -1.10058  -1.09957  -1.09520
 Alpha  occ. eigenvalues --   -1.08968  -1.07331  -1.05768  -1.04662  -1.04589
 Alpha  occ. eigenvalues --   -1.04000  -1.03934  -1.03344  -1.02633  -1.01927
 Alpha  occ. eigenvalues --   -0.94354  -0.93189  -0.89874  -0.89436  -0.88979
 Alpha  occ. eigenvalues --   -0.88736  -0.88694  -0.88393  -0.87578  -0.87532
 Alpha  occ. eigenvalues --   -0.87114  -0.86341  -0.85923  -0.85812  -0.84751
 Alpha  occ. eigenvalues --   -0.84399  -0.84175  -0.83650  -0.82929  -0.82720
 Alpha  occ. eigenvalues --   -0.81903  -0.81697  -0.80882  -0.80706  -0.80521
 Alpha  occ. eigenvalues --   -0.80364  -0.78086  -0.77953  -0.77514  -0.77403
 Alpha  occ. eigenvalues --   -0.76963  -0.76854  -0.76053  -0.75982  -0.75706
 Alpha  occ. eigenvalues --   -0.75141  -0.73626  -0.72710  -0.72270  -0.71698
 Alpha  occ. eigenvalues --   -0.69637  -0.69502  -0.68816  -0.68690  -0.68492
 Alpha  occ. eigenvalues --   -0.68449  -0.67180  -0.67092  -0.66326  -0.65872
 Alpha  occ. eigenvalues --   -0.65381  -0.65087  -0.64765  -0.64546  -0.64386
 Alpha  occ. eigenvalues --   -0.64235  -0.62829  -0.62108  -0.60540  -0.60169
 Alpha  occ. eigenvalues --   -0.60012  -0.59628  -0.59422  -0.59202  -0.59073
 Alpha  occ. eigenvalues --   -0.59040  -0.58948  -0.58144  -0.58078  -0.57387
 Alpha  occ. eigenvalues --   -0.56568  -0.56519  -0.56111  -0.55799  -0.55426
 Alpha  occ. eigenvalues --   -0.55326  -0.55107  -0.55097  -0.54611  -0.54080
 Alpha  occ. eigenvalues --   -0.53862  -0.53568  -0.53213  -0.53049  -0.52860
 Alpha  occ. eigenvalues --   -0.52810  -0.52620  -0.52379  -0.52293  -0.52291
 Alpha  occ. eigenvalues --   -0.52131  -0.51846  -0.51625  -0.51458  -0.51429
 Alpha  occ. eigenvalues --   -0.51235  -0.51167  -0.50936  -0.50834  -0.50623
 Alpha  occ. eigenvalues --   -0.50166  -0.50139  -0.49846  -0.49760  -0.49612
 Alpha  occ. eigenvalues --   -0.49411  -0.49367  -0.49259  -0.49012  -0.48945
 Alpha  occ. eigenvalues --   -0.48829  -0.48774  -0.48605  -0.48451  -0.48371
 Alpha  occ. eigenvalues --   -0.47956  -0.47562  -0.47360  -0.47241  -0.47204
 Alpha  occ. eigenvalues --   -0.47112  -0.47021  -0.46911  -0.46788  -0.46614
 Alpha  occ. eigenvalues --   -0.46413  -0.46384  -0.46362  -0.46037  -0.46010
 Alpha  occ. eigenvalues --   -0.45888  -0.45799  -0.45509  -0.45299  -0.45235
 Alpha  occ. eigenvalues --   -0.45092  -0.44732  -0.44681  -0.44609  -0.44378
 Alpha  occ. eigenvalues --   -0.44055  -0.43910  -0.43864  -0.43782  -0.43607
 Alpha  occ. eigenvalues --   -0.43348  -0.43268  -0.43238  -0.42956  -0.42811
 Alpha  occ. eigenvalues --   -0.42603  -0.42529  -0.42514  -0.42387  -0.42205
 Alpha  occ. eigenvalues --   -0.42199  -0.42134  -0.41908  -0.41561  -0.41336
 Alpha  occ. eigenvalues --   -0.41202  -0.41125  -0.41029  -0.40779  -0.40519
 Alpha  occ. eigenvalues --   -0.40407  -0.40319  -0.39829  -0.39411  -0.39160
 Alpha  occ. eigenvalues --   -0.38502  -0.38462  -0.37886  -0.37819  -0.37658
 Alpha  occ. eigenvalues --   -0.37339  -0.37149  -0.37044  -0.36968  -0.36595
 Alpha  occ. eigenvalues --   -0.36449  -0.35771  -0.35512  -0.35111  -0.35066
 Alpha  occ. eigenvalues --   -0.34235  -0.33422  -0.33031  -0.31456  -0.31385
 Alpha  occ. eigenvalues --   -0.31108  -0.30543  -0.30458  -0.30042  -0.29935
 Alpha  occ. eigenvalues --   -0.29910  -0.29660  -0.29528  -0.24333  -0.24316
 Alpha  occ. eigenvalues --   -0.22047  -0.21053
 Alpha virt. eigenvalues --   -0.09601  -0.08786  -0.02490  -0.01795  -0.00089
 Alpha virt. eigenvalues --    0.00211   0.01375   0.01413   0.02518   0.02588
 Alpha virt. eigenvalues --    0.04289   0.05045   0.05142   0.05423   0.05495

 Mulliken charges:
               1
     1  Mg   0.832768
     2  C   -0.065573
     3  C   -0.081993
     4  C   -0.051823
     5  C   -0.084139
     6  N   -0.298308
     7  C   -0.025798
     8  C    0.018487
     9  C   -0.084349
    10  C    0.035864
    11  C    0.085093
    12  C    0.008060
    13  C   -0.055356
    14  H    0.025481
    15  N   -0.351551
    16  C    0.137564
    17  C   -0.183557
    18  C   -0.001200
    19  C    0.138264
    20  C    0.160170
    21  C   -0.032207
    22  O   -0.207991
    23  C    0.057949
    24  N   -0.289640
    25  C    0.015892
    26  C   -0.027194
    27  C   -0.062475
    28  C    0.016112
    29  C    0.089645
    30  C    0.056715
    31  C    0.010154
    32  N   -0.344939
    33  C    0.137346
    34  C   -0.195339
    35  C   -0.004413
    36  C    0.133851
    37  C    0.146233
    38  C    0.051138
    39  O   -0.169727
    40  C    0.007082
    41  C    0.187095
    42  O   -0.181063
    43  O   -0.345673
    44  C    0.175660
    45  H   -0.026732
    46  H   -0.055791
    47  H   -0.024799
    48  H    0.014637
    49  H    0.028492
    50  H    0.016091
    51  H    0.023431
    52  H    0.024306
    53  H   -0.006941
    54  H   -0.001144
    55  H    0.031154
    56  H    0.037565
    57  H    0.042144
    58  H   -0.001158
    59  H    0.032078
    60  H    0.043738
    61  H    0.018241
    62  H    0.031568
    63  H    0.006932
    64  H    0.007281
    65  H    0.018882
    66  H    0.023718
    67  H    0.006583
    68  H    0.033382
    69  H   -0.000392
    70  H    0.016118
    71  H    0.005066
    72  H    0.013764
    73  H    0.046469
    74  H    0.016176
    75  H    0.034356
    76  H    0.034135
    77  H    0.056368
    78  H    0.035424
    79  H    0.036537
    80  Mg   0.815260
    81  C    0.014438
    82  C   -0.065254
    83  C   -0.076249
    84  C   -0.071957
    85  N   -0.233141
    86  C   -0.080870
    87  C    0.006775
    88  C   -0.104043
    89  C    0.065309
    90  C    0.076810
    91  C    0.039638
    92  C   -0.043150
    93  H    0.028200
    94  N   -0.343534
    95  C    0.106397
    96  C   -0.141762
    97  C   -0.040966
    98  C    0.143951
    99  C    0.134037
   100  C   -0.011062
   101  O   -0.242988
   102  C    0.048393
   103  N   -0.357482
   104  C    0.064223
   105  C   -0.039295
   106  C   -0.064038
   107  C    0.055440
   108  C    0.104245
   109  C    0.008806
   110  C    0.034454
   111  N   -0.298969
   112  C    0.103978
   113  C   -0.159982
   114  C    0.083488
   115  C    0.089586
   116  C    0.137607
   117  C   -0.048561
   118  O   -0.168374
   119  C   -0.001935
   120  C    0.189517
   121  O   -0.180557
   122  O   -0.329022
   123  C    0.162237
   124  H   -0.027398
   125  H   -0.039861
   126  H   -0.015045
   127  H    0.002589
   128  H    0.015786
   129  H    0.016362
   130  H    0.021281
   131  H    0.022333
   132  H    0.019974
   133  H    0.022644
   134  H    0.026587
   135  H    0.021099
   136  H    0.045655
   137  H    0.041296
   138  H    0.008734
   139  H    0.046346
   140  H    0.030949
   141  H    0.024840
   142  H    0.004657
   143  H    0.002856
   144  H    0.027592
   145  H    0.021413
   146  H   -0.005819
   147  H    0.000847
   148  H    0.012714
   149  H    0.013758
   150  H    0.012283
   151  H    0.020658
   152  H    0.032756
   153  H    0.002692
   154  H    0.040532
   155  H    0.015290
   156  H    0.028748
   157  H    0.030557
   158  H    0.044704
 Sum of Mulliken charges =  -0.00000

 Dipole moment (field-independent basis, Debye):
    X=             -0.9077    Y=              1.7964    Z=             -2.2432  Tot=              3.0138
 Quadrupole moment (field-independent basis, Debye-Ang):
   XX=           -384.5386   YY=           -540.0569   ZZ=           -514.7997
   XY=              6.3128   XZ=             14.7953   YZ=            -26.6015

 Normal termination of Gaussian 16 at Tue Sep 14 18:35:04 2021.
