 Gaussian 16, Revision A.03,
 Gaussian 16:  ES64L-G16RevA.03 25-Dec-2016

 -----------------------------------
 #p cam-b3lyp/Def2SVP td=(nstates=5)
 -----------------------------------

 --------------------------------
 TDDFT excited states in gaussian
 --------------------------------
 Symbolic Z-matrix:
 Charge =  0 Multiplicity = 1

                         Standard orientation:
 ---------------------------------------------------------------------
 Center     Atomic      Atomic             Coordinates (Angstroms)
 Number     Number       Type             X           Y           Z
 ---------------------------------------------------------------------
      1         12           0       16.914127    0.599323   -0.240378
      2          6           0       15.746279   -2.058768    1.748001
      3          6           0       14.200867    2.457786    0.888749
      4          6           0       17.869602    2.956268   -2.375665
      5          6           0       19.096897   -1.697982   -1.928096
      6          7           0       15.184927    0.237395    1.118929
      7          6           0       15.005444   -0.904427    1.912342
      8          6           0       14.060854   -0.573836    3.053060
      9          6           0       13.362573    0.748930    2.627145
     10          6           0       14.312973    1.183550    1.470993
     11          6           0       11.844485    0.651007    2.277059
     12          6           0       14.736067   -0.520105    4.467271
     13          6           0       13.777844   -0.950162    5.663759
     14          1           0       12.327667   -1.306088    5.325656
     15          7           0       16.235120    2.434286   -0.571537
     16          6           0       15.158712    3.053723    0.039849
     17          6           0       15.062556    4.425426   -0.368700
     18          6           0       16.032012    4.571614   -1.411951
     19          6           0       16.768243    3.320700   -1.451798
     20          6           0       13.965037    5.405974    0.146256
     21          6           0       16.280911    5.746531   -2.300190
     22          8           0       17.062664    5.674830   -3.278299
     23          6           0       15.623281    7.157629   -2.270777
     24          7           0       18.081273    0.579495   -2.089538
     25          6           0       18.407737    1.722684   -2.721539
     26          6           0       19.588791    1.485383   -3.695944
     27          6           0       19.970739    0.005507   -3.578268
     28          6           0       18.991748   -0.400018   -2.389897
     29          6           0       19.303876    2.030298   -5.062272
     30          6           0       21.453526   -0.318980   -3.296511
     31          6           0       22.027322    0.285919   -1.991506
     32          7           0       17.341010   -1.495419   -0.203557
     33          6           0       18.326538   -2.193385   -0.814590
     34          6           0       18.389417   -3.495856   -0.153292
     35          6           0       17.425346   -3.531428    0.892772
     36          6           0       16.758062   -2.285998    0.797663
     37          6           0       19.417365   -4.588580   -0.434673
     38          6           0       16.862011   -4.317817    1.943336
     39          8           0       17.151589   -5.399436    2.447925
     40          6           0       15.633534   -3.365586    2.539600
     41          6           0       14.336382   -4.151950    2.513749
     42          8           0       13.658537   -4.298319    1.515596
     43          8           0       13.995429   -4.576643    3.777813
     44          6           0       13.017015   -5.649678    3.922218
     45          1           0       13.395382    2.986134    1.402682
     46          1           0       18.202661    3.799027   -2.984530
     47          1           0       19.878097   -2.297261   -2.399744
     48          1           0       13.304675   -1.354798    3.131672
     49          1           0       13.482334    1.449634    3.452943
     50          1           0       11.813186    1.056151    1.266192
     51          1           0       11.262113    1.334938    2.895632
     52          1           0       11.353343   -0.321979    2.265989
     53          1           0       15.020763    0.497200    4.734061
     54          1           0       15.645060   -1.119648    4.440215
     55          1           0       13.653230   -0.078879    6.306938
     56          1           0       14.258359   -1.782036    6.178150
     57          1           0       13.658463    6.026307   -0.696828
     58          1           0       14.334654    6.081041    0.917381
     59          1           0       13.050215    5.039452    0.611699
     60          1           0       15.743543    7.617279   -1.289370
     61          1           0       14.576394    7.136800   -2.573467
     62          1           0       16.188755    7.926961   -2.795244
     63          1           0       20.368907    2.175147   -3.376416
     64          1           0       19.516987   -0.465908   -4.450749
     65          1           0       19.801102    2.982014   -5.250562
     66          1           0       18.227157    2.109289   -5.213256
     67          1           0       19.601485    1.370140   -5.877724
     68          1           0       21.970802    0.142491   -4.137931
     69          1           0       21.612140   -1.397650   -3.313668
     70          1           0       22.351933   -0.569923   -1.400021
     71          1           0       21.212362    0.828857   -1.512721
     72          1           0       22.801948    1.037050   -2.146740
     73          1           0       19.807264   -5.041909    0.476242
     74          1           0       20.317803   -4.180764   -0.893122
     75          1           0       18.976712   -5.292533   -1.141164
     76          1           0       15.900270   -3.213312    3.585745
     77          1           0       12.243756   -5.465068    3.176039
     78          1           0       12.528146   -5.695758    4.895412
     79          1           0       13.580664   -6.574359    3.798017
     80         12           0      -16.560016    0.508752    0.508730
     81          6           0      -16.459566   -2.759970   -0.602485
     82          6           0      -13.156603    0.345506    0.999095
     83          6           0      -16.550939    3.902895    1.036857
     84          6           0      -19.943447    0.627337   -0.115386
     85          7           0      -14.975391   -0.944234    0.046759
     86          6           0      -15.211379   -2.248071   -0.342349
     87          6           0      -13.920759   -3.058408   -0.428748
     88          6           0      -12.940343   -2.155462    0.408867
     89          6           0      -13.709709   -0.843080    0.445152
     90          6           0      -12.458399   -2.713185    1.824107
     91          6           0      -13.427379   -3.428310   -1.863911
     92          6           0      -12.969719   -4.859100   -2.053520
     93          1           0      -11.467350   -4.956816   -2.268328
     94          7           0      -15.057299    1.879975    0.932516
     95          6           0      -13.757698    1.623021    1.118793
     96          6           0      -13.045706    2.825686    1.514881
     97          6           0      -13.911992    3.905490    1.554013
     98          6           0      -15.237294    3.286631    1.119358
     99          6           0      -11.461401    2.850592    1.754523
    100          6           0      -13.582352    5.365805    2.013697
    101          8           0      -12.388058    5.651633    2.311312
    102          6           0      -14.615347    6.425730    2.059534
    103          7           0      -18.038117    2.163049    0.231035
    104          6           0      -17.841531    3.385363    0.668850
    105          6           0      -19.129883    4.162479    0.841111
    106          6           0      -20.289770    3.206793    0.399633
    107          6           0      -19.423309    1.869806    0.218585
    108          6           0      -19.352931    5.032504    2.119200
    109          6           0      -21.136477    3.523178   -0.867195
    110          6           0      -22.443609    2.759067   -0.911135
    111          7           0      -17.959265   -0.816273   -0.237283
    112          6           0      -19.358994   -0.660279   -0.364104
    113          6           0      -19.909451   -1.928469   -0.757992
    114          6           0      -18.817507   -2.826521   -0.840925
    115          6           0      -17.690690   -2.061050   -0.554023
    116          6           0      -21.383906   -2.300534   -0.806782
    117          6           0      -18.514045   -4.146365   -1.095948
    118          8           0      -19.121925   -5.105862   -1.485710
    119          6           0      -16.897666   -4.156207   -1.099081
    120          6           0      -16.534267   -4.151106   -2.583152
    121          8           0      -16.523722   -3.174786   -3.307907
    122          8           0      -16.246429   -5.461979   -2.927429
    123          6           0      -15.976556   -5.705187   -4.340815
    124          1           0      -12.127773    0.301344    1.361985
    125          1           0      -16.477943    4.974885    1.230097
    126          1           0      -21.019960    0.477788   -0.221143
    127          1           0      -14.070051   -3.970109    0.148985
    128          1           0      -12.113265   -1.898947   -0.254132
    129          1           0      -12.197283   -1.791281    2.343620
    130          1           0      -11.511616   -3.253022    1.794207
    131          1           0      -13.171373   -3.318918    2.383275
    132          1           0      -12.593262   -2.744255   -2.021489
    133          1           0      -14.052886   -3.112103   -2.698435
    134          1           0      -13.510645   -5.260199   -2.910922
    135          1           0      -13.190701   -5.486287   -1.189636
    136          1           0      -10.948012    1.906560    1.567128
    137          1           0      -11.233942    3.159504    2.775333
    138          1           0      -10.932366    3.489928    1.049149
    139          1           0      -15.408688    6.130823    2.745641
    140          1           0      -14.921379    6.732227    1.059195
    141          1           0      -14.143307    7.224712    2.629943
    142          1           0      -19.315099    4.936228    0.095769
    143          1           0      -20.901182    2.876646    1.239774
    144          1           0      -18.379406    5.099999    2.606743
    145          1           0      -20.168303    4.683451    2.753831
    146          1           0      -19.634337    6.065442    1.913875
    147          1           0      -20.484192    3.331732   -1.719129
    148          1           0      -21.268671    4.604634   -0.836031
    149          1           0      -23.169445    3.382594   -1.433727
    150          1           0      -22.872522    2.511196    0.060513
    151          1           0      -22.323110    1.888046   -1.555315
    152          1           0      -21.565986   -3.367699   -0.934012
    153          1           0      -21.841820   -1.724468   -1.609829
    154          1           0      -21.897179   -2.003372    0.107808
    155          1           0      -16.503761   -4.969296   -0.488529
    156          1           0      -16.879134   -5.512652   -4.921035
    157          1           0      -15.589786   -6.709038   -4.512930
    158          1           0      -15.242950   -4.983353   -4.698704
 ---------------------------------------------------------------------

 SCF Done:  E(RCAM-B3LYP) =  -4069.81658983     A.U. after   18 cycles

 Excitation energies and oscillator strengths:

 Excited State   1:      Singlet-A      1.6591 eV  747.29 nm  f=0.3996  <S**2>=0.000
     309 -> 316        0.16730
     312 -> 313        0.68826
     309 <- 316        0.10534
 This state for optimization and/or second-order correction.
 Total Energy, E(TD-HF/TD-DFT) =  -4069.75561849
 Copying the excited state density for this state as the 1-particle RhoCI density.

 Excited State   2:      Singlet-A      1.8647 eV  664.90 nm  f=0.3738  <S**2>=0.000
     310 -> 315        0.14275
     311 -> 314        0.68807

 Excited State   3:      Singlet-A      2.1919 eV  565.65 nm  f=0.1550  <S**2>=0.000
     309 -> 313        0.65721
     312 -> 316       -0.24507

 Excited State   4:      Singlet-A      2.2636 eV  547.73 nm  f=0.1275  <S**2>=0.000
     310 -> 314        0.64676
     311 -> 315       -0.24671
     311 -> 318        0.10353

 Excited State   5:      Singlet-A      3.0601 eV  405.16 nm  f=0.0000  <S**2>=0.000
     311 -> 313        0.70709

 The electronic state is 1-A.
 Alpha  occ. eigenvalues --  -46.89413 -46.88902 -19.24524 -19.24252 -19.20243
 Alpha  occ. eigenvalues --  -19.19881 -19.19352 -19.19252 -19.18356 -19.17729
 Alpha  occ. eigenvalues --  -14.42544 -14.42324 -14.42061 -14.41425 -14.40565
 Alpha  occ. eigenvalues --  -14.40266 -14.39372 -14.38500 -10.39113 -10.39096
 Alpha  occ. eigenvalues --  -10.37049 -10.35582 -10.35470 -10.33410 -10.33088
 Alpha  occ. eigenvalues --  -10.32429 -10.31732 -10.31534 -10.31410 -10.31147
 Alpha  occ. eigenvalues --  -10.31093 -10.30931 -10.30793 -10.30724 -10.30462
 Alpha  occ. eigenvalues --  -10.30367 -10.30345 -10.29846 -10.29814 -10.29811
 Alpha  occ. eigenvalues --  -10.29510 -10.29288 -10.29180 -10.29032 -10.28424
 Alpha  occ. eigenvalues --  -10.28402 -10.28358 -10.28301 -10.28238 -10.28195
 Alpha  occ. eigenvalues --  -10.28149 -10.28076 -10.28072 -10.27969 -10.27939
 Alpha  occ. eigenvalues --  -10.27845 -10.27525 -10.27518 -10.27513 -10.27471
 Alpha  occ. eigenvalues --  -10.27449 -10.27442 -10.27244 -10.27199 -10.27165
 Alpha  occ. eigenvalues --  -10.26966 -10.26951 -10.26933 -10.26877 -10.26869
 Alpha  occ. eigenvalues --  -10.26794 -10.26776 -10.26718 -10.26584 -10.26456
 Alpha  occ. eigenvalues --  -10.26325 -10.26254 -10.26065 -10.25949 -10.25813
 Alpha  occ. eigenvalues --  -10.25609 -10.25593 -10.25304 -10.25287 -10.24900
 Alpha  occ. eigenvalues --  -10.23113  -3.17852  -3.17473  -1.92735  -1.92343
 Alpha  occ. eigenvalues --   -1.92313  -1.92155  -1.91928  -1.91786  -1.15468
 Alpha  occ. eigenvalues --   -1.15443  -1.09810  -1.09442  -1.09165  -1.08406
 Alpha  occ. eigenvalues --   -1.07912  -1.07450  -1.04598  -1.04323  -1.03853
 Alpha  occ. eigenvalues --   -1.03462  -1.03210  -1.03206  -1.02561  -1.02108
 Alpha  occ. eigenvalues --   -0.92182  -0.91573  -0.89203  -0.89194  -0.88546
 Alpha  occ. eigenvalues --   -0.88506  -0.88142  -0.87982  -0.87362  -0.87070
 Alpha  occ. eigenvalues --   -0.86795  -0.86648  -0.85837  -0.85309  -0.84519
 Alpha  occ. eigenvalues --   -0.83813  -0.83649  -0.83332  -0.83220  -0.82181
 Alpha  occ. eigenvalues --   -0.82070  -0.81060  -0.80719  -0.80622  -0.80229
 Alpha  occ. eigenvalues --   -0.80033  -0.78702  -0.77657  -0.77176  -0.76945
 Alpha  occ. eigenvalues --   -0.76768  -0.76752  -0.75832  -0.75341  -0.75155
 Alpha  occ. eigenvalues --   -0.74980  -0.72536  -0.72406  -0.71707  -0.71079
 Alpha  occ. eigenvalues --   -0.69920  -0.69737  -0.69131  -0.69128  -0.68330
 Alpha  occ. eigenvalues --   -0.67915  -0.67521  -0.67368  -0.65625  -0.65492
 Alpha  occ. eigenvalues --   -0.65213  -0.64909  -0.64691  -0.64146  -0.64128
 Alpha  occ. eigenvalues --   -0.64052  -0.61713  -0.61631  -0.60901  -0.59986
 Alpha  occ. eigenvalues --   -0.59485  -0.59484  -0.59041  -0.58789  -0.58476
 Alpha  occ. eigenvalues --   -0.58067  -0.57851  -0.57414  -0.57401  -0.56948
 Alpha  occ. eigenvalues --   -0.56452  -0.55893  -0.55757  -0.55501  -0.55052
 Alpha  occ. eigenvalues --   -0.54919  -0.54738  -0.54195  -0.53944  -0.53940
 Alpha  occ. eigenvalues --   -0.53741  -0.53471  -0.53343  -0.53172  -0.53045
 Alpha  occ. eigenvalues --   -0.52771  -0.52730  -0.52540  -0.52344  -0.52023
 Alpha  occ. eigenvalues --   -0.51983  -0.51601  -0.51315  -0.51042  -0.51021
 Alpha  occ. eigenvalues --   -0.50811  -0.50716  -0.50542  -0.50168  -0.50022
 Alpha  occ. eigenvalues --   -0.50012  -0.49826  -0.49511  -0.49466  -0.49276
 Alpha  occ. eigenvalues --   -0.49199  -0.49040  -0.49022  -0.48762  -0.48717
 Alpha  occ. eigenvalues --   -0.48600  -0.48549  -0.48232  -0.48183  -0.47868
 Alpha  occ. eigenvalues --   -0.47747  -0.47597  -0.47410  -0.47376  -0.47194
 Alpha  occ. eigenvalues --   -0.46678  -0.46560  -0.46371  -0.46289  -0.46200
 Alpha  occ. eigenvalues --   -0.46146  -0.45972  -0.45826  -0.45458  -0.45232
 Alpha  occ. eigenvalues --   -0.45202  -0.45198  -0.45056  -0.44893  -0.44715
 Alpha  occ. eigenvalues --   -0.44676  -0.44544  -0.44295  -0.44234  -0.44071
 Alpha  occ. eigenvalues --   -0.43993  -0.43954  -0.43598  -0.43423  -0.43398
 Alpha  occ. eigenvalues --   -0.43130  -0.43099  -0.43037  -0.42724  -0.42633
 Alpha  occ. eigenvalues --   -0.42567  -0.42490  -0.42409  -0.42186  -0.42050
 Alpha  occ. eigenvalues --   -0.41919  -0.41842  -0.41611  -0.41596  -0.41525
 Alpha  occ. eigenvalues --   -0.40783  -0.40729  -0.40602  -0.40422  -0.40167
 Alpha  occ. eigenvalues --   -0.40094  -0.39874  -0.39627  -0.39284  -0.39240
 Alpha  occ. eigenvalues --   -0.38982  -0.38674  -0.38071  -0.37799  -0.37630
 Alpha  occ. eigenvalues --   -0.37345  -0.36817  -0.36496  -0.36337  -0.36306
 Alpha  occ. eigenvalues --   -0.35964  -0.35344  -0.34430  -0.34295  -0.34007
 Alpha  occ. eigenvalues --   -0.33737  -0.33092  -0.33054  -0.32461  -0.31896
 Alpha  occ. eigenvalues --   -0.31463  -0.30869  -0.30788  -0.30732  -0.30289
 Alpha  occ. eigenvalues --   -0.29669  -0.29485  -0.29112  -0.24117  -0.24079
 Alpha  occ. eigenvalues --   -0.21496  -0.21378
 Alpha virt. eigenvalues --   -0.09239  -0.08463  -0.01805  -0.01405  -0.00045
 Alpha virt. eigenvalues --    0.00102   0.01367   0.01794   0.01981   0.02172
 Alpha virt. eigenvalues --    0.05167   0.05211   0.05390   0.05826   0.06078

 Mulliken charges:
               1
     1  Mg   0.835577
     2  C    0.031198
     3  C   -0.057074
     4  C   -0.053483
     5  C   -0.058919
     6  N   -0.269275
     7  C   -0.044953
     8  C    0.001980
     9  C   -0.047173
    10  C   -0.014827
    11  C    0.074623
    12  C    0.034740
    13  C   -0.076587
    14  H    0.020592
    15  N   -0.405743
    16  C    0.178231
    17  C   -0.125135
    18  C   -0.000861
    19  C    0.109740
    20  C    0.101756
    21  C   -0.004292
    22  O   -0.244033
    23  C    0.051034
    24  N   -0.270232
    25  C    0.053245
    26  C   -0.078185
    27  C    0.027886
    28  C   -0.007797
    29  C    0.069543
    30  C    0.031248
    31  C    0.009331
    32  N   -0.344266
    33  C    0.135695
    34  C   -0.189187
    35  C    0.048238
    36  C    0.088874
    37  C    0.113949
    38  C    0.043019
    39  O   -0.170958
    40  C   -0.068805
    41  C    0.209036
    42  O   -0.207537
    43  O   -0.347381
    44  C    0.172025
    45  H   -0.027412
    46  H   -0.004045
    47  H   -0.028287
    48  H    0.008141
    49  H    0.006970
    50  H    0.010130
    51  H    0.012665
    52  H    0.036550
    53  H    0.005611
    54  H    0.014516
    55  H    0.032428
    56  H    0.046717
    57  H    0.016033
    58  H    0.027838
    59  H    0.023620
    60  H    0.009456
    61  H    0.052529
    62  H    0.022999
    63  H    0.010400
    64  H    0.010011
    65  H    0.021277
    66  H    0.019820
    67  H   -0.000291
    68  H    0.007290
    69  H    0.015370
    70  H    0.024407
    71  H    0.019920
    72  H    0.019858
    73  H    0.034812
    74  H   -0.002154
    75  H    0.035979
    76  H    0.036116
    77  H    0.043635
    78  H    0.035870
    79  H    0.046363
    80  Mg   0.828937
    81  C   -0.030248
    82  C   -0.118187
    83  C   -0.096009
    84  C   -0.030476
    85  N   -0.261053
    86  C   -0.046114
    87  C   -0.037661
    88  C   -0.022680
    89  C    0.032209
    90  C    0.082833
    91  C    0.069527
    92  C   -0.053139
    93  H    0.008562
    94  N   -0.381644
    95  C    0.167530
    96  C   -0.137044
    97  C   -0.024691
    98  C    0.115517
    99  C    0.117006
   100  C    0.007348
   101  O   -0.226671
   102  C    0.070484
   103  N   -0.264365
   104  C    0.101554
   105  C   -0.027355
   106  C   -0.054120
   107  C    0.007694
   108  C    0.065029
   109  C    0.060306
   110  C    0.025628
   111  N   -0.347647
   112  C    0.034488
   113  C   -0.140294
   114  C    0.052378
   115  C    0.114907
   116  C    0.104367
   117  C   -0.012323
   118  O   -0.157254
   119  C   -0.046215
   120  C    0.232150
   121  O   -0.211939
   122  O   -0.335419
   123  C    0.185485
   124  H   -0.026031
   125  H   -0.042763
   126  H   -0.041092
   127  H   -0.000706
   128  H    0.006120
   129  H    0.004860
   130  H    0.021646
   131  H    0.031783
   132  H   -0.004014
   133  H    0.028920
   134  H    0.025693
   135  H    0.027222
   136  H   -0.002847
   137  H    0.040987
   138  H    0.035834
   139  H    0.040810
   140  H    0.068756
   141  H    0.028121
   142  H    0.010223
   143  H    0.006684
   144  H    0.011310
   145  H    0.019365
   146  H    0.006912
   147  H    0.016847
   148  H    0.001339
   149  H    0.007794
   150  H    0.022104
   151  H    0.031346
   152  H    0.034230
   153  H    0.016157
   154  H    0.019410
   155  H    0.024874
   156  H    0.038242
   157  H    0.041730
   158  H    0.026738
 Sum of Mulliken charges =  -0.00000

 Dipole moment (field-independent basis, Debye):
    X=             -0.3857    Y=              7.6046    Z=              5.2063  Tot=              9.2241
 Quadrupole moment (field-independent basis, Debye-Ang):
   XX=           -490.4165   YY=           -528.0067   ZZ=           -504.1929
   XY=            -37.6592   XZ=            -22.2860   YZ=             12.9555

 Normal termination of Gaussian 16 at Wed Sep  1 09:43:36 2021.
