 Gaussian 16, Revision A.03,
 Gaussian 16:  ES64L-G16RevA.03 25-Dec-2016

 -----------------------------------
 #p cam-b3lyp/Def2SVP td=(nstates=5)
 -----------------------------------

 --------------------------------
 TDDFT excited states in gaussian
 --------------------------------
 Symbolic Z-matrix:
 Charge =  0 Multiplicity = 1

                         Standard orientation:
 ---------------------------------------------------------------------
 Center     Atomic      Atomic             Coordinates (Angstroms)
 Number     Number       Type             X           Y           Z
 ---------------------------------------------------------------------
      1         12           0      -24.484418   -0.675722    0.006907
      2          6           0      -22.806957    2.488013   -0.988288
      3          6           0      -24.334604    0.612374    3.128169
      4          6           0      -25.647710   -3.522003    0.777010
      5          6           0      -23.646872   -1.860989   -3.243875
      6          7           0      -23.617031    1.287502    0.922261
      7          6           0      -23.176908    2.447893    0.308293
      8          6           0      -23.061475    3.659244    1.240669
      9          6           0      -23.113218    2.909170    2.607438
     10          6           0      -23.719622    1.500002    2.239296
     11          6           0      -21.799971    2.776602    3.312218
     12          6           0      -24.106327    4.809744    1.052145
     13          6           0      -23.683639    6.203038    1.378933
     14          1           0      -24.756612    7.076469    2.021319
     15          7           0      -24.995053   -1.385010    1.756149
     16          6           0      -24.924105   -0.684667    2.978567
     17          6           0      -25.587089   -1.477437    3.973471
     18          6           0      -26.105301   -2.619705    3.221576
     19          6           0      -25.591605   -2.516773    1.903490
     20          6           0      -25.827084   -1.040927    5.466022
     21          6           0      -26.999668   -3.685625    3.776771
     22          8           0      -27.359597   -4.675490    3.094112
     23          6           0      -27.570898   -3.636459    5.146762
     24          7           0      -24.506614   -2.500701   -0.972372
     25          6           0      -25.083909   -3.580478   -0.441561
     26          6           0      -25.109736   -4.818422   -1.394396
     27          6           0      -24.878383   -4.071480   -2.760601
     28          6           0      -24.255414   -2.720366   -2.314586
     29          6           0      -23.956432   -5.826539   -1.085542
     30          6           0      -26.233724   -3.813291   -3.543609
     31          6           0      -27.178085   -4.998258   -3.835894
     32          7           0      -23.488616    0.127001   -1.780392
     33          6           0      -23.304347   -0.479124   -3.017885
     34          6           0      -22.598115    0.421607   -3.898588
     35          6           0      -22.420083    1.598992   -3.160975
     36          6           0      -22.896866    1.359383   -1.842929
     37          6           0      -22.276202    0.197794   -5.337898
     38          6           0      -21.891235    2.954815   -3.231432
     39          8           0      -21.391434    3.626732   -4.124002
     40          6           0      -22.245367    3.575721   -1.782134
     41          6           0      -21.004864    4.149642   -1.289713
     42          8           0      -19.953355    3.542658   -1.032457
     43          8           0      -21.026931    5.486184   -1.568436
     44          6           0      -19.890650    6.287874   -1.244987
     45          1           0      -24.387101    1.147329    4.078894
     46          1           0      -26.043897   -4.515176    0.997749
     47          1           0      -23.431772   -2.275750   -4.231259
     48          1           0      -22.062413    4.073578    1.103720
     49          1           0      -23.872399    3.346622    3.255131
     50          1           0      -21.489621    1.736568    3.211443
     51          1           0      -21.935499    2.959340    4.378114
     52          1           0      -20.978328    3.400282    2.960594
     53          1           0      -24.934215    4.595238    1.727331
     54          1           0      -24.491933    4.732368    0.035926
     55          1           0      -23.418897    6.621359    0.408049
     56          1           0      -22.712301    6.241733    1.872183
     57          1           0      -26.848243   -0.751878    5.712824
     58          1           0      -25.125971   -0.264293    5.770428
     59          1           0      -25.543075   -1.949117    5.999103
     60          1           0      -26.782180   -3.892897    5.854518
     61          1           0      -28.359028   -4.389754    5.162279
     62          1           0      -28.006176   -2.644606    5.264056
     63          1           0      -26.089445   -5.277347   -1.257297
     64          1           0      -24.176054   -4.545954   -3.445284
     65          1           0      -24.432743   -6.729639   -0.703099
     66          1           0      -23.174472   -5.466037   -0.417990
     67          1           0      -23.560926   -6.014554   -2.084713
     68          1           0      -25.990243   -3.429672   -4.534108
     69          1           0      -26.731629   -2.997263   -3.020182
     70          1           0      -28.119174   -4.722867   -3.360095
     71          1           0      -26.727483   -5.833793   -3.299458
     72          1           0      -27.333877   -5.157572   -4.902770
     73          1           0      -22.876803   -0.668804   -5.615232
     74          1           0      -21.212783   -0.038543   -5.374024
     75          1           0      -22.436963    1.070268   -5.971155
     76          1           0      -23.011966    4.342541   -1.892053
     77          1           0      -19.109798    5.704713   -0.756336
     78          1           0      -20.258474    7.020205   -0.526201
     79          1           0      -19.553540    6.862549   -2.106485
     80         12           0       24.414612   -0.694923    0.169759
     81          6           0       22.172531    1.962124    0.832864
     82          6           0       26.646772    1.588627   -0.922086
     83          6           0       26.393151   -3.201547   -0.551718
     84          6           0       21.652447   -2.929889    0.662930
     85          7           0       24.396855    1.565963   -0.133516
     86          6           0       23.460797    2.397778    0.457798
     87          6           0       24.033313    3.773896    0.439411
     88          6           0       25.156117    3.715274   -0.596781
     89          6           0       25.476561    2.199858   -0.566310
     90          6           0       24.632304    4.142958   -2.018897
     91          6           0       24.558227    4.365838    1.855975
     92          6           0       24.259316    5.843424    2.255035
     93          1           0       24.581793    6.934699    1.193627
     94          7           0       26.289667   -0.755155   -0.653402
     95          6           0       27.011897    0.268567   -1.001906
     96          6           0       28.276589   -0.230624   -1.569048
     97          6           0       28.344671   -1.628359   -1.285417
     98          6           0       26.959985   -1.935012   -0.826877
     99          6           0       29.406994    0.573467   -2.308661
    100          6           0       29.485181   -2.637710   -1.413139
    101          8           0       29.359023   -3.864432   -1.235954
    102          6           0       30.749569   -2.183859   -1.971530
    103          7           0       23.974053   -2.814987   -0.088833
    104          6           0       25.052895   -3.671944   -0.290089
    105          6           0       24.572607   -5.157868   -0.067377
    106          6           0       23.120751   -4.989067    0.445648
    107          6           0       22.894986   -3.476896    0.380289
    108          6           0       24.784867   -6.044825   -1.294498
    109          6           0       22.792752   -5.659463    1.803517
    110          6           0       21.414292   -6.344116    1.954689
    111          7           0       22.338182   -0.572345    0.629913
    112          6           0       21.342605   -1.537180    0.746600
    113          6           0       20.143516   -0.901879    1.230890
    114          6           0       20.409111    0.468278    1.222251
    115          6           0       21.772200    0.653957    0.861508
    116          6           0       18.959785   -1.531985    1.645643
    117          6           0       19.874244    1.803154    1.528875
    118          8           0       18.798061    2.186561    1.959237
    119          6           0       21.031521    2.830818    1.305269
    120          6           0       20.536558    3.855744    0.300392
    121          8           0       20.490205    3.880745   -0.908670
    122          8           0       20.209133    4.903825    1.111243
    123          6           0       20.001387    6.227654    0.477364
    124          1           0       27.411134    2.319527   -1.195501
    125          1           0       27.144812   -3.991771   -0.605363
    126          1           0       20.872398   -3.598430    1.031860
    127          1           0       23.356140    4.569478    0.127631
    128          1           0       26.068471    4.204874   -0.257061
    129          1           0       25.379839    4.644584   -2.632513
    130          1           0       23.848979    4.900263   -1.978987
    131          1           0       24.367309    3.207810   -2.511041
    132          1           0       25.618577    4.142009    1.968116
    133          1           0       24.149551    3.769660    2.672698
    134          1           0       24.972688    6.009552    3.063069
    135          1           0       23.206923    5.785638    2.533042
    136          1           0       30.347171    0.664694   -1.765217
    137          1           0       29.008709    1.569244   -2.505352
    138          1           0       29.777027    0.117084   -3.226790
    139          1           0       31.133159   -1.324954   -1.420223
    140          1           0       30.636415   -1.921174   -3.023411
    141          1           0       31.484976   -2.957438   -1.752674
    142          1           0       25.126801   -5.523376    0.797262
    143          1           0       22.407109   -5.313422   -0.311474
    144          1           0       23.900119   -5.991134   -1.929734
    145          1           0       24.880156   -7.107719   -1.074812
    146          1           0       25.535122   -5.585645   -1.937370
    147          1           0       22.953089   -5.014594    2.667401
    148          1           0       23.525674   -6.430910    2.043522
    149          1           0       20.802815   -5.597666    2.461859
    150          1           0       21.589315   -7.165630    2.650113
    151          1           0       21.021209   -6.618685    0.976196
    152          1           0       18.018960   -0.982046    1.642708
    153          1           0       19.159788   -1.952682    2.631597
    154          1           0       18.797430   -2.335744    0.928422
    155          1           0       21.299749    3.302097    2.250632
    156          1           0       20.518803    6.928402    1.131972
    157          1           0       18.968533    6.564311    0.391736
    158          1           0       20.477780    6.249712   -0.502419
 ---------------------------------------------------------------------

 SCF Done:  E(RCAM-B3LYP) =  -4069.80157739     A.U. after   17 cycles

 Excitation energies and oscillator strengths:

 Excited State   1:      Singlet-A      1.6590 eV  747.35 nm  f=0.3889  <S**2>=0.000
     309 -> 316       -0.15615
     311 -> 313        0.69165
     309 <- 316       -0.10434
 This state for optimization and/or second-order correction.
 Total Energy, E(TD-HF/TD-DFT) =  -4069.74061076
 Copying the excited state density for this state as the 1-particle RhoCI density.

 Excited State   2:      Singlet-A      1.7330 eV  715.44 nm  f=0.3847  <S**2>=0.000
     310 -> 315        0.19057
     312 -> 314        0.68153
     310 <- 315        0.10758

 Excited State   3:      Singlet-A      2.1782 eV  569.22 nm  f=0.2155  <S**2>=0.000
     309 -> 313        0.66760
     311 -> 316        0.21706

 Excited State   4:      Singlet-A      2.2617 eV  548.20 nm  f=0.0688  <S**2>=0.000
     310 -> 314        0.62175
     312 -> 315       -0.32226

 Excited State   5:      Singlet-A      2.8837 eV  429.95 nm  f=0.0000  <S**2>=0.000
     312 -> 313        0.70711

 The electronic state is 1-A.
 Alpha  occ. eigenvalues --  -46.89357 -46.88883 -19.24792 -19.24345 -19.20017
 Alpha  occ. eigenvalues --  -19.19876 -19.19401 -19.19246 -19.18668 -19.17422
 Alpha  occ. eigenvalues --  -14.42294 -14.41765 -14.41417 -14.41412 -14.39846
 Alpha  occ. eigenvalues --  -14.39691 -14.39557 -14.38942 -10.39219 -10.39126
 Alpha  occ. eigenvalues --  -10.35962 -10.35512 -10.34802 -10.33979 -10.31686
 Alpha  occ. eigenvalues --  -10.31439 -10.31394 -10.31103 -10.30801 -10.30788
 Alpha  occ. eigenvalues --  -10.30738 -10.30719 -10.30684 -10.30437 -10.30350
 Alpha  occ. eigenvalues --  -10.30328 -10.30029 -10.29974 -10.29854 -10.29837
 Alpha  occ. eigenvalues --  -10.29531 -10.29441 -10.29059 -10.29043 -10.28942
 Alpha  occ. eigenvalues --  -10.28296 -10.28200 -10.28107 -10.28101 -10.28096
 Alpha  occ. eigenvalues --  -10.28000 -10.27986 -10.27910 -10.27905 -10.27884
 Alpha  occ. eigenvalues --  -10.27755 -10.27699 -10.27655 -10.27569 -10.27520
 Alpha  occ. eigenvalues --  -10.27469 -10.27409 -10.27370 -10.27342 -10.27302
 Alpha  occ. eigenvalues --  -10.27170 -10.27037 -10.26701 -10.26677 -10.26527
 Alpha  occ. eigenvalues --  -10.26377 -10.26359 -10.26193 -10.26178 -10.26039
 Alpha  occ. eigenvalues --  -10.25929 -10.25791 -10.25716 -10.25700 -10.25614
 Alpha  occ. eigenvalues --  -10.25607 -10.25583 -10.25526 -10.25523 -10.25243
 Alpha  occ. eigenvalues --  -10.24783  -3.17745  -3.17545  -1.92642  -1.92414
 Alpha  occ. eigenvalues --   -1.92202  -1.92037  -1.91996  -1.91867  -1.16520
 Alpha  occ. eigenvalues --   -1.16101  -1.10210  -1.09577  -1.09352  -1.07746
 Alpha  occ. eigenvalues --   -1.07454  -1.07002  -1.05140  -1.04900  -1.04020
 Alpha  occ. eigenvalues --   -1.03927  -1.03647  -1.03042  -1.02520  -1.02056
 Alpha  occ. eigenvalues --   -0.93689  -0.92753  -0.89540  -0.88867  -0.88784
 Alpha  occ. eigenvalues --   -0.88464  -0.88033  -0.87972  -0.87549  -0.87448
 Alpha  occ. eigenvalues --   -0.87114  -0.86871  -0.86825  -0.86228  -0.84729
 Alpha  occ. eigenvalues --   -0.84219  -0.84026  -0.83578  -0.83133  -0.82719
 Alpha  occ. eigenvalues --   -0.82455  -0.82061  -0.81488  -0.81051  -0.80840
 Alpha  occ. eigenvalues --   -0.80582  -0.78554  -0.78373  -0.77475  -0.77437
 Alpha  occ. eigenvalues --   -0.77274  -0.77019  -0.76212  -0.75847  -0.75432
 Alpha  occ. eigenvalues --   -0.75104  -0.73345  -0.72494  -0.71803  -0.70931
 Alpha  occ. eigenvalues --   -0.69278  -0.68884  -0.68739  -0.68633  -0.68160
 Alpha  occ. eigenvalues --   -0.67684  -0.67352  -0.66929  -0.65688  -0.65462
 Alpha  occ. eigenvalues --   -0.65296  -0.65123  -0.65034  -0.64890  -0.64466
 Alpha  occ. eigenvalues --   -0.64314  -0.62042  -0.61924  -0.60739  -0.60468
 Alpha  occ. eigenvalues --   -0.59768  -0.59591  -0.59510  -0.59221  -0.58849
 Alpha  occ. eigenvalues --   -0.58385  -0.58306  -0.57929  -0.57668  -0.57487
 Alpha  occ. eigenvalues --   -0.56140  -0.55893  -0.55883  -0.55619  -0.55189
 Alpha  occ. eigenvalues --   -0.54872  -0.54613  -0.54448  -0.54186  -0.53686
 Alpha  occ. eigenvalues --   -0.53685  -0.53554  -0.53233  -0.53219  -0.53211
 Alpha  occ. eigenvalues --   -0.52935  -0.52862  -0.52549  -0.52414  -0.52403
 Alpha  occ. eigenvalues --   -0.52107  -0.51747  -0.51670  -0.51555  -0.51408
 Alpha  occ. eigenvalues --   -0.51213  -0.51190  -0.51009  -0.50786  -0.50399
 Alpha  occ. eigenvalues --   -0.50289  -0.49963  -0.49894  -0.49835  -0.49707
 Alpha  occ. eigenvalues --   -0.49595  -0.49483  -0.49345  -0.49198  -0.48970
 Alpha  occ. eigenvalues --   -0.48823  -0.48722  -0.48317  -0.48163  -0.48140
 Alpha  occ. eigenvalues --   -0.47848  -0.47647  -0.47560  -0.47376  -0.47251
 Alpha  occ. eigenvalues --   -0.47118  -0.46881  -0.46635  -0.46515  -0.46372
 Alpha  occ. eigenvalues --   -0.46241  -0.46185  -0.45938  -0.45906  -0.45535
 Alpha  occ. eigenvalues --   -0.45383  -0.45105  -0.45018  -0.44965  -0.44913
 Alpha  occ. eigenvalues --   -0.44827  -0.44678  -0.44352  -0.44338  -0.44033
 Alpha  occ. eigenvalues --   -0.43939  -0.43834  -0.43693  -0.43671  -0.43261
 Alpha  occ. eigenvalues --   -0.43079  -0.43004  -0.42953  -0.42834  -0.42707
 Alpha  occ. eigenvalues --   -0.42672  -0.42291  -0.42148  -0.42100  -0.42000
 Alpha  occ. eigenvalues --   -0.41903  -0.41619  -0.41526  -0.41326  -0.41226
 Alpha  occ. eigenvalues --   -0.40853  -0.40673  -0.40623  -0.40538  -0.40234
 Alpha  occ. eigenvalues --   -0.39841  -0.39802  -0.39598  -0.39475  -0.39255
 Alpha  occ. eigenvalues --   -0.38761  -0.38567  -0.38229  -0.37751  -0.37651
 Alpha  occ. eigenvalues --   -0.37380  -0.37171  -0.36511  -0.36435  -0.36391
 Alpha  occ. eigenvalues --   -0.35916  -0.35809  -0.34649  -0.34602  -0.34298
 Alpha  occ. eigenvalues --   -0.33886  -0.33123  -0.33088  -0.31675  -0.31555
 Alpha  occ. eigenvalues --   -0.31384  -0.31157  -0.30546  -0.30449  -0.30120
 Alpha  occ. eigenvalues --   -0.29878  -0.29796  -0.29245  -0.24258  -0.23956
 Alpha  occ. eigenvalues --   -0.21716  -0.20956
 Alpha virt. eigenvalues --   -0.09645  -0.08264  -0.02046  -0.00764  -0.00124
 Alpha virt. eigenvalues --    0.00304   0.01755   0.01763   0.02267   0.02333
 Alpha virt. eigenvalues --    0.03942   0.04988   0.05208   0.05794   0.05983

 Mulliken charges:
               1
     1  Mg   0.846897
     2  C    0.005399
     3  C   -0.055082
     4  C   -0.031313
     5  C   -0.072615
     6  N   -0.231491
     7  C   -0.075650
     8  C   -0.050076
     9  C   -0.049640
    10  C   -0.041722
    11  C    0.095459
    12  C    0.083141
    13  C   -0.058008
    14  H    0.037226
    15  N   -0.406892
    16  C    0.180159
    17  C   -0.159266
    18  C   -0.027501
    19  C    0.117512
    20  C    0.116960
    21  C   -0.040723
    22  O   -0.244793
    23  C    0.073569
    24  N   -0.320042
    25  C    0.020725
    26  C   -0.057377
    27  C   -0.052507
    28  C    0.068247
    29  C    0.098073
    30  C    0.007928
    31  C    0.024829
    32  N   -0.315194
    33  C    0.105929
    34  C   -0.190299
    35  C    0.005590
    36  C    0.086732
    37  C    0.131690
    38  C    0.079947
    39  O   -0.155704
    40  C    0.008079
    41  C    0.184143
    42  O   -0.240385
    43  O   -0.318926
    44  C    0.170246
    45  H   -0.033461
    46  H   -0.013456
    47  H   -0.020853
    48  H    0.010354
    49  H   -0.000329
    50  H    0.022619
    51  H    0.011699
    52  H    0.026566
    53  H    0.008142
    54  H    0.007382
    55  H    0.024556
    56  H    0.021042
    57  H    0.046314
    58  H    0.017073
    59  H    0.021989
    60  H    0.041819
    61  H    0.028548
    62  H    0.025065
    63  H    0.021969
    64  H   -0.000182
    65  H    0.023660
    66  H    0.038041
    67  H    0.007178
    68  H   -0.000296
    69  H    0.009442
    70  H    0.020154
    71  H    0.016599
    72  H    0.025515
    73  H    0.010482
    74  H    0.036179
    75  H    0.041387
    76  H    0.041945
    77  H    0.049501
    78  H    0.016021
    79  H    0.044064
    80  Mg   0.808026
    81  C   -0.037983
    82  C   -0.089796
    83  C   -0.053010
    84  C   -0.086822
    85  N   -0.255077
    86  C    0.011454
    87  C   -0.052150
    88  C   -0.029233
    89  C   -0.033327
    90  C    0.087634
    91  C    0.015899
    92  C   -0.056954
    93  H    0.015484
    94  N   -0.338736
    95  C    0.178088
    96  C   -0.150805
    97  C   -0.029488
    98  C    0.090551
    99  C    0.102823
   100  C    0.020427
   101  O   -0.219868
   102  C    0.059549
   103  N   -0.286781
   104  C    0.009227
   105  C   -0.007532
   106  C   -0.009740
   107  C    0.041936
   108  C    0.096741
   109  C    0.007909
   110  C    0.017129
   111  N   -0.353025
   112  C    0.116914
   113  C   -0.178598
   114  C    0.026964
   115  C    0.138528
   116  C    0.109206
   117  C    0.030105
   118  O   -0.162835
   119  C   -0.011626
   120  C    0.215719
   121  O   -0.195401
   122  O   -0.342979
   123  C    0.168205
   124  H   -0.039327
   125  H   -0.000883
   126  H   -0.036906
   127  H    0.002004
   128  H   -0.005767
   129  H    0.006473
   130  H    0.024722
   131  H    0.035963
   132  H   -0.001578
   133  H   -0.000269
   134  H    0.042165
   135  H    0.049216
   136  H    0.021983
   137  H    0.018331
   138  H    0.019677
   139  H    0.017014
   140  H    0.053765
   141  H    0.028141
   142  H    0.011532
   143  H    0.009137
   144  H   -0.005868
   145  H    0.023804
   146  H    0.026162
   147  H   -0.000026
   148  H   -0.001200
   149  H    0.023411
   150  H    0.015931
   151  H    0.024100
   152  H    0.035028
   153  H    0.030441
   154  H    0.016883
   155  H    0.051170
   156  H    0.029847
   157  H    0.045953
   158  H    0.042218
 Sum of Mulliken charges =  -0.00000

 Dipole moment (field-independent basis, Debye):
    X=              2.0061    Y=              1.8947    Z=              3.4127  Tot=              4.3888
 Quadrupole moment (field-independent basis, Debye-Ang):
   XX=           -237.8982   YY=           -487.3315   ZZ=           -496.6439
   XY=              5.1562   XZ=            -14.6510   YZ=             23.3505

 Normal termination of Gaussian 16 at Tue Sep 14 20:40:48 2021.
