 Gaussian 16, Revision A.03,
 Gaussian 16:  ES64L-G16RevA.03 25-Dec-2016

 ----------------------------------------------------------
 #p cam-b3lyp/Def2SVP td=(nstates=5) density=(transition=1)
 ----------------------------------------------------------

 --------------------------------
 TDDFT excited states in gaussian
 --------------------------------
 Symbolic Z-matrix:
 Charge =  0 Multiplicity = 1

                         Standard orientation:
 ---------------------------------------------------------------------
 Center     Atomic      Atomic             Coordinates (Angstroms)
 Number     Number       Type             X           Y           Z
 ---------------------------------------------------------------------
      1         12           0      -25.871994    0.264919   -0.162046
      2          6           0      -22.941611   -1.375292    0.583898
      3          6           0      -27.463352   -1.132088    2.529303
      4          6           0      -28.781923    2.096932   -0.830967
      5          6           0      -24.178329    2.346091   -2.336081
      6          7           0      -25.125496   -0.941166    1.477889
      7          6           0      -23.939122   -1.677974    1.530022
      8          6           0      -23.864987   -2.530478    2.799279
      9          6           0      -25.360737   -2.511434    3.204726
     10          6           0      -26.054529   -1.384696    2.412109
     11          6           0      -26.031940   -3.899130    3.110526
     12          6           0      -22.921423   -1.923140    3.856250
     13          6           0      -21.984067   -2.918583    4.623190
     14          1           0      -21.643053   -2.553139    6.014983
     15          7           0      -27.812650    0.399091    0.685629
     16          6           0      -28.300517   -0.315689    1.725291
     17          6           0      -29.720771   -0.197110    1.867514
     18          6           0      -30.160980    0.629137    0.820450
     19          6           0      -28.881096    1.076755    0.130186
     20          6           0      -30.557491   -0.986663    2.876242
     21          6           0      -31.641969    1.046213    0.499562
     22          8           0      -32.549699    0.683227    1.290744
     23          6           0      -32.073461    1.830495   -0.813582
     24          7           0      -26.337676    2.176822   -1.188961
     25          6           0      -27.603283    2.600020   -1.425290
     26          6           0      -27.674859    3.684498   -2.469478
     27          6           0      -26.208854    3.820332   -2.934407
     28          6           0      -25.525315    2.698518   -2.148472
     29          6           0      -28.714572    3.426292   -3.609991
     30          6           0      -25.619606    5.299025   -2.747536
     31          6           0      -25.483694    6.102413   -4.046161
     32          7           0      -23.974289    0.443586   -0.821956
     33          6           0      -23.379922    1.323609   -1.753005
     34          6           0      -22.022417    0.855834   -2.062696
     35          6           0      -21.864757   -0.235023   -1.219182
     36          6           0      -23.020189   -0.338551   -0.427258
     37          6           0      -21.013347    1.399488   -3.009722
     38          6           0      -20.908257   -1.271008   -0.804053
     39          8           0      -19.844207   -1.664721   -1.309461
     40          6           0      -21.589816   -2.090760    0.363841
     41          6           0      -21.765561   -3.555166   -0.015018
     42          8           0      -22.189738   -4.012881   -1.080831
     43          8           0      -21.279659   -4.223797    1.069102
     44          6           0      -21.150117   -5.665370    0.937857
     45          1           0      -27.983566   -1.575620    3.380730
     46          1           0      -29.636816    2.673676   -1.190254
     47          1           0      -23.586506    2.959870   -3.018087
     48          1           0      -23.487059   -3.522799    2.550936
     49          1           0      -25.328768   -2.236257    4.258890
     50          1           0      -25.413988   -4.796884    3.125551
     51          1           0      -26.511845   -3.923478    2.132277
     52          1           0      -26.771987   -4.052979    3.895518
     53          1           0      -23.442886   -1.296416    4.579199
     54          1           0      -22.358249   -1.158704    3.320380
     55          1           0      -21.055757   -3.031737    4.063313
     56          1           0      -22.496702   -3.877827    4.707516
     57          1           0      -31.293795   -1.528636    2.283189
     58          1           0      -30.876930   -0.328077    3.684000
     59          1           0      -29.870922   -1.738567    3.265195
     60          1           0      -31.923523    2.887184   -0.595286
     61          1           0      -33.135044    1.626791   -0.951796
     62          1           0      -31.568269    1.335329   -1.643296
     63          1           0      -27.990559    4.603702   -1.975855
     64          1           0      -25.988469    3.485027   -3.947598
     65          1           0      -28.291690    3.633489   -4.592633
     66          1           0      -29.613789    4.032708   -3.503042
     67          1           0      -29.084919    2.405275   -3.527745
     68          1           0      -24.607286    5.296037   -2.343639
     69          1           0      -26.203273    5.841758   -2.004061
     70          1           0      -25.756271    7.142200   -3.864616
     71          1           0      -26.145730    5.687618   -4.805957
     72          1           0      -24.480298    6.089543   -4.471357
     73          1           0      -21.491822    2.203752   -3.568615
     74          1           0      -20.516354    0.582493   -3.533182
     75          1           0      -20.278022    1.918862   -2.394255
     76          1           0      -21.043786   -2.007370    1.303898
     77          1           0      -22.013861   -6.147020    0.477774
     78          1           0      -20.930631   -6.228337    1.845027
     79          1           0      -20.288590   -5.900302    0.312290
     80         12           0       26.068218    0.519115    0.136902
     81          6           0       23.174517   -1.136788   -1.110717
     82          6           0       27.964934   -2.103195   -1.024365
     83          6           0       28.629873    2.170191    1.413912
     84          6           0       23.927698    2.926020    1.731991
     85          7           0       25.611405   -1.502543   -0.920961
     86          6           0       24.356104   -1.843690   -1.390162
     87          6           0       24.538005   -3.182834   -2.183682
     88          6           0       26.119107   -3.534209   -2.123317
     89          6           0       26.585542   -2.327798   -1.302160
     90          6           0       26.484927   -4.927786   -1.571410
     91          6           0       23.886644   -3.260261   -3.626084
     92          6           0       22.883094   -4.358055   -3.828534
     93          1           0       22.903323   -5.658489   -3.069415
     94          7           0       28.132254    0.133808    0.075430
     95          6           0       28.687912   -0.996334   -0.436252
     96          6           0       30.111660   -0.779490   -0.414502
     97          6           0       30.330497    0.377372    0.364217
     98          6           0       29.002108    0.982915    0.704863
     99          6           0       31.059492   -1.830670   -1.016245
    100          6           0       31.639626    0.872454    0.900178
    101          8           0       31.700646    1.850067    1.682993
    102          6           0       32.889203    0.156160    0.543920
    103          7           0       26.189052    2.294087    1.468455
    104          6           0       27.343653    2.783657    1.759748
    105          6           0       27.363536    4.180413    2.581847
    106          6           0       25.845510    4.390987    2.688653
    107          6           0       25.284484    3.197149    1.955589
    108          6           0       28.113479    3.976545    3.949020
    109          6           0       25.275925    5.740893    2.126867
    110          6           0       25.250451    5.893913    0.587496
    111          7           0       24.051651    0.753077    0.381272
    112          6           0       23.358347    1.769622    1.079544
    113          6           0       21.921545    1.580500    0.837557
    114          6           0       21.807865    0.460600   -0.020791
    115          6           0       23.141420    0.012504   -0.308119
    116          6           0       20.783632    2.485749    1.397276
    117          6           0       20.879643   -0.292531   -0.682404
    118          8           0       19.665824   -0.266882   -0.695659
    119          6           0       21.679494   -1.351630   -1.491246
    120          6           0       21.169041   -2.661715   -1.159221
    121          8           0       21.567610   -3.356681   -0.217766
    122          8           0       20.011955   -2.919548   -1.903884
    123          6           0       19.294167   -4.156675   -1.508431
    124          1           0       28.633865   -2.962186   -1.113165
    125          1           0       29.466774    2.607959    1.962159
    126          1           0       23.232832    3.631828    2.191724
    127          1           0       23.884192   -3.807772   -1.576715
    128          1           0       26.510658   -3.560508   -3.139251
    129          1           0       27.094336   -5.478546   -2.289061
    130          1           0       25.657824   -5.565156   -1.259200
    131          1           0       27.072030   -4.707346   -0.679881
    132          1           0       24.666147   -3.350003   -4.382925
    133          1           0       23.339685   -2.324645   -3.742782
    134          1           0       23.109919   -4.803654   -4.797739
    135          1           0       21.889544   -3.915541   -3.766166
    136          1           0       30.539994   -2.517061   -1.685288
    137          1           0       31.534927   -2.396426   -0.216035
    138          1           0       31.794214   -1.246361   -1.569268
    139          1           0       32.958326    0.164651   -0.543870
    140          1           0       32.850489   -0.889257    0.852429
    141          1           0       33.744257    0.598163    1.053819
    142          1           0       27.826555    4.977325    1.999390
    143          1           0       25.522324    4.193373    3.710966
    144          1           0       27.974298    2.938765    4.251781
    145          1           0       27.628230    4.603628    4.697783
    146          1           0       29.181947    4.190845    3.983913
    147          1           0       25.736505    6.580324    2.646792
    148          1           0       24.252006    5.835352    2.487131
    149          1           0       26.044328    5.396555    0.031282
    150          1           0       25.184072    6.957371    0.355047
    151          1           0       24.287740    5.484039    0.282455
    152          1           0       20.076638    2.807696    0.632609
    153          1           0       21.152148    3.356220    1.938853
    154          1           0       20.084019    1.866195    1.958907
    155          1           0       21.422926   -1.081134   -2.514977
    156          1           0       18.841399   -4.038951   -0.524260
    157          1           0       19.928161   -5.038366   -1.422078
    158          1           0       18.646492   -4.414931   -2.346415
 ---------------------------------------------------------------------

 SCF Done:  E(RCAM-B3LYP) =  -4069.82645589     A.U. after   19 cycles

 Excitation energies and oscillator strengths:

 Excited State   1:      Singlet-A      1.7087 eV  725.59 nm  f=0.3710  <S**2>=0.000
     309 -> 315       -0.17445
     312 -> 313        0.68606
     309 <- 315       -0.10518
 This state for optimization and/or second-order correction.
 Total Energy, E(TD-HF/TD-DFT) =  -4069.76366105
 Copying the excited state density for this state as the 1-particle RhoCI density.

 Excited State   2:      Singlet-A      1.7535 eV  707.05 nm  f=0.3681  <S**2>=0.000
     310 -> 316        0.18837
     311 -> 314        0.68190
     310 <- 316        0.10757

 Excited State   3:      Singlet-A      2.2093 eV  561.19 nm  f=0.1088  <S**2>=0.000
     310 -> 314        0.64208
     311 -> 316       -0.28089

 Excited State   4:      Singlet-A      2.2475 eV  551.65 nm  f=0.0932  <S**2>=0.000
     309 -> 313        0.62547
     312 -> 315        0.31551

 Excited State   5:      Singlet-A      3.2340 eV  383.37 nm  f=0.0000  <S**2>=0.000
     312 -> 314        0.70710

 The electronic state is 1-A.
 Alpha  occ. eigenvalues --  -46.89798 -46.89161 -19.26346 -19.24246 -19.20249
 Alpha  occ. eigenvalues --  -19.19673 -19.19272 -19.18754 -19.18431 -19.17505
 Alpha  occ. eigenvalues --  -14.42656 -14.42394 -14.42160 -14.41863 -14.40215
 Alpha  occ. eigenvalues --  -14.39745 -14.39657 -14.39095 -10.39940 -10.38590
 Alpha  occ. eigenvalues --  -10.36665 -10.35049 -10.34737 -10.33280 -10.32186
 Alpha  occ. eigenvalues --  -10.32033 -10.31884 -10.31699 -10.31579 -10.31398
 Alpha  occ. eigenvalues --  -10.31171 -10.31081 -10.31079 -10.30878 -10.30765
 Alpha  occ. eigenvalues --  -10.30466 -10.30386 -10.30182 -10.29835 -10.29661
 Alpha  occ. eigenvalues --  -10.29341 -10.28806 -10.28797 -10.28756 -10.28480
 Alpha  occ. eigenvalues --  -10.28465 -10.28357 -10.28337 -10.28145 -10.28086
 Alpha  occ. eigenvalues --  -10.28039 -10.28007 -10.28001 -10.27969 -10.27962
 Alpha  occ. eigenvalues --  -10.27959 -10.27957 -10.27931 -10.27900 -10.27729
 Alpha  occ. eigenvalues --  -10.27697 -10.27669 -10.27597 -10.27460 -10.27386
 Alpha  occ. eigenvalues --  -10.27316 -10.27282 -10.27209 -10.27116 -10.27006
 Alpha  occ. eigenvalues --  -10.26975 -10.26902 -10.26723 -10.26579 -10.26555
 Alpha  occ. eigenvalues --  -10.26338 -10.26311 -10.26268 -10.26040 -10.25983
 Alpha  occ. eigenvalues --  -10.25957 -10.25952 -10.25853 -10.25750 -10.24573
 Alpha  occ. eigenvalues --  -10.23877  -3.18134  -3.17693  -1.93048  -1.92624
 Alpha  occ. eigenvalues --   -1.92559  -1.92390  -1.92136  -1.92024  -1.16821
 Alpha  occ. eigenvalues --   -1.14333  -1.09226  -1.08606  -1.08446  -1.08344
 Alpha  occ. eigenvalues --   -1.07736  -1.06289  -1.06091  -1.04661  -1.03990
 Alpha  occ. eigenvalues --   -1.03679  -1.03506  -1.03013  -1.02137  -1.01683
 Alpha  occ. eigenvalues --   -0.92261  -0.91405  -0.89729  -0.88863  -0.88824
 Alpha  occ. eigenvalues --   -0.88680  -0.88265  -0.87806  -0.87265  -0.87233
 Alpha  occ. eigenvalues --   -0.86973  -0.86772  -0.86379  -0.85457  -0.84302
 Alpha  occ. eigenvalues --   -0.84299  -0.83882  -0.83353  -0.82518  -0.82493
 Alpha  occ. eigenvalues --   -0.82205  -0.81626  -0.81107  -0.80654  -0.80177
 Alpha  occ. eigenvalues --   -0.80028  -0.78303  -0.77924  -0.77559  -0.77464
 Alpha  occ. eigenvalues --   -0.76730  -0.76423  -0.75874  -0.75708  -0.75280
 Alpha  occ. eigenvalues --   -0.74959  -0.72692  -0.72503  -0.71711  -0.71538
 Alpha  occ. eigenvalues --   -0.70447  -0.69184  -0.69017  -0.68955  -0.67870
 Alpha  occ. eigenvalues --   -0.67819  -0.67238  -0.66894  -0.66116  -0.65296
 Alpha  occ. eigenvalues --   -0.65063  -0.64979  -0.64886  -0.64623  -0.64542
 Alpha  occ. eigenvalues --   -0.64215  -0.62672  -0.61396  -0.60208  -0.59932
 Alpha  occ. eigenvalues --   -0.59581  -0.59483  -0.58908  -0.58593  -0.58585
 Alpha  occ. eigenvalues --   -0.58110  -0.57918  -0.57714  -0.57504  -0.57220
 Alpha  occ. eigenvalues --   -0.56261  -0.56001  -0.55953  -0.55742  -0.55329
 Alpha  occ. eigenvalues --   -0.55250  -0.55002  -0.54929  -0.53752  -0.53573
 Alpha  occ. eigenvalues --   -0.53356  -0.53220  -0.53125  -0.52995  -0.52817
 Alpha  occ. eigenvalues --   -0.52782  -0.52605  -0.52584  -0.52003  -0.52000
 Alpha  occ. eigenvalues --   -0.51572  -0.51532  -0.51341  -0.51268  -0.51168
 Alpha  occ. eigenvalues --   -0.51085  -0.50856  -0.50787  -0.50435  -0.49930
 Alpha  occ. eigenvalues --   -0.49830  -0.49489  -0.49448  -0.49313  -0.49228
 Alpha  occ. eigenvalues --   -0.49194  -0.49041  -0.48934  -0.48841  -0.48551
 Alpha  occ. eigenvalues --   -0.48497  -0.48253  -0.48131  -0.47959  -0.47907
 Alpha  occ. eigenvalues --   -0.47832  -0.47670  -0.47486  -0.47461  -0.47293
 Alpha  occ. eigenvalues --   -0.47165  -0.46848  -0.46716  -0.46590  -0.46563
 Alpha  occ. eigenvalues --   -0.46494  -0.46370  -0.46142  -0.45991  -0.45800
 Alpha  occ. eigenvalues --   -0.45554  -0.45466  -0.45237  -0.44908  -0.44760
 Alpha  occ. eigenvalues --   -0.44575  -0.44418  -0.44202  -0.44106  -0.43776
 Alpha  occ. eigenvalues --   -0.43759  -0.43755  -0.43726  -0.43467  -0.43424
 Alpha  occ. eigenvalues --   -0.43265  -0.43182  -0.42930  -0.42702  -0.42457
 Alpha  occ. eigenvalues --   -0.42456  -0.42440  -0.42343  -0.42105  -0.41944
 Alpha  occ. eigenvalues --   -0.41842  -0.41801  -0.41564  -0.41561  -0.41354
 Alpha  occ. eigenvalues --   -0.41235  -0.41134  -0.41122  -0.40783  -0.40590
 Alpha  occ. eigenvalues --   -0.40568  -0.40098  -0.39755  -0.39700  -0.39347
 Alpha  occ. eigenvalues --   -0.39097  -0.38665  -0.38370  -0.38141  -0.37366
 Alpha  occ. eigenvalues --   -0.36921  -0.36839  -0.36608  -0.36401  -0.36344
 Alpha  occ. eigenvalues --   -0.36074  -0.35472  -0.34855  -0.34780  -0.33914
 Alpha  occ. eigenvalues --   -0.33650  -0.33026  -0.33019  -0.31569  -0.31294
 Alpha  occ. eigenvalues --   -0.31186  -0.31186  -0.30480  -0.30437  -0.30307
 Alpha  occ. eigenvalues --   -0.29941  -0.29821  -0.29536  -0.24185  -0.23770
 Alpha  occ. eigenvalues --   -0.21223  -0.21068
 Alpha virt. eigenvalues --   -0.08567  -0.08521  -0.02009  -0.01764   0.00162
 Alpha virt. eigenvalues --    0.00185   0.01652   0.01993   0.02344   0.02604
 Alpha virt. eigenvalues --    0.05003   0.05032   0.05062   0.05559   0.06471

 Mulliken charges:
               1
     1  Mg  11.997959
     2  C    6.032756
     3  C    5.981580
     4  C    5.967807
     5  C    6.005068
     6  N    7.016218
     7  C    5.961317
     8  C    6.007710
     9  C    5.990502
    10  C    6.034336
    11  C    5.996823
    12  C    5.999681
    13  C    6.001437
    14  H    0.995877
    15  N    6.990226
    16  C    6.041812
    17  C    6.019387
    18  C    6.013291
    19  C    6.048004
    20  C    5.996746
    21  C    6.009778
    22  O    8.020456
    23  C    6.001320
    24  N    6.992147
    25  C    6.040863
    26  C    5.986502
    27  C    6.008857
    28  C    5.967399
    29  C    5.999389
    30  C    6.003460
    31  C    6.000874
    32  N    7.002385
    33  C    5.956430
    34  C    5.976495
    35  C    5.994466
    36  C    5.968843
    37  C    6.003709
    38  C    5.984082
    39  O    7.968018
    40  C    5.998435
    41  C    5.994720
    42  O    7.997861
    43  O    7.998298
    44  C    6.002123
    45  H    1.010178
    46  H    1.005405
    47  H    0.986083
    48  H    1.001730
    49  H    1.005958
    50  H    1.014006
    51  H    1.000896
    52  H    0.999434
    53  H    0.990574
    54  H    1.007875
    55  H    1.004985
    56  H    0.995663
    57  H    1.015516
    58  H    1.017986
    59  H    1.016792
    60  H    1.010252
    61  H    1.011336
    62  H    1.008352
    63  H    1.002185
    64  H    1.003231
    65  H    1.011096
    66  H    0.998257
    67  H    0.996856
    68  H    1.003697
    69  H    0.987887
    70  H    0.994371
    71  H    0.994201
    72  H    1.002406
    73  H    0.983341
    74  H    0.983019
    75  H    0.979605
    76  H    0.992372
    77  H    0.994878
    78  H    0.994547
    79  H    0.999583
    80  Mg  11.999995
    81  C    5.999841
    82  C    6.000295
    83  C    6.000042
    84  C    5.999794
    85  N    6.999985
    86  C    6.000240
    87  C    5.999952
    88  C    6.000166
    89  C    5.999588
    90  C    6.000001
    91  C    5.999991
    92  C    5.999978
    93  H    1.000049
    94  N    7.000167
    95  C    5.999482
    96  C    5.999866
    97  C    5.999788
    98  C    5.999686
    99  C    6.000046
   100  C    5.999840
   101  O    7.999694
   102  C    6.000077
   103  N    6.999894
   104  C    5.999737
   105  C    6.000069
   106  C    5.999920
   107  C    6.000383
   108  C    6.000055
   109  C    5.999950
   110  C    5.999962
   111  N    6.999987
   112  C    6.000470
   113  C    6.000263
   114  C    6.000021
   115  C    6.000323
   116  C    5.999914
   117  C    6.000208
   118  O    8.000383
   119  C    6.000009
   120  C    6.000053
   121  O    8.000072
   122  O    8.000011
   123  C    5.999958
   124  H    0.999937
   125  H    0.999887
   126  H    1.000111
   127  H    0.999976
   128  H    0.999935
   129  H    0.999950
   130  H    0.999903
   131  H    1.000011
   132  H    1.000069
   133  H    0.999952
   134  H    1.000040
   135  H    0.999986
   136  H    0.999806
   137  H    0.999781
   138  H    0.999820
   139  H    0.999914
   140  H    0.999910
   141  H    0.999807
   142  H    0.999963
   143  H    1.000013
   144  H    0.999996
   145  H    0.999863
   146  H    1.000002
   147  H    1.000073
   148  H    0.999987
   149  H    1.000111
   150  H    1.000045
   151  H    0.999940
   152  H    1.000265
   153  H    1.000196
   154  H    1.000240
   155  H    1.000118
   156  H    1.000042
   157  H    1.000040
   158  H    1.000108
 Sum of Mulliken charges = 624.00000

 Dipole moment (field-independent basis, Debye):
    X=             -9.8559    Y=             -0.7032    Z=              4.1078  Tot=             10.7008
 Quadrupole moment (field-independent basis, Debye-Ang):
   XX=            498.4881   YY=             -4.1438   ZZ=             -0.5999
   XY=             16.9888   XZ=           -104.0349   YZ=              1.6629

 Normal termination of Gaussian 16 at Thu Sep 23 11:22:16 2021.
