 Gaussian 16, Revision A.03,
 Gaussian 16:  ES64L-G16RevA.03 25-Dec-2016

 -----------------------------------
 #p cam-b3lyp/Def2SVP td=(nstates=5)
 -----------------------------------

 --------------------------------
 TDDFT excited states in gaussian
 --------------------------------
 Symbolic Z-matrix:
 Charge =  0 Multiplicity = 1

                         Standard orientation:
 ---------------------------------------------------------------------
 Center     Atomic      Atomic             Coordinates (Angstroms)
 Number     Number       Type             X           Y           Z
 ---------------------------------------------------------------------
      1         12           0      -20.844347   -0.519413   -0.034613
      2          6           0      -20.289555    2.621547   -1.311480
      3          6           0      -20.789441    0.911258    3.222654
      4          6           0      -20.847685   -3.581829    1.397611
      5          6           0      -20.562235   -1.903024   -3.077091
      6          7           0      -20.563954    1.544879    0.846424
      7          6           0      -20.337731    2.660304    0.085496
      8          6           0      -20.302677    3.920300    0.953320
      9          6           0      -20.269402    3.273595    2.414494
     10          6           0      -20.554613    1.822265    2.160613
     11          6           0      -18.951396    3.569251    3.220191
     12          6           0      -21.560965    4.880242    0.741184
     13          6           0      -21.431560    6.380627    0.633994
     14          1           0      -20.584282    7.090817    1.629138
     15          7           0      -20.874641   -1.274783    2.040110
     16          6           0      -21.027870   -0.553027    3.172048
     17          6           0      -21.264052   -1.393261    4.297960
     18          6           0      -21.320183   -2.729414    3.789838
     19          6           0      -20.934480   -2.556095    2.357521
     20          6           0      -21.353335   -0.767329    5.652307
     21          6           0      -21.477264   -4.032422    4.554969
     22          8           0      -21.231919   -5.131212    4.047478
     23          6           0      -21.931192   -4.018713    6.004103
     24          7           0      -20.566808   -2.512821   -0.731235
     25          6           0      -20.742679   -3.610631    0.050368
     26          6           0      -20.785498   -4.878416   -0.801053
     27          6           0      -20.870322   -4.293773   -2.262140
     28          6           0      -20.662596   -2.811423   -2.022040
     29          6           0      -19.734134   -6.012161   -0.615449
     30          6           0      -22.163241   -4.660507   -3.103732
     31          6           0      -23.366479   -3.741511   -3.100754
     32          7           0      -20.404322    0.152212   -1.811646
     33          6           0      -20.449684   -0.460445   -3.038215
     34          6           0      -20.139610    0.408764   -4.114113
     35          6           0      -20.114838    1.654318   -3.494554
     36          6           0      -20.303263    1.446017   -2.103980
     37          6           0      -19.984010    0.197254   -5.614444
     38          6           0      -19.933188    3.027658   -3.676411
     39          8           0      -19.668585    3.622143   -4.705159
     40          6           0      -20.010427    3.791378   -2.237835
     41          6           0      -18.732756    4.457349   -2.016731
     42          8           0      -17.630815    3.894001   -1.863928
     43          8           0      -18.818873    5.813803   -2.038347
     44          6           0      -17.585200    6.600517   -2.147379
     45          1           0      -20.839717    1.471481    4.158248
     46          1           0      -21.131825   -4.556193    1.800004
     47          1           0      -20.828676   -2.250736   -4.076639
     48          1           0      -19.433765    4.512474    0.663396
     49          1           0      -21.044635    3.696184    3.053882
     50          1           0      -19.233135    4.094196    4.132320
     51          1           0      -18.318604    4.112828    2.518408
     52          1           0      -18.441628    2.691509    3.618598
     53          1           0      -22.157764    4.639588    1.621142
     54          1           0      -22.217948    4.495826   -0.038292
     55          1           0      -22.419376    6.834998    0.557725
     56          1           0      -20.890406    6.556995   -0.294900
     57          1           0      -22.217177   -1.239172    6.119118
     58          1           0      -21.588890    0.294281    5.573475
     59          1           0      -20.476395   -0.872530    6.291973
     60          1           0      -22.743000   -3.320034    6.208527
     61          1           0      -21.060720   -3.974033    6.660049
     62          1           0      -22.367577   -5.006802    6.153314
     63          1           0      -21.695283   -5.371307   -0.457673
     64          1           0      -20.124458   -4.721173   -2.931249
     65          1           0      -19.060617   -6.046193   -1.471667
     66          1           0      -20.297493   -6.944175   -0.573056
     67          1           0      -19.219376   -5.785702    0.317629
     68          1           0      -22.494918   -5.634815   -2.747407
     69          1           0      -21.899097   -4.766133   -4.156197
     70          1           0      -24.284088   -4.275296   -2.852307
     71          1           0      -23.522449   -3.223092   -4.047741
     72          1           0      -23.145335   -2.998729   -2.334265
     73          1           0      -20.190442   -0.847538   -5.849743
     74          1           0      -18.973324    0.477820   -5.911990
     75          1           0      -20.694983    0.842870   -6.129232
     76          1           0      -20.770913    4.540142   -2.461345
     77          1           0      -17.730044    7.599143   -2.559757
     78          1           0      -16.744037    6.093221   -2.618860
     79          1           0      -17.321950    6.847668   -1.118809
     80         12           0       20.216908   -0.939978   -0.118594
     81          6           0       22.225310    2.124436   -0.004194
     82          6           0       17.666968    0.927207    1.393810
     83          6           0       18.495804   -3.696288    0.142434
     84          6           0       22.782281   -2.517914   -1.758991
     85          7           0       20.049583    1.180330    0.786892
     86          6           0       20.940304    2.321079    0.613083
     87          6           0       20.413258    3.625411    1.248816
     88          6           0       19.001315    3.067456    1.861680
     89          6           0       18.859314    1.620867    1.349060
     90          6           0       18.904817    3.174815    3.371141
     91          6           0       20.335400    4.762264    0.185318
     92          6           0       19.566377    5.979872    0.601873
     93          1           0       20.120546    7.355778    0.306155
     94          7           0       18.320984   -1.373859    0.686705
     95          6           0       17.410378   -0.478430    1.259058
     96          6           0       16.186971   -1.188700    1.627129
     97          6           0       16.401897   -2.579423    1.257492
     98          6           0       17.785803   -2.637280    0.657025
     99          6           0       14.891851   -0.512179    2.208912
    100          6           0       15.552050   -3.786234    1.431720
    101          8           0       15.841079   -4.910088    1.042924
    102          6           0       14.202783   -3.660778    2.008009
    103          7           0       20.530566   -2.763122   -0.782511
    104          6           0       19.741292   -3.788201   -0.456078
    105          6           0       20.243412   -5.134678   -1.028089
    106          6           0       21.328342   -4.661099   -1.972911
    107          6           0       21.636409   -3.209089   -1.437758
    108          6           0       20.758904   -6.089115    0.042821
    109          6           0       21.158894   -4.641001   -3.470011
    110          6           0       20.071973   -3.708949   -3.961341
    111          7           0       22.148741   -0.398733   -0.677905
    112          6           0       23.050325   -1.155496   -1.447911
    113          6           0       24.237972   -0.370942   -1.679918
    114          6           0       23.865589    0.904473   -1.182718
    115          6           0       22.599684    0.849916   -0.568917
    116          6           0       25.468988   -0.740419   -2.454924
    117          6           0       24.382491    2.306315   -1.113711
    118          8           0       25.397524    2.830231   -1.620426
    119          6           0       23.338984    3.092350   -0.323035
    120          6           0       23.993776    3.761630    0.887182
    121          8           0       24.547262    3.249908    1.904862
    122          8           0       23.755301    5.099572    0.775820
    123          6           0       24.237230    5.933871    1.899896
    124          1           0       16.816650    1.551502    1.672591
    125          1           0       17.965259   -4.641268    0.276200
    126          1           0       23.648497   -2.961845   -2.254249
    127          1           0       21.184729    3.925302    1.957978
    128          1           0       18.176829    3.579046    1.365050
    129          1           0       18.037018    3.786647    3.619148
    130          1           0       19.809562    3.685220    3.699416
    131          1           0       19.036649    2.261720    3.951237
    132          1           0       19.997697    4.278795   -0.732025
    133          1           0       21.349956    5.083609   -0.050616
    134          1           0       19.371238    6.101692    1.667073
    135          1           0       18.622692    6.009099    0.057926
    136          1           0       14.123182   -0.699731    1.458638
    137          1           0       14.989095    0.564487    2.347490
    138          1           0       14.684373   -1.018368    3.151773
    139          1           0       14.154913   -3.010104    2.881426
    140          1           0       13.955364   -4.681203    2.298496
    141          1           0       13.643672   -3.126521    1.240454
    142          1           0       19.394786   -5.604229   -1.525668
    143          1           0       22.233352   -5.263903   -1.892431
    144          1           0       20.426889   -7.096614   -0.205135
    145          1           0       20.367927   -5.828305    1.025715
    146          1           0       21.845662   -6.163360   -0.010480
    147          1           0       21.032813   -5.670802   -3.805376
    148          1           0       22.032336   -4.206146   -3.955630
    149          1           0       19.435878   -4.181342   -4.708993
    150          1           0       20.468621   -2.830666   -4.471136
    151          1           0       19.394999   -3.357694   -3.182505
    152          1           0       25.674414    0.026424   -3.201417
    153          1           0       25.527005   -1.688099   -2.990253
    154          1           0       26.294279   -0.761242   -1.742886
    155          1           0       22.989194    3.913852   -0.948892
    156          1           0       23.405886    6.174390    2.562231
    157          1           0       24.668074    6.752754    1.323766
    158          1           0       25.083188    5.483416    2.420658
 ---------------------------------------------------------------------

 SCF Done:  E(RCAM-B3LYP) =  -4069.84339016     A.U. after   19 cycles

 Excitation energies and oscillator strengths:

 Excited State   1:      Singlet-A      1.6631 eV  745.51 nm  f=0.3990  <S**2>=0.000
     309 -> 315        0.16582
     312 -> 313        0.68886
     309 <- 315        0.10534
 This state for optimization and/or second-order correction.
 Total Energy, E(TD-HF/TD-DFT) =  -4069.78227304
 Copying the excited state density for this state as the 1-particle RhoCI density.

 Excited State   2:      Singlet-A      1.7199 eV  720.86 nm  f=0.4170  <S**2>=0.000
     310 -> 316       -0.17813
     311 -> 314        0.68656
     310 <- 316       -0.10695

 Excited State   3:      Singlet-A      2.1714 eV  571.00 nm  f=0.1348  <S**2>=0.000
     309 -> 313        0.65258
     312 -> 315       -0.25468

 Excited State   4:      Singlet-A      2.1905 eV  566.01 nm  f=0.1774  <S**2>=0.000
     310 -> 314        0.66246
     311 -> 316        0.23744

 Excited State   5:      Singlet-A      3.0960 eV  400.47 nm  f=0.0000  <S**2>=0.000
     311 -> 313        0.70710

 The electronic state is 1-A.
 Alpha  occ. eigenvalues --  -46.89148 -46.87742 -19.25747 -19.25125 -19.19621
 Alpha  occ. eigenvalues --  -19.18913 -19.18749 -19.18641 -19.18578 -19.18454
 Alpha  occ. eigenvalues --  -14.42486 -14.42176 -14.42151 -14.41583 -14.39944
 Alpha  occ. eigenvalues --  -14.39620 -14.39543 -14.38848 -10.39942 -10.38989
 Alpha  occ. eigenvalues --  -10.35402 -10.34722 -10.34636 -10.34568 -10.31960
 Alpha  occ. eigenvalues --  -10.31899 -10.31675 -10.31487 -10.31358 -10.31116
 Alpha  occ. eigenvalues --  -10.31081 -10.30918 -10.30678 -10.30602 -10.30468
 Alpha  occ. eigenvalues --  -10.30455 -10.30169 -10.30115 -10.30093 -10.29923
 Alpha  occ. eigenvalues --  -10.29250 -10.29051 -10.28950 -10.28942 -10.28865
 Alpha  occ. eigenvalues --  -10.28806 -10.28640 -10.28622 -10.28587 -10.28573
 Alpha  occ. eigenvalues --  -10.28498 -10.28399 -10.28317 -10.28237 -10.28047
 Alpha  occ. eigenvalues --  -10.28044 -10.28016 -10.27724 -10.27539 -10.27519
 Alpha  occ. eigenvalues --  -10.27499 -10.27495 -10.27373 -10.27354 -10.26994
 Alpha  occ. eigenvalues --  -10.26956 -10.26953 -10.26908 -10.26825 -10.26647
 Alpha  occ. eigenvalues --  -10.26459 -10.26271 -10.26269 -10.26217 -10.26110
 Alpha  occ. eigenvalues --  -10.25884 -10.25809 -10.25751 -10.25721 -10.25707
 Alpha  occ. eigenvalues --  -10.25616 -10.25247 -10.25077 -10.24690 -10.24662
 Alpha  occ. eigenvalues --  -10.24546  -3.17757  -3.16483  -1.92640  -1.92173
 Alpha  occ. eigenvalues --   -1.92106  -1.91388  -1.90948  -1.90785  -1.15989
 Alpha  occ. eigenvalues --   -1.15908  -1.10369  -1.09934  -1.09498  -1.07790
 Alpha  occ. eigenvalues --   -1.05902  -1.05750  -1.05417  -1.05038  -1.04683
 Alpha  occ. eigenvalues --   -1.04196  -1.03522  -1.02811  -1.02257  -1.00593
 Alpha  occ. eigenvalues --   -0.92657  -0.92293  -0.89681  -0.89063  -0.88847
 Alpha  occ. eigenvalues --   -0.88685  -0.88298  -0.88243  -0.87824  -0.87460
 Alpha  occ. eigenvalues --   -0.87309  -0.86987  -0.86465  -0.85868  -0.84758
 Alpha  occ. eigenvalues --   -0.84328  -0.84040  -0.83808  -0.82929  -0.82725
 Alpha  occ. eigenvalues --   -0.82285  -0.81883  -0.81409  -0.81210  -0.80366
 Alpha  occ. eigenvalues --   -0.80064  -0.78507  -0.78432  -0.77521  -0.77260
 Alpha  occ. eigenvalues --   -0.77144  -0.76799  -0.76296  -0.75954  -0.75536
 Alpha  occ. eigenvalues --   -0.75486  -0.73585  -0.72750  -0.71940  -0.71589
 Alpha  occ. eigenvalues --   -0.70285  -0.69674  -0.69435  -0.69257  -0.68173
 Alpha  occ. eigenvalues --   -0.67622  -0.67172  -0.67130  -0.65679  -0.65164
 Alpha  occ. eigenvalues --   -0.65051  -0.64812  -0.64650  -0.64316  -0.64254
 Alpha  occ. eigenvalues --   -0.63811  -0.62290  -0.61930  -0.60222  -0.60216
 Alpha  occ. eigenvalues --   -0.59879  -0.59150  -0.59112  -0.59069  -0.58339
 Alpha  occ. eigenvalues --   -0.58311  -0.57957  -0.57708  -0.57389  -0.57335
 Alpha  occ. eigenvalues --   -0.56286  -0.56269  -0.55978  -0.55470  -0.55452
 Alpha  occ. eigenvalues --   -0.55288  -0.55024  -0.54921  -0.54794  -0.54278
 Alpha  occ. eigenvalues --   -0.54120  -0.53447  -0.53347  -0.53174  -0.53061
 Alpha  occ. eigenvalues --   -0.52832  -0.52716  -0.52637  -0.52485  -0.52265
 Alpha  occ. eigenvalues --   -0.52128  -0.52117  -0.51481  -0.51135  -0.50820
 Alpha  occ. eigenvalues --   -0.50801  -0.50718  -0.50607  -0.50374  -0.50315
 Alpha  occ. eigenvalues --   -0.50175  -0.49885  -0.49781  -0.49582  -0.49507
 Alpha  occ. eigenvalues --   -0.49276  -0.49136  -0.48842  -0.48830  -0.48803
 Alpha  occ. eigenvalues --   -0.48800  -0.48607  -0.48532  -0.48436  -0.48256
 Alpha  occ. eigenvalues --   -0.48066  -0.47868  -0.47706  -0.47589  -0.47554
 Alpha  occ. eigenvalues --   -0.47188  -0.47007  -0.46898  -0.46745  -0.46565
 Alpha  occ. eigenvalues --   -0.46509  -0.46211  -0.46142  -0.46001  -0.45988
 Alpha  occ. eigenvalues --   -0.45931  -0.45691  -0.45429  -0.45360  -0.45033
 Alpha  occ. eigenvalues --   -0.44932  -0.44531  -0.44521  -0.44343  -0.44170
 Alpha  occ. eigenvalues --   -0.43985  -0.43968  -0.43964  -0.43667  -0.43477
 Alpha  occ. eigenvalues --   -0.43415  -0.43255  -0.43169  -0.43008  -0.42623
 Alpha  occ. eigenvalues --   -0.42492  -0.42273  -0.42190  -0.41924  -0.41868
 Alpha  occ. eigenvalues --   -0.41838  -0.41742  -0.41564  -0.41364  -0.41192
 Alpha  occ. eigenvalues --   -0.41157  -0.40944  -0.40666  -0.40449  -0.40031
 Alpha  occ. eigenvalues --   -0.39941  -0.39877  -0.39566  -0.39217  -0.39093
 Alpha  occ. eigenvalues --   -0.38881  -0.38553  -0.38276  -0.37386  -0.37319
 Alpha  occ. eigenvalues --   -0.37117  -0.36755  -0.36652  -0.36509  -0.36099
 Alpha  occ. eigenvalues --   -0.36072  -0.35719  -0.34598  -0.34293  -0.34086
 Alpha  occ. eigenvalues --   -0.33487  -0.33057  -0.32925  -0.31501  -0.31377
 Alpha  occ. eigenvalues --   -0.31262  -0.31255  -0.30933  -0.30462  -0.30389
 Alpha  occ. eigenvalues --   -0.30304  -0.30136  -0.29161  -0.24238  -0.23878
 Alpha  occ. eigenvalues --   -0.21509  -0.21465
 Alpha virt. eigenvalues --   -0.09281  -0.09128  -0.01649  -0.01234   0.00184
 Alpha virt. eigenvalues --    0.00343   0.01804   0.02202   0.02432   0.03381
 Alpha virt. eigenvalues --    0.04520   0.04713   0.05172   0.05747   0.06108

 Mulliken charges:
               1
     1  Mg   0.838534
     2  C    0.011612
     3  C   -0.053565
     4  C   -0.054133
     5  C   -0.074737
     6  N   -0.259019
     7  C   -0.044613
     8  C   -0.039984
     9  C   -0.067759
    10  C    0.025083
    11  C    0.071340
    12  C    0.050788
    13  C   -0.046893
    14  H    0.016598
    15  N   -0.276114
    16  C    0.108844
    17  C   -0.140178
    18  C   -0.038857
    19  C    0.073790
    20  C    0.126608
    21  C   -0.001531
    22  O   -0.216456
    23  C    0.046147
    24  N   -0.278507
    25  C    0.028299
    26  C   -0.031863
    27  C    0.005469
    28  C    0.043857
    29  C    0.083012
    30  C   -0.011470
    31  C    0.012511
    32  N   -0.385138
    33  C    0.091430
    34  C   -0.180248
    35  C    0.092696
    36  C    0.102447
    37  C    0.138698
    38  C   -0.042517
    39  O   -0.171700
    40  C    0.016075
    41  C    0.193112
    42  O   -0.252956
    43  O   -0.327408
    44  C    0.186388
    45  H   -0.035449
    46  H   -0.008319
    47  H   -0.023959
    48  H    0.024555
    49  H    0.018117
    50  H    0.010043
    51  H    0.028576
    52  H    0.019020
    53  H   -0.011542
    54  H    0.007836
    55  H    0.032275
    56  H    0.033328
    57  H    0.009198
    58  H    0.014692
    59  H    0.039593
    60  H    0.033237
    61  H    0.047621
    62  H    0.024879
    63  H    0.009853
    64  H    0.009926
    65  H    0.015159
    66  H    0.018568
    67  H    0.029828
    68  H    0.004434
    69  H    0.004807
    70  H    0.014840
    71  H    0.015401
    72  H    0.016052
    73  H    0.004416
    74  H    0.043796
    75  H    0.038582
    76  H    0.030583
    77  H    0.035067
    78  H    0.058222
    79  H    0.019074
    80  Mg   0.833756
    81  C   -0.021286
    82  C   -0.080151
    83  C   -0.082758
    84  C   -0.070315
    85  N   -0.301404
    86  C   -0.047362
    87  C   -0.021598
    88  C   -0.058527
    89  C    0.064049
    90  C    0.100740
    91  C    0.032556
    92  C   -0.071166
    93  H    0.011778
    94  N   -0.386369
    95  C    0.146993
    96  C   -0.156147
    97  C   -0.010706
    98  C    0.125041
    99  C    0.113798
   100  C   -0.027314
   101  O   -0.211674
   102  C    0.063962
   103  N   -0.345409
   104  C    0.087693
   105  C   -0.030115
   106  C   -0.026313
   107  C    0.096085
   108  C    0.087963
   109  C    0.059808
   110  C   -0.013232
   111  N   -0.360276
   112  C    0.064899
   113  C   -0.139156
   114  C   -0.053540
   115  C    0.135992
   116  C    0.107480
   117  C    0.083459
   118  O   -0.200433
   119  C    0.008581
   120  C    0.216116
   121  O   -0.257663
   122  O   -0.336358
   123  C    0.163769
   124  H   -0.033224
   125  H   -0.005305
   126  H   -0.025221
   127  H    0.025797
   128  H    0.008763
   129  H    0.023482
   130  H    0.000222
   131  H    0.025547
   132  H    0.009599
   133  H    0.036919
   134  H    0.030363
   135  H    0.032730
   136  H    0.039205
   137  H    0.020310
   138  H    0.045784
   139  H    0.005833
   140  H    0.040894
   141  H    0.037761
   142  H    0.013785
   143  H   -0.013296
   144  H    0.012822
   145  H    0.026526
   146  H    0.015519
   147  H    0.009178
   148  H    0.003991
   149  H    0.005212
   150  H    0.012493
   151  H    0.021985
   152  H    0.039099
   153  H    0.005100
   154  H    0.032584
   155  H    0.049793
   156  H    0.048527
   157  H    0.042660
   158  H    0.059317
 Sum of Mulliken charges =  -0.00000

 Dipole moment (field-independent basis, Debye):
    X=             -8.5606    Y=              1.6171    Z=              3.5742  Tot=              9.4166
 Quadrupole moment (field-independent basis, Debye-Ang):
   XX=           -597.9424   YY=           -495.5245   ZZ=           -498.5852
   XY=            -15.4391   XZ=            -45.1827   YZ=             48.6753

 Normal termination of Gaussian 16 at Fri Sep  3 03:47:33 2021.
