 Gaussian 16, Revision A.03,
 Gaussian 16:  ES64L-G16RevA.03 25-Dec-2016

 ----------------------------------------------------------
 #p cam-b3lyp/Def2SVP td=(nstates=5) density=(transition=1)
 ----------------------------------------------------------

 --------------------------------
 TDDFT excited states in gaussian
 --------------------------------
 Symbolic Z-matrix:
 Charge =  0 Multiplicity = 1

                         Standard orientation:
 ---------------------------------------------------------------------
 Center     Atomic      Atomic             Coordinates (Angstroms)
 Number     Number       Type             X           Y           Z
 ---------------------------------------------------------------------
      1         12           0      -14.972110    0.310108   -0.204596
      2          6           0      -11.874518    1.896174   -0.768412
      3          6           0      -14.266600   -1.724377   -2.844726
      4          6           0      -17.559128   -1.686169    0.797238
      5          6           0      -15.163762    2.230071    2.791572
      6          7           0      -13.162719    0.019561   -1.577004
      7          6           0      -12.086843    0.841228   -1.755344
      8          6           0      -11.110097    0.301384   -2.814314
      9          6           0      -12.169561   -0.595890   -3.623608
     10          6           0      -13.280351   -0.781863   -2.620037
     11          6           0      -12.700400    0.017774   -4.946921
     12          6           0       -9.923956   -0.590329   -2.230109
     13          6           0       -8.638750   -0.722052   -3.032607
     14          1           0       -8.223959   -2.045963   -3.709167
     15          7           0      -15.899977   -1.496497   -0.910879
     16          6           0      -15.513761   -2.062415   -2.091046
     17          6           0      -16.413941   -3.050740   -2.492801
     18          6           0      -17.430261   -3.068262   -1.464713
     19          6           0      -17.001469   -2.088290   -0.427051
     20          6           0      -16.300842   -3.871711   -3.771716
     21          6           0      -18.636052   -3.978235   -1.528640
     22          8           0      -18.780079   -4.749689   -2.511915
     23          6           0      -19.805269   -3.949176   -0.482308
     24          7           0      -16.131411    0.327731    1.523200
     25          6           0      -17.191281   -0.603992    1.691662
     26          6           0      -18.088714   -0.162065    2.813987
     27          6           0      -17.219234    0.810778    3.639724
     28          6           0      -16.143587    1.227185    2.594525
     29          6           0      -19.414162    0.566990    2.497672
     30          6           0      -16.513123    0.084762    4.902417
     31          6           0      -17.305264   -0.060393    6.193033
     32          7           0      -13.837696    1.901434    0.698371
     33          6           0      -14.043419    2.576594    1.892128
     34          6           0      -13.021007    3.467916    2.157811
     35          6           0      -12.128797    3.286944    1.087101
     36          6           0      -12.667130    2.302072    0.241821
     37          6           0      -12.956490    4.379564    3.342390
     38          6           0      -10.989604    3.771110    0.507232
     39          8           0      -10.306178    4.731085    0.804173
     40          6           0      -10.651057    2.718682   -0.569431
     41          6           0       -9.465340    1.979060   -0.025543
     42          8           0       -9.457614    1.405361    1.018912
     43          8           0       -8.370014    2.130335   -0.877727
     44          6           0       -7.177332    1.589526   -0.324544
     45          1           0      -14.185684   -2.255718   -3.795549
     46          1           0      -18.508857   -2.157380    1.060562
     47          1           0      -15.363582    2.875933    3.648859
     48          1           0      -10.789354    1.070496   -3.516151
     49          1           0      -11.645709   -1.509630   -3.902872
     50          1           0      -12.080595   -0.473317   -5.697628
     51          1           0      -12.523850    1.091744   -5.005029
     52          1           0      -13.744460   -0.243490   -5.120266
     53          1           0      -10.249919   -1.623488   -2.109614
     54          1           0       -9.740113   -0.230559   -1.217518
     55          1           0       -7.859639   -0.432991   -2.325758
     56          1           0       -8.661157    0.049308   -3.802246
     57          1           0      -17.203466   -4.150987   -4.316235
     58          1           0      -15.731377   -4.706652   -3.364113
     59          1           0      -15.777800   -3.297208   -4.536254
     60          1           0      -20.290005   -2.973605   -0.507996
     61          1           0      -19.284825   -4.169414    0.449545
     62          1           0      -20.530521   -4.760030   -0.549009
     63          1           0      -18.272665   -1.046649    3.422855
     64          1           0      -17.787489    1.666892    4.003578
     65          1           0      -19.452364    1.612503    2.803016
     66          1           0      -20.271021   -0.095226    2.623354
     67          1           0      -19.404652    0.657307    1.411579
     68          1           0      -15.655272    0.743334    5.036837
     69          1           0      -16.165755   -0.912411    4.631424
     70          1           0      -17.284897   -1.103134    6.508704
     71          1           0      -18.337616    0.242855    6.016505
     72          1           0      -16.853021    0.511855    7.003453
     73          1           0      -11.962849    4.244362    3.768604
     74          1           0      -13.658379    4.098392    4.128471
     75          1           0      -13.073791    5.430173    3.076195
     76          1           0      -10.383009    3.247421   -1.483487
     77          1           0       -6.637700    2.368874    0.212829
     78          1           0       -6.437971    1.309328   -1.075798
     79          1           0       -7.372530    0.764013    0.357816
     80         12           0       14.086259   -1.061110   -0.212377
     81          6           0       14.725937    2.459424   -0.631241
     82          6           0       10.851206   -0.511541   -0.835438
     83          6           0       13.480884   -4.106773    1.047863
     84          6           0       17.409804   -1.349896    0.871555
     85          7           0       12.953033    0.751104   -0.616716
     86          6           0       13.413137    2.039947   -0.936212
     87          6           0       12.257534    2.931059   -1.532079
     88          6           0       11.039893    1.958160   -1.512503
     89          6           0       11.653016    0.624577   -1.008488
     90          6           0        9.838265    2.369339   -0.700085
     91          6           0       12.630801    3.556963   -2.980579
     92          6           0       12.460059    5.076428   -3.099833
     93          1           0       11.465381    5.520973   -4.235770
     94          7           0       12.402980   -2.214217   -0.061351
     95          6           0       11.155953   -1.832161   -0.354852
     96          6           0       10.188602   -2.897743   -0.086776
     97          6           0       10.972924   -3.915597    0.558013
     98          6           0       12.359685   -3.438125    0.557725
     99          6           0        8.759824   -2.793848   -0.409309
    100          6           0       10.364810   -5.200072    1.203876
    101          8           0       11.065134   -6.074610    1.685823
    102          6           0        8.893275   -5.461394    1.255562
    103          7           0       15.253884   -2.460402    0.775086
    104          6           0       14.785634   -3.731020    1.092034
    105          6           0       15.934466   -4.625613    1.663062
    106          6           0       17.229661   -3.825968    1.261357
    107          6           0       16.615937   -2.475721    0.891845
    108          6           0       15.823623   -5.095297    3.150180
    109          6           0       18.011191   -4.439040    0.067192
    110          6           0       19.518516   -4.430524    0.107395
    111          7           0       15.737489    0.263852    0.123464
    112          6           0       17.002467   -0.009626    0.560505
    113          6           0       17.845771    1.258287    0.433763
    114          6           0       17.010823    2.224485   -0.073241
    115          6           0       15.723418    1.594690   -0.179137
    116          6           0       19.329034    1.285546    0.724677
    117          6           0       16.865467    3.608619   -0.487416
    118          8           0       17.795828    4.441631   -0.482751
    119          6           0       15.273454    3.869622   -0.799341
    120          6           0       14.584029    4.812896    0.164232
    121          8           0       14.626651    4.613252    1.394346
    122          8           0       14.094249    5.957646   -0.465907
    123          6           0       13.820105    7.034474    0.478468
    124          1           0        9.804086   -0.428151   -1.133131
    125          1           0       13.204347   -5.110140    1.377360
    126          1           0       18.458735   -1.545733    1.105606
    127          1           0       12.188366    3.739637   -0.804664
    128          1           0       10.633059    2.009743   -2.523353
    129          1           0        9.981901    3.308549   -0.165729
    130          1           0        9.881884    1.605372    0.075417
    131          1           0        8.929588    2.470648   -1.294267
    132          1           0       11.967354    3.013452   -3.652710
    133          1           0       13.632036    3.229746   -3.259598
    134          1           0       13.461000    5.493209   -3.211683
    135          1           0       12.044983    5.463391   -2.168325
    136          1           0        8.010998   -2.937190    0.369047
    137          1           0        8.548763   -3.693847   -0.985730
    138          1           0        8.492535   -2.000764   -1.107991
    139          1           0        8.577652   -5.501249    0.212329
    140          1           0        8.436529   -4.573833    1.694313
    141          1           0        8.778025   -6.377196    1.833973
    142          1           0       15.885107   -5.525695    1.050222
    143          1           0       17.884216   -3.624797    2.109079
    144          1           0       14.828291   -4.773960    3.456192
    145          1           0       16.624767   -4.735158    3.794969
    146          1           0       15.732251   -6.179027    3.232733
    147          1           0       17.631230   -3.774336   -0.708391
    148          1           0       17.708654   -5.449747   -0.207511
    149          1           0       19.825011   -5.411550   -0.255765
    150          1           0       19.919841   -4.324476    1.115776
    151          1           0       19.832479   -3.736308   -0.672477
    152          1           0       19.608539    0.285961    1.057058
    153          1           0       19.493653    1.941788    1.578989
    154          1           0       19.865824    1.658058   -0.147552
    155          1           0       15.177908    4.196035   -1.834925
    156          1           0       14.488612    7.891896    0.414420
    157          1           0       13.797049    6.717732    1.521276
    158          1           0       12.813920    7.385517    0.250873
 ---------------------------------------------------------------------

 SCF Done:  E(RCAM-B3LYP) =  -4069.77345744     A.U. after   18 cycles

 Excitation energies and oscillator strengths:

 Excited State   1:      Singlet-A      1.6979 eV  730.21 nm  f=0.4848  <S**2>=0.000
     310 -> 316       -0.17241
     312 -> 314        0.68589
     310 <- 316       -0.10744
 This state for optimization and/or second-order correction.
 Total Energy, E(TD-HF/TD-DFT) =  -4069.71106007
 Copying the excited state density for this state as the 1-particle RhoCI density.

 Excited State   2:      Singlet-A      1.7067 eV  726.46 nm  f=0.3385  <S**2>=0.000
     309 -> 315       -0.18470
     311 -> 313        0.67992
     309 <- 315       -0.10781

 Excited State   3:      Singlet-A      2.1433 eV  578.48 nm  f=0.1305  <S**2>=0.000
     309 -> 313        0.65033
     311 -> 315        0.26015

 Excited State   4:      Singlet-A      2.2865 eV  542.24 nm  f=0.0918  <S**2>=0.000
     310 -> 314        0.63012
     312 -> 316        0.31282

 Excited State   5:      Singlet-A      2.6954 eV  459.99 nm  f=0.0000  <S**2>=0.000
     312 -> 313        0.70709

 The electronic state is 1-A.
 Alpha  occ. eigenvalues --  -46.90378 -46.88375 -19.26686 -19.25482 -19.21005
 Alpha  occ. eigenvalues --  -19.20841 -19.19919 -19.18543 -19.18164 -19.17945
 Alpha  occ. eigenvalues --  -14.43243 -14.42734 -14.42559 -14.41644 -14.39886
 Alpha  occ. eigenvalues --  -14.39677 -14.39362 -14.39271 -10.40824 -10.39781
 Alpha  occ. eigenvalues --  -10.36497 -10.35085 -10.34922 -10.33426 -10.32465
 Alpha  occ. eigenvalues --  -10.32394 -10.31729 -10.31698 -10.31585 -10.31088
 Alpha  occ. eigenvalues --  -10.31005 -10.30953 -10.30784 -10.30643 -10.30329
 Alpha  occ. eigenvalues --  -10.30295 -10.30114 -10.30011 -10.29945 -10.29775
 Alpha  occ. eigenvalues --  -10.29496 -10.29311 -10.29191 -10.29129 -10.28993
 Alpha  occ. eigenvalues --  -10.28857 -10.28553 -10.28391 -10.28361 -10.28275
 Alpha  occ. eigenvalues --  -10.28232 -10.28128 -10.28126 -10.28040 -10.28024
 Alpha  occ. eigenvalues --  -10.27928 -10.27898 -10.27731 -10.27708 -10.27614
 Alpha  occ. eigenvalues --  -10.27525 -10.27476 -10.27460 -10.27422 -10.27357
 Alpha  occ. eigenvalues --  -10.27283 -10.27216 -10.27076 -10.26937 -10.26663
 Alpha  occ. eigenvalues --  -10.26546 -10.26535 -10.26500 -10.26423 -10.26145
 Alpha  occ. eigenvalues --  -10.26144 -10.26135 -10.25915 -10.25906 -10.25714
 Alpha  occ. eigenvalues --  -10.25711 -10.25525 -10.25487 -10.25424 -10.25211
 Alpha  occ. eigenvalues --  -10.24231  -3.18670  -3.17026  -1.93568  -1.93118
 Alpha  occ. eigenvalues --   -1.92968  -1.91908  -1.91465  -1.91354  -1.17726
 Alpha  occ. eigenvalues --   -1.16331  -1.10128  -1.10106  -1.09584  -1.09034
 Alpha  occ. eigenvalues --   -1.07947  -1.07381  -1.05824  -1.04717  -1.03988
 Alpha  occ. eigenvalues --   -1.03913  -1.03291  -1.02638  -1.01979  -1.01877
 Alpha  occ. eigenvalues --   -0.94412  -0.92626  -0.89111  -0.89041  -0.88792
 Alpha  occ. eigenvalues --   -0.88743  -0.88737  -0.88028  -0.87632  -0.87323
 Alpha  occ. eigenvalues --   -0.87224  -0.87168  -0.86115  -0.85977  -0.84456
 Alpha  occ. eigenvalues --   -0.84280  -0.83703  -0.83656  -0.82993  -0.82712
 Alpha  occ. eigenvalues --   -0.81959  -0.81932  -0.81198  -0.80763  -0.80417
 Alpha  occ. eigenvalues --   -0.80225  -0.78427  -0.78141  -0.77602  -0.77458
 Alpha  occ. eigenvalues --   -0.77022  -0.76922  -0.76216  -0.76044  -0.75761
 Alpha  occ. eigenvalues --   -0.74700  -0.73681  -0.72443  -0.72325  -0.70965
 Alpha  occ. eigenvalues --   -0.69557  -0.68995  -0.68542  -0.68515  -0.68399
 Alpha  occ. eigenvalues --   -0.67906  -0.67237  -0.66713  -0.66390  -0.65435
 Alpha  occ. eigenvalues --   -0.65334  -0.64986  -0.64890  -0.64817  -0.64347
 Alpha  occ. eigenvalues --   -0.64294  -0.62898  -0.62586  -0.60600  -0.60285
 Alpha  occ. eigenvalues --   -0.60223  -0.59767  -0.59690  -0.59258  -0.59098
 Alpha  occ. eigenvalues --   -0.58910  -0.58519  -0.58327  -0.58131  -0.57314
 Alpha  occ. eigenvalues --   -0.56573  -0.56252  -0.55869  -0.55419  -0.55398
 Alpha  occ. eigenvalues --   -0.55152  -0.55109  -0.54917  -0.53921  -0.53766
 Alpha  occ. eigenvalues --   -0.53624  -0.53510  -0.53263  -0.53128  -0.52870
 Alpha  occ. eigenvalues --   -0.52674  -0.52595  -0.52455  -0.52347  -0.51907
 Alpha  occ. eigenvalues --   -0.51826  -0.51614  -0.51524  -0.51480  -0.51292
 Alpha  occ. eigenvalues --   -0.51270  -0.51128  -0.50892  -0.50820  -0.50673
 Alpha  occ. eigenvalues --   -0.50245  -0.50220  -0.49903  -0.49814  -0.49602
 Alpha  occ. eigenvalues --   -0.49427  -0.49367  -0.49151  -0.49067  -0.48880
 Alpha  occ. eigenvalues --   -0.48786  -0.48621  -0.48505  -0.48315  -0.48140
 Alpha  occ. eigenvalues --   -0.48016  -0.47948  -0.47420  -0.47297  -0.47231
 Alpha  occ. eigenvalues --   -0.47082  -0.47019  -0.46752  -0.46674  -0.46479
 Alpha  occ. eigenvalues --   -0.46467  -0.46412  -0.46090  -0.46015  -0.45942
 Alpha  occ. eigenvalues --   -0.45852  -0.45671  -0.45363  -0.45361  -0.45143
 Alpha  occ. eigenvalues --   -0.44792  -0.44662  -0.44563  -0.44323  -0.44135
 Alpha  occ. eigenvalues --   -0.44028  -0.43920  -0.43840  -0.43811  -0.43608
 Alpha  occ. eigenvalues --   -0.43402  -0.43320  -0.43191  -0.43016  -0.42992
 Alpha  occ. eigenvalues --   -0.42842  -0.42663  -0.42662  -0.42583  -0.42253
 Alpha  occ. eigenvalues --   -0.41719  -0.41703  -0.41622  -0.41396  -0.41254
 Alpha  occ. eigenvalues --   -0.41115  -0.41088  -0.40782  -0.40565  -0.40556
 Alpha  occ. eigenvalues --   -0.40366  -0.40171  -0.39495  -0.39481  -0.39129
 Alpha  occ. eigenvalues --   -0.38557  -0.38287  -0.37873  -0.37805  -0.37713
 Alpha  occ. eigenvalues --   -0.37419  -0.37406  -0.37221  -0.37040  -0.36657
 Alpha  occ. eigenvalues --   -0.36411  -0.36102  -0.35579  -0.35143  -0.35120
 Alpha  occ. eigenvalues --   -0.34431  -0.33477  -0.32880  -0.31545  -0.31512
 Alpha  occ. eigenvalues --   -0.31383  -0.30692  -0.30517  -0.30383  -0.30094
 Alpha  occ. eigenvalues --   -0.29989  -0.29776  -0.29581  -0.24387  -0.24164
 Alpha  occ. eigenvalues --   -0.22101  -0.20771
 Alpha virt. eigenvalues --   -0.09656  -0.08420  -0.02545  -0.01311  -0.00143
 Alpha virt. eigenvalues --   -0.00037   0.01360   0.01792   0.02333   0.02534
 Alpha virt. eigenvalues --    0.02814   0.04223   0.04543   0.05075   0.05421

 Mulliken charges:
               1
     1  Mg  11.999932
     2  C    6.000058
     3  C    6.002981
     4  C    6.000845
     5  C    5.996869
     6  N    7.001159
     7  C    6.002728
     8  C    5.999053
     9  C    6.001038
    10  C    5.996503
    11  C    6.000273
    12  C    5.999795
    13  C    5.999617
    14  H    1.001545
    15  N    7.000896
    16  C    5.995613
    17  C    5.998650
    18  C    5.998670
    19  C    5.996534
    20  C    6.000115
    21  C    5.999178
    22  O    7.997733
    23  C    6.000084
    24  N    6.998579
    25  C    5.997618
    26  C    6.001011
    27  C    5.999330
    28  C    6.003682
    29  C    5.999791
    30  C    5.999869
    31  C    6.000043
    32  N    6.999863
    33  C    6.003787
    34  C    6.001716
    35  C    6.000896
    36  C    6.001810
    37  C    5.999706
    38  C    6.001455
    39  O    8.003019
    40  C    5.999558
    41  C    6.000432
    42  O    8.000425
    43  O    8.000231
    44  C    5.999355
    45  H    0.999827
    46  H    0.998891
    47  H    1.000093
    48  H    1.000117
    49  H    1.000044
    50  H    0.999771
    51  H    0.998847
    52  H    1.000484
    53  H    1.001182
    54  H    0.999557
    55  H    1.000195
    56  H    1.000004
    57  H    0.998606
    58  H    0.998640
    59  H    0.998199
    60  H    0.999038
    61  H    0.999348
    62  H    0.998644
    63  H    0.999790
    64  H    0.999830
    65  H    0.998651
    66  H    0.999778
    67  H    1.000158
    68  H    0.999412
    69  H    1.001005
    70  H    1.000373
    71  H    1.000227
    72  H    0.999719
    73  H    1.001397
    74  H    1.001688
    75  H    1.001374
    76  H    1.000978
    77  H    1.000360
    78  H    1.001080
    79  H    1.000651
    80  Mg  11.996980
    81  C    5.971278
    82  C    6.021864
    83  C    6.018981
    84  C    5.975131
    85  N    6.993387
    86  C    6.040733
    87  C    5.989351
    88  C    6.013560
    89  C    5.965630
    90  C    6.000812
    91  C    5.995251
    92  C    5.996976
    93  H    1.010535
    94  N    7.007887
    95  C    5.955005
    96  C    5.976285
    97  C    5.988074
    98  C    5.956227
    99  C    6.008382
   100  C    5.986996
   101  O    7.976301
   102  C    6.002294
   103  N    6.999328
   104  C    5.968671
   105  C    6.008337
   106  C    5.990077
   107  C    6.033600
   108  C    5.998174
   109  C    5.998426
   110  C    5.997722
   111  N    6.997548
   112  C    6.047984
   113  C    6.031018
   114  C    6.002484
   115  C    6.038798
   116  C    5.995151
   117  C    6.016428
   118  O    8.029117
   119  C    6.006345
   120  C    6.005451
   121  O    8.003494
   122  O    8.002878
   123  C    5.996259
   124  H    0.991827
   125  H    0.991973
   126  H    1.009174
   127  H    1.001820
   128  H    0.994169
   129  H    0.987259
   130  H    1.006899
   131  H    0.997684
   132  H    1.011826
   133  H    0.995634
   134  H    0.996286
   135  H    1.001924
   136  H    0.975677
   137  H    0.979429
   138  H    0.979621
   139  H    0.994447
   140  H    0.994826
   141  H    0.985104
   142  H    0.999958
   143  H    0.999355
   144  H    1.005575
   145  H    0.987772
   146  H    0.998203
   147  H    0.999197
   148  H    1.012748
   149  H    1.005266
   150  H    1.001183
   151  H    0.995920
   152  H    1.020422
   153  H    1.021260
   154  H    1.019977
   155  H    1.008881
   156  H    1.003029
   157  H    1.003419
   158  H    1.007048
 Sum of Mulliken charges = 624.00000

 Dipole moment (field-independent basis, Debye):
    X=              9.4733    Y=              7.7992    Z=             -0.1048  Tot=             12.2712
 Quadrupole moment (field-independent basis, Debye-Ang):
   XX=            226.6706   YY=             -7.7091   ZZ=             -0.4156
   XY=             80.9112   XZ=             -7.7541   YZ=              2.2228

 Normal termination of Gaussian 16 at Wed Sep 22 13:25:28 2021.
