 Gaussian 16, Revision A.03,
 Gaussian 16:  ES64L-G16RevA.03 25-Dec-2016

 ----------------------------------------------------------
 #p cam-b3lyp/Def2SVP td=(nstates=5) density=(transition=1)
 ----------------------------------------------------------

 --------------------------------
 TDDFT excited states in gaussian
 --------------------------------
 Symbolic Z-matrix:
 Charge =  0 Multiplicity = 1

                         Standard orientation:
 ---------------------------------------------------------------------
 Center     Atomic      Atomic             Coordinates (Angstroms)
 Number     Number       Type             X           Y           Z
 ---------------------------------------------------------------------
      1         12           0       28.654156    0.660360    0.529852
      2          6           0       28.869214   -2.433300   -1.287167
      3          6           0       27.107242    1.996540   -2.367140
      4          6           0       28.464743    3.794758    2.058246
      5          6           0       30.466390   -0.590810    3.041960
      6          7           0       28.250075   -0.158200   -1.712260
      7          6           0       28.321965   -1.445082   -2.114843
      8          6           0       27.880081   -1.561089   -3.617995
      9          6           0       27.540780   -0.060135   -3.932095
     10          6           0       27.551262    0.660993   -2.564687
     11          6           0       28.523630    0.566404   -4.981869
     12          6           0       26.688457   -2.494592   -3.829825
     13          6           0       26.781470   -3.431229   -4.989421
     14          1           0       25.663160   -4.462632   -5.197962
     15          7           0       27.738611    2.536562    0.054675
     16          6           0       27.179254    2.857846   -1.177612
     17          6           0       26.674486    4.214508   -1.102351
     18          6           0       26.944483    4.724391    0.156812
     19          6           0       27.825012    3.696311    0.807281
     20          6           0       26.097893    4.978018   -2.259806
     21          6           0       26.649610    6.144537    0.792145
     22          8           0       26.918255    6.524191    1.905611
     23          6           0       25.792677    7.120037    0.014772
     24          7           0       29.454926    1.538167    2.169454
     25          6           0       29.283058    2.808207    2.655096
     26          6           0       30.197578    3.098971    3.867928
     27          6           0       30.638222    1.643510    4.324915
     28          6           0       30.119837    0.796611    3.100704
     29          6           0       31.365282    4.080645    3.531265
     30          6           0       30.028218    1.178683    5.682287
     31          6           0       28.520561    0.936239    5.682065
     32          7           0       29.530769   -1.076223    0.865660
     33          6           0       30.228427   -1.520706    2.023245
     34          6           0       30.663596   -2.906076    1.860155
     35          6           0       30.110842   -3.295437    0.626882
     36          6           0       29.428663   -2.186514    0.059920
     37          6           0       31.432410   -3.684940    2.823644
     38          6           0       30.024463   -4.445943   -0.266747
     39          8           0       30.428232   -5.585458   -0.105629
     40          6           0       29.283087   -3.916986   -1.609550
     41          6           0       28.160389   -4.952843   -1.705686
     42          8           0       27.146831   -5.062654   -0.992408
     43          8           0       28.454681   -5.810364   -2.667376
     44          6           0       27.383297   -6.765941   -3.164297
     45          1           0       26.565999    2.375311   -3.236298
     46          1           0       28.461301    4.737882    2.610253
     47          1           0       30.988528   -0.955950    3.928474
     48          1           0       28.735740   -2.020434   -4.111777
     49          1           0       26.523012    0.052528   -4.308068
     50          1           0       28.061468    1.008574   -5.864473
     51          1           0       29.367726   -0.074220   -5.237914
     52          1           0       29.044630    1.472108   -4.670637
     53          1           0       25.965789   -1.808482   -4.271884
     54          1           0       26.310974   -2.927331   -2.902698
     55          1           0       27.693211   -4.008312   -5.152002
     56          1           0       26.718230   -2.761377   -5.847046
     57          1           0       25.936856    4.331089   -3.121775
     58          1           0       26.694774    5.825517   -2.600398
     59          1           0       25.111694    5.411846   -2.093755
     60          1           0       24.798552    6.724865   -0.193883
     61          1           0       26.410977    7.294955   -0.865745
     62          1           0       25.856734    8.031962    0.608425
     63          1           0       29.553330    3.660746    4.545198
     64          1           0       31.691863    1.382943    4.222285
     65          1           0       31.254308    5.048850    4.019421
     66          1           0       31.620008    4.237724    2.483737
     67          1           0       32.215741    3.533142    3.937945
     68          1           0       30.465793    1.798558    6.464962
     69          1           0       30.454267    0.201500    5.909024
     70          1           0       27.993302    1.215397    4.770557
     71          1           0       28.126068    1.563829    6.480808
     72          1           0       28.208001   -0.105566    5.743115
     73          1           0       31.665962   -4.703250    2.512185
     74          1           0       30.821591   -3.696739    3.726255
     75          1           0       32.343873   -3.126900    3.042599
     76          1           0       29.879615   -4.086093   -2.506001
     77          1           0       27.735738   -7.124472   -4.131679
     78          1           0       26.433869   -6.270947   -3.366148
     79          1           0       27.162095   -7.572996   -2.464880
     80         12           0      -29.175594   -0.363469   -0.047767
     81          6           0      -25.943291    0.044782   -1.024167
     82          6           0      -28.096016   -2.875980    2.195064
     83          6           0      -32.052601    0.009602    1.606875
     84          6           0      -30.096629    2.563241   -1.952677
     85          7           0      -27.265772   -1.274683    0.456057
     86          6           0      -26.088664   -1.003538   -0.001784
     87          6           0      -25.001743   -2.056832    0.415717
     88          6           0      -25.798610   -3.153497    1.219771
     89          6           0      -27.193574   -2.442994    1.300522
     90          6           0      -25.707853   -4.585281    0.690060
     91          6           0      -23.741707   -1.365968    1.210655
     92          6           0      -23.960825   -0.032265    1.906344
     93          1           0      -23.004898    0.439356    3.002085
     94          7           0      -29.949927   -1.306322    1.672626
     95          6           0      -29.410372   -2.338038    2.402579
     96          6           0      -30.262092   -2.659373    3.464044
     97          6           0      -31.429882   -1.808696    3.363721
     98          6           0      -31.169849   -0.936971    2.187826
     99          6           0      -29.975471   -3.850983    4.359211
    100          6           0      -32.623917   -1.861240    4.333946
    101          8           0      -32.578402   -2.691437    5.269414
    102          6           0      -33.795053   -1.035891    4.265503
    103          7           0      -30.828242    1.227794   -0.054503
    104          6           0      -31.919870    0.955053    0.602164
    105          6           0      -33.099167    1.903053    0.242538
    106          6           0      -32.497188    2.694426   -0.939125
    107          6           0      -31.015191    2.154489   -1.063222
    108          6           0      -34.353228    1.208125   -0.148760
    109          6           0      -32.590130    4.279977   -0.737012
    110          6           0      -33.584208    5.049202   -1.700967
    111          7           0      -28.311927    0.988315   -1.342566
    112          6           0      -28.769675    2.091665   -2.073649
    113          6           0      -27.637849    2.621296   -2.896351
    114          6           0      -26.539899    1.864787   -2.462644
    115          6           0      -26.975621    0.908325   -1.498167
    116          6           0      -27.633090    3.704504   -3.861108
    117          6           0      -25.162862    1.778240   -2.637403
    118          8           0      -24.349960    2.375580   -3.358107
    119          6           0      -24.721292    0.546787   -1.796554
    120          6           0      -24.015422   -0.453474   -2.742655
    121          8           0      -22.905923   -0.941989   -2.612613
    122          8           0      -24.797219   -0.782816   -3.828762
    123          6           0      -24.226359   -1.696506   -4.825526
    124          1           0      -27.659180   -3.601374    2.884351
    125          1           0      -33.068932    0.071754    2.000897
    126          1           0      -30.427658    3.335444   -2.650070
    127          1           0      -24.710490   -2.569961   -0.501171
    128          1           0      -25.491724   -3.200697    2.265074
    129          1           0      -26.687625   -4.908642    0.339053
    130          1           0      -25.400548   -5.291860    1.461910
    131          1           0      -24.968435   -4.754181   -0.092829
    132          1           0      -22.987693   -1.337974    0.423675
    133          1           0      -23.352847   -1.938846    2.052773
    134          1           0      -24.962794   -0.137379    2.321591
    135          1           0      -24.032266    0.699025    1.101027
    136          1           0      -30.717198   -4.643451    4.462229
    137          1           0      -29.675361   -3.482987    5.340619
    138          1           0      -29.082818   -4.358752    3.994423
    139          1           0      -34.419313   -1.110513    3.375269
    140          1           0      -33.514447    0.015246    4.206663
    141          1           0      -34.416402   -1.082623    5.159299
    142          1           0      -33.466048    2.592371    1.002912
    143          1           0      -32.923086    2.418107   -1.903752
    144          1           0      -35.138808    1.213462    0.606682
    145          1           0      -34.188264    0.132932   -0.227039
    146          1           0      -34.744834    1.631511   -1.073544
    147          1           0      -31.615214    4.706029   -0.977765
    148          1           0      -32.950144    4.588801    0.243442
    149          1           0      -34.186435    5.748236   -1.122003
    150          1           0      -34.305056    4.325906   -2.082395
    151          1           0      -32.938350    5.618608   -2.369613
    152          1           0      -28.636114    3.688138   -4.288103
    153          1           0      -26.900550    3.516597   -4.646896
    154          1           0      -27.321874    4.595235   -3.316161
    155          1           0      -23.851133    0.743744   -1.170774
    156          1           0      -24.731603   -1.524422   -5.776092
    157          1           0      -24.341508   -2.768607   -4.666853
    158          1           0      -23.143664   -1.616504   -4.927189
 ---------------------------------------------------------------------

 SCF Done:  E(RCAM-B3LYP) =  -4069.76407774     A.U. after   19 cycles

 Excitation energies and oscillator strengths:

 Excited State   1:      Singlet-A      1.6510 eV  750.97 nm  f=0.3679  <S**2>=0.000
     310 -> 315       -0.18397
     312 -> 314        0.68517
     310 <- 315       -0.11254
 This state for optimization and/or second-order correction.
 Total Energy, E(TD-HF/TD-DFT) =  -4069.70340538
 Copying the excited state density for this state as the 1-particle RhoCI density.

 Excited State   2:      Singlet-A      1.7059 eV  726.79 nm  f=0.4343  <S**2>=0.000
     309 -> 316       -0.16085
     311 -> 313        0.68877
     309 <- 316       -0.10272

 Excited State   3:      Singlet-A      2.2173 eV  559.17 nm  f=0.0914  <S**2>=0.000
     310 -> 314        0.62583
     312 -> 315        0.32031

 Excited State   4:      Singlet-A      2.2508 eV  550.84 nm  f=0.1196  <S**2>=0.000
     309 -> 313        0.64223
     311 -> 316        0.27237

 Excited State   5:      Singlet-A      2.9395 eV  421.78 nm  f=0.0000  <S**2>=0.000
     312 -> 313        0.70711

 The electronic state is 1-A.
 Alpha  occ. eigenvalues --  -46.90335 -46.88275 -19.24922 -19.24917 -19.20133
 Alpha  occ. eigenvalues --  -19.19497 -19.19346 -19.18989 -19.17981 -19.17442
 Alpha  occ. eigenvalues --  -14.43219 -14.42441 -14.41946 -14.41532 -14.40560
 Alpha  occ. eigenvalues --  -14.40086 -14.39843 -14.39660 -10.39741 -10.38446
 Alpha  occ. eigenvalues --  -10.35572 -10.35373 -10.34737 -10.34279 -10.33023
 Alpha  occ. eigenvalues --  -10.32186 -10.31793 -10.31527 -10.31385 -10.31352
 Alpha  occ. eigenvalues --  -10.31289 -10.31220 -10.31069 -10.31021 -10.30773
 Alpha  occ. eigenvalues --  -10.30760 -10.30667 -10.30610 -10.30399 -10.29983
 Alpha  occ. eigenvalues --  -10.29894 -10.29656 -10.29323 -10.29286 -10.29047
 Alpha  occ. eigenvalues --  -10.28850 -10.28827 -10.28758 -10.28724 -10.28579
 Alpha  occ. eigenvalues --  -10.28490 -10.28441 -10.28397 -10.28393 -10.28349
 Alpha  occ. eigenvalues --  -10.28340 -10.28315 -10.28270 -10.28120 -10.27743
 Alpha  occ. eigenvalues --  -10.27583 -10.27515 -10.27268 -10.27196 -10.27114
 Alpha  occ. eigenvalues --  -10.27089 -10.27060 -10.26927 -10.26871 -10.26855
 Alpha  occ. eigenvalues --  -10.26816 -10.26727 -10.26597 -10.26423 -10.26204
 Alpha  occ. eigenvalues --  -10.26177 -10.26077 -10.26052 -10.26028 -10.26001
 Alpha  occ. eigenvalues --  -10.25690 -10.25670 -10.25633 -10.25402 -10.25383
 Alpha  occ. eigenvalues --  -10.24930  -3.18742  -3.16966  -1.93620  -1.93230
 Alpha  occ. eigenvalues --   -1.93009  -1.91851  -1.91438  -1.91271  -1.16161
 Alpha  occ. eigenvalues --   -1.15924  -1.11435  -1.10017  -1.09075  -1.07636
 Alpha  occ. eigenvalues --   -1.07373  -1.05266  -1.05056  -1.04531  -1.03771
 Alpha  occ. eigenvalues --   -1.03663  -1.03108  -1.02270  -1.02198  -1.01684
 Alpha  occ. eigenvalues --   -0.93021  -0.90845  -0.89692  -0.89451  -0.89236
 Alpha  occ. eigenvalues --   -0.89009  -0.88731  -0.88345  -0.87978  -0.87822
 Alpha  occ. eigenvalues --   -0.87337  -0.86936  -0.86430  -0.85317  -0.84669
 Alpha  occ. eigenvalues --   -0.84215  -0.84102  -0.83564  -0.82973  -0.82532
 Alpha  occ. eigenvalues --   -0.82347  -0.81489  -0.81483  -0.81011  -0.80291
 Alpha  occ. eigenvalues --   -0.80148  -0.78503  -0.78116  -0.77417  -0.77286
 Alpha  occ. eigenvalues --   -0.76988  -0.76937  -0.76378  -0.75960  -0.75302
 Alpha  occ. eigenvalues --   -0.75108  -0.73421  -0.72576  -0.71975  -0.71629
 Alpha  occ. eigenvalues --   -0.70049  -0.69587  -0.68944  -0.68733  -0.68430
 Alpha  occ. eigenvalues --   -0.67518  -0.66861  -0.66259  -0.66057  -0.65677
 Alpha  occ. eigenvalues --   -0.65462  -0.65101  -0.64891  -0.64566  -0.64551
 Alpha  occ. eigenvalues --   -0.64039  -0.63358  -0.61760  -0.60923  -0.59979
 Alpha  occ. eigenvalues --   -0.59576  -0.59260  -0.58967  -0.58922  -0.58544
 Alpha  occ. eigenvalues --   -0.58045  -0.57686  -0.57345  -0.57275  -0.56351
 Alpha  occ. eigenvalues --   -0.56222  -0.55638  -0.55625  -0.55623  -0.55472
 Alpha  occ. eigenvalues --   -0.55007  -0.54835  -0.54648  -0.54567  -0.53947
 Alpha  occ. eigenvalues --   -0.53887  -0.53528  -0.53312  -0.53274  -0.53197
 Alpha  occ. eigenvalues --   -0.52899  -0.52876  -0.52701  -0.52618  -0.52408
 Alpha  occ. eigenvalues --   -0.52250  -0.52101  -0.51510  -0.51501  -0.51271
 Alpha  occ. eigenvalues --   -0.50957  -0.50949  -0.50875  -0.50706  -0.50286
 Alpha  occ. eigenvalues --   -0.50094  -0.49922  -0.49782  -0.49588  -0.49586
 Alpha  occ. eigenvalues --   -0.49270  -0.49245  -0.49209  -0.49016  -0.48934
 Alpha  occ. eigenvalues --   -0.48841  -0.48635  -0.48574  -0.48420  -0.48314
 Alpha  occ. eigenvalues --   -0.48114  -0.47675  -0.47504  -0.47434  -0.47427
 Alpha  occ. eigenvalues --   -0.47204  -0.46856  -0.46773  -0.46707  -0.46636
 Alpha  occ. eigenvalues --   -0.46323  -0.46205  -0.46166  -0.45903  -0.45812
 Alpha  occ. eigenvalues --   -0.45743  -0.45485  -0.45269  -0.45220  -0.45030
 Alpha  occ. eigenvalues --   -0.44894  -0.44886  -0.44617  -0.44473  -0.44394
 Alpha  occ. eigenvalues --   -0.44142  -0.43949  -0.43841  -0.43623  -0.43608
 Alpha  occ. eigenvalues --   -0.43511  -0.43138  -0.42972  -0.42949  -0.42711
 Alpha  occ. eigenvalues --   -0.42685  -0.42479  -0.42270  -0.42128  -0.42091
 Alpha  occ. eigenvalues --   -0.42022  -0.41796  -0.41505  -0.41390  -0.40970
 Alpha  occ. eigenvalues --   -0.40893  -0.40869  -0.40733  -0.40348  -0.40169
 Alpha  occ. eigenvalues --   -0.40003  -0.39853  -0.39563  -0.39182  -0.39087
 Alpha  occ. eigenvalues --   -0.38736  -0.38615  -0.38054  -0.38031  -0.37862
 Alpha  occ. eigenvalues --   -0.37502  -0.36877  -0.36604  -0.36541  -0.36412
 Alpha  occ. eigenvalues --   -0.36038  -0.35618  -0.34828  -0.34314  -0.34057
 Alpha  occ. eigenvalues --   -0.33887  -0.33108  -0.32709  -0.31624  -0.31421
 Alpha  occ. eigenvalues --   -0.31095  -0.30967  -0.30935  -0.30780  -0.30337
 Alpha  occ. eigenvalues --   -0.30189  -0.29963  -0.29035  -0.24954  -0.24089
 Alpha  occ. eigenvalues --   -0.21681  -0.20939
 Alpha virt. eigenvalues --   -0.09539  -0.08681  -0.02014  -0.01910  -0.00042
 Alpha virt. eigenvalues --    0.00613   0.00674   0.02198   0.02410   0.03429
 Alpha virt. eigenvalues --    0.04996   0.05173   0.05246   0.05285   0.05422

 Mulliken charges:
               1
     1  Mg  12.000714
     2  C    5.977976
     3  C    6.023457
     4  C    6.028239
     5  C    5.992558
     6  N    6.990703
     7  C    6.029357
     8  C    5.995193
     9  C    6.006191
    10  C    5.966801
    11  C    6.002568
    12  C    5.994229
    13  C    5.998079
    14  H    1.000580
    15  N    7.009827
    16  C    5.948234
    17  C    5.985492
    18  C    5.981520
    19  C    5.956369
    20  C    6.006954
    21  C    5.987794
    22  O    7.973479
    23  C    6.003681
    24  N    7.012175
    25  C    5.957560
    26  C    6.007224
    27  C    5.995874
    28  C    6.033691
    29  C    6.005436
    30  C    5.994487
    31  C    5.993045
    32  N    6.994243
    33  C    6.041004
    34  C    6.028538
    35  C    6.004160
    36  C    6.036202
    37  C    5.997929
    38  C    6.014313
    39  O    8.028308
    40  C    6.002899
    41  C    6.003457
    42  O    8.005038
    43  O    8.000095
    44  C    5.997590
    45  H    0.989780
    46  H    0.993902
    47  H    1.012752
    48  H    0.996384
    49  H    1.001231
    50  H    0.997124
    51  H    0.987019
    52  H    1.002361
    53  H    1.009735
    54  H    0.996326
    55  H    0.996654
    56  H    1.005878
    57  H    0.981587
    58  H    0.979351
    59  H    0.980442
    60  H    0.992250
    61  H    0.995018
    62  H    0.985518
    63  H    1.002492
    64  H    0.997554
    65  H    1.000080
    66  H    1.001218
    67  H    0.986109
    68  H    1.010556
    69  H    0.995892
    70  H    1.011761
    71  H    1.008736
    72  H    0.995794
    73  H    1.015440
    74  H    1.018640
    75  H    1.018750
    76  H    1.008851
    77  H    1.004629
    78  H    1.005310
    79  H    1.001614
    80  Mg  11.999986
    81  C    6.000125
    82  C    6.000185
    83  C    5.999879
    84  C    5.999798
    85  N    7.000051
    86  C    6.000071
    87  C    5.999980
    88  C    6.000070
    89  C    5.999829
    90  C    5.999994
    91  C    5.999980
    92  C    5.999958
    93  H    1.000071
    94  N    6.999968
    95  C    5.999765
    96  C    5.999992
    97  C    5.999872
    98  C    5.999940
    99  C    6.000048
   100  C    5.999940
   101  O    7.999889
   102  C    6.000047
   103  N    6.999923
   104  C    6.000005
   105  C    6.000040
   106  C    5.999966
   107  C    6.000177
   108  C    6.000013
   109  C    5.999992
   110  C    6.000005
   111  N    7.000030
   112  C    6.000248
   113  C    6.000013
   114  C    6.000127
   115  C    6.000035
   116  C    5.999964
   117  C    6.000077
   118  O    8.000165
   119  C    5.999943
   120  C    6.000022
   121  O    8.000053
   122  O    7.999980
   123  C    5.999979
   124  H    0.999955
   125  H    0.999943
   126  H    1.000034
   127  H    1.000000
   128  H    0.999995
   129  H    0.999998
   130  H    0.999983
   131  H    0.999959
   132  H    1.000001
   133  H    1.000034
   134  H    1.000030
   135  H    0.999968
   136  H    0.999909
   137  H    0.999920
   138  H    0.999906
   139  H    0.999949
   140  H    0.999969
   141  H    0.999927
   142  H    0.999984
   143  H    0.999993
   144  H    0.999993
   145  H    1.000008
   146  H    0.999943
   147  H    0.999987
   148  H    1.000033
   149  H    1.000010
   150  H    1.000003
   151  H    0.999998
   152  H    1.000064
   153  H    1.000069
   154  H    1.000096
   155  H    1.000075
   156  H    1.000017
   157  H    1.000019
   158  H    1.000035
 Sum of Mulliken charges = 624.00000

 Dipole moment (field-independent basis, Debye):
    X=              4.3043    Y=             -9.5398    Z=              2.8242  Tot=             10.8403
 Quadrupole moment (field-independent basis, Debye-Ang):
   XX=            243.0367   YY=            -13.4141   ZZ=              3.5167
   XY=           -270.1185   XZ=             85.6087   YZ=             -1.0101

 Normal termination of Gaussian 16 at Wed Sep 22 09:47:09 2021.
