 Gaussian 16, Revision A.03,
 Gaussian 16:  ES64L-G16RevA.03 25-Dec-2016

 ----------------------------------------------------------
 #p cam-b3lyp/Def2SVP td=(nstates=5) density=(transition=1)
 ----------------------------------------------------------

 --------------------------------
 TDDFT excited states in gaussian
 --------------------------------
 Symbolic Z-matrix:
 Charge =  0 Multiplicity = 1

                         Standard orientation:
 ---------------------------------------------------------------------
 Center     Atomic      Atomic             Coordinates (Angstroms)
 Number     Number       Type             X           Y           Z
 ---------------------------------------------------------------------
      1         12           0        5.280216   -0.560971   -0.333861
      2          6           0        3.021657    1.887501   -1.099255
      3          6           0        7.764372    1.656482   -0.214784
      4          6           0        7.307468   -3.064169    0.162920
      5          6           0        2.681608   -2.883550   -1.079123
      6          7           0        5.423222    1.554275   -0.797925
      7          6           0        4.330572    2.357843   -0.818152
      8          6           0        4.686263    3.795233   -0.553447
      9          6           0        6.265650    3.715872   -0.559071
     10          6           0        6.531044    2.226819   -0.608685
     11          6           0        6.949799    4.535501   -1.679388
     12          6           0        3.974547    4.435748    0.788414
     13          6           0        3.308364    5.815716    0.678261
     14          1           0        3.818618    6.758019   -0.456907
     15          7           0        7.150464   -0.666915    0.092856
     16          6           0        8.075403    0.328099    0.104487
     17          6           0        9.420808   -0.147705    0.315970
     18          6           0        9.277478   -1.466110    0.627111
     19          6           0        7.890354   -1.799793    0.177244
     20          6           0       10.547611    0.851017    0.125082
     21          6           0       10.347268   -2.468619    1.103705
     22          8           0       10.136426   -3.643127    1.298122
     23          6           0       11.710261   -1.866103    1.276351
     24          7           0        5.028435   -2.684284   -0.623023
     25          6           0        6.033653   -3.475166   -0.206364
     26          6           0        5.617703   -4.949242   -0.235231
     27          6           0        4.055744   -4.869540   -0.322994
     28          6           0        3.888812   -3.390822   -0.728920
     29          6           0        6.258114   -5.893535   -1.339728
     30          6           0        3.265084   -5.139137    1.012409
     31          6           0        3.468533   -4.321141    2.260500
     32          7           0        3.223327   -0.602091   -0.880488
     33          6           0        2.305769   -1.594198   -1.240983
     34          6           0        1.006909   -1.019822   -1.614385
     35          6           0        1.239979    0.362682   -1.563400
     36          6           0        2.588073    0.521631   -1.112203
     37          6           0       -0.282318   -1.739643   -1.916507
     38          6           0        0.687584    1.623455   -1.764760
     39          8           0       -0.399757    2.003346   -2.170308
     40          6           0        1.720037    2.661477   -1.253773
     41          6           0        1.733093    3.662519   -2.345029
     42          8           0        2.341667    3.549860   -3.411880
     43          8           0        0.884739    4.697038   -2.075265
     44          6           0        0.525627    5.632966   -3.145399
     45          1           0        8.508264    2.424958    0.006517
     46          1           0        7.912602   -3.947935    0.372082
     47          1           0        1.975176   -3.702352   -1.235578
     48          1           0        4.437503    4.417121   -1.413442
     49          1           0        6.636918    4.042172    0.412174
     50          1           0        7.276816    3.854060   -2.464658
     51          1           0        7.830992    5.022272   -1.261445
     52          1           0        6.201004    5.234536   -2.052082
     53          1           0        4.774705    4.482694    1.527192
     54          1           0        3.172466    3.787832    1.140511
     55          1           0        3.514661    6.405213    1.571193
     56          1           0        2.224703    5.701091    0.655974
     57          1           0       10.627280    1.274298   -0.876333
     58          1           0       11.586812    0.523880    0.153136
     59          1           0       10.335843    1.553909    0.930835
     60          1           0       11.673209   -1.021013    1.963366
     61          1           0       11.994648   -1.663078    0.244083
     62          1           0       12.493527   -2.462755    1.742534
     63          1           0        5.997327   -5.301313    0.724614
     64          1           0        3.722696   -5.476968   -1.164840
     65          1           0        6.954791   -5.317922   -1.948688
     66          1           0        5.505332   -6.209078   -2.061147
     67          1           0        6.740869   -6.803952   -0.981240
     68          1           0        3.537628   -6.182617    1.172487
     69          1           0        2.186345   -5.081937    0.870516
     70          1           0        4.328951   -3.663745    2.128894
     71          1           0        3.697492   -4.967474    3.107673
     72          1           0        2.663546   -3.637839    2.530308
     73          1           0       -0.535835   -1.711416   -2.975312
     74          1           0       -1.092734   -1.304522   -1.331455
     75          1           0       -0.041689   -2.777165   -1.683326
     76          1           0        1.452644    3.051766   -0.271625
     77          1           0       -0.441494    6.106130   -2.971358
     78          1           0        0.664273    5.196044   -4.133144
     79          1           0        1.232712    6.457533   -3.234209
     80         12           0       -4.989373   -0.701563    0.048065
     81          6           0       -2.934846    1.962345    0.986951
     82          6           0       -7.594607    1.631340   -0.206383
     83          6           0       -7.200164   -3.186831   -0.319120
     84          6           0       -2.651894   -2.876546    1.332177
     85          7           0       -5.240732    1.618776    0.253653
     86          6           0       -4.225901    2.401245    0.707842
     87          6           0       -4.701376    3.902013    0.843589
     88          6           0       -6.295185    3.717041    0.692998
     89          6           0       -6.421209    2.244448    0.267785
     90          6           0       -6.919015    3.860349    2.126630
     91          6           0       -4.106754    4.694149   -0.378291
     92          6           0       -4.539740    6.175799   -0.548733
     93          1           0       -4.951652    6.900341   -1.795617
     94          7           0       -7.028885   -0.731384   -0.415523
     95          6           0       -7.955965    0.318454   -0.525307
     96          6           0       -9.207290   -0.242826   -0.818685
     97          6           0       -9.080168   -1.607441   -1.041196
     98          6           0       -7.726308   -1.896352   -0.597839
     99          6           0      -10.391353    0.639294   -1.044190
    100          6           0      -10.137293   -2.678865   -1.467487
    101          8           0       -9.896876   -3.867839   -1.647707
    102          6           0      -11.550693   -2.293703   -1.912780
    103          7           0       -4.947878   -2.709544    0.566934
    104          6           0       -5.936477   -3.542463    0.171767
    105          6           0       -5.579814   -5.035306    0.311702
    106          6           0       -4.176841   -4.934819    0.972259
    107          6           0       -3.826971   -3.461544    0.863399
    108          6           0       -6.680364   -5.904662    1.005696
    109          6           0       -3.068249   -5.880205    0.433688
    110          6           0       -2.479402   -5.527470   -0.866013
    111          7           0       -3.123090   -0.559666    0.889394
    112          6           0       -2.309429   -1.482040    1.348496
    113          6           0       -1.017032   -0.920722    1.755024
    114          6           0       -1.264944    0.480820    1.601707
    115          6           0       -2.547374    0.652806    1.118559
    116          6           0        0.281477   -1.575207    1.847751
    117          6           0       -0.629435    1.779464    1.740532
    118          8           0        0.511232    2.074626    2.016613
    119          6           0       -1.745428    2.777069    1.407417
    120          6           0       -1.990224    3.760467    2.556730
    121          8           0       -2.612649    3.498934    3.553089
    122          8           0       -1.329012    4.937025    2.296820
    123          6           0       -1.525814    5.945672    3.363348
    124          1           0       -8.362280    2.380085   -0.408380
    125          1           0       -7.820889   -4.029271   -0.632121
    126          1           0       -2.050568   -3.763341    1.539815
    127          1           0       -4.479553    4.323939    1.824162
    128          1           0       -6.770603    4.414931    0.002648
    129          1           0       -7.254730    2.941307    2.605934
    130          1           0       -7.900409    4.333808    2.089114
    131          1           0       -6.274750    4.373631    2.840180
    132          1           0       -4.348337    4.127557   -1.277168
    133          1           0       -3.021434    4.620316   -0.304384
    134          1           0       -3.749009    6.734485   -0.047159
    135          1           0       -5.452543    6.181051    0.045689
    136          1           0      -10.220549    1.706294   -0.898747
    137          1           0      -11.231623    0.216226   -0.491979
    138          1           0      -10.599487    0.518795   -2.107683
    139          1           0      -12.167512   -1.884746   -1.112462
    140          1           0      -12.085401   -3.073859   -2.454814
    141          1           0      -11.428576   -1.540938   -2.691808
    142          1           0       -5.535605   -5.265266   -0.752481
    143          1           0       -4.368879   -5.132141    2.026911
    144          1           0       -7.673341   -5.494394    0.824912
    145          1           0       -6.505558   -5.911713    2.081885
    146          1           0       -6.711339   -6.926915    0.628113
    147          1           0       -3.610451   -6.822345    0.359515
    148          1           0       -2.310233   -6.032285    1.202296
    149          1           0       -1.695517   -4.784616   -0.719237
    150          1           0       -3.245354   -5.197244   -1.567433
    151          1           0       -1.953716   -6.369885   -1.316540
    152          1           0        0.205791   -2.434178    1.180593
    153          1           0        0.592322   -2.033894    2.786544
    154          1           0        1.021493   -0.836946    1.540619
    155          1           0       -1.445834    3.320002    0.510392
    156          1           0       -0.607367    6.524078    3.461564
    157          1           0       -1.609332    5.560008    4.379634
    158          1           0       -2.317128    6.645758    3.097364
 ---------------------------------------------------------------------

 SCF Done:  E(RCAM-B3LYP) =  -4069.82713778     A.U. after   18 cycles

 Excitation energies and oscillator strengths:

 Excited State   1:      Singlet-A      1.6993 eV  729.63 nm  f=0.9041  <S**2>=0.000
     309 -> 316       -0.13724
     310 -> 315        0.10439
     311 -> 313        0.54818
     312 -> 314       -0.41009
 This state for optimization and/or second-order correction.
 Total Energy, E(TD-HF/TD-DFT) =  -4069.76469081
 Copying the excited state density for this state as the 1-particle RhoCI density.

 Excited State   2:      Singlet-A      1.7827 eV  695.50 nm  f=0.0212  <S**2>=0.000
     309 -> 316       -0.10444
     310 -> 315       -0.14412
     311 -> 313        0.40070
     312 -> 314        0.54206

 Excited State   3:      Singlet-A      2.2444 eV  552.41 nm  f=0.0209  <S**2>=0.000
     309 -> 313        0.52588
     310 -> 313        0.15301
     310 -> 314        0.32579
     311 -> 316        0.21495
     312 -> 315        0.16022

 Excited State   4:      Singlet-A      2.2605 eV  548.49 nm  f=0.0376  <S**2>=0.000
     309 -> 313       -0.18312
     310 -> 314        0.28068
     312 -> 313        0.58371
     312 -> 315        0.15589

 Excited State   5:      Singlet-A      2.2696 eV  546.29 nm  f=0.0884  <S**2>=0.000
     309 -> 313       -0.28716
     310 -> 314        0.42185
     311 -> 316       -0.12700
     312 -> 313       -0.38140
     312 -> 315        0.23105

 The electronic state is 1-A.
 Alpha  occ. eigenvalues --  -46.88411 -46.87538 -19.25735 -19.23632 -19.20287
 Alpha  occ. eigenvalues --  -19.19641 -19.19233 -19.19160 -19.17942 -19.17537
 Alpha  occ. eigenvalues --  -14.41933 -14.41265 -14.40815 -14.40694 -14.39614
 Alpha  occ. eigenvalues --  -14.38928 -14.38885 -14.38361 -10.39628 -10.37818
 Alpha  occ. eigenvalues --  -10.35969 -10.35672 -10.34647 -10.33286 -10.31829
 Alpha  occ. eigenvalues --  -10.30801 -10.30472 -10.30471 -10.30422 -10.30232
 Alpha  occ. eigenvalues --  -10.30142 -10.30134 -10.29933 -10.29909 -10.29746
 Alpha  occ. eigenvalues --  -10.29744 -10.29412 -10.29379 -10.28647 -10.28585
 Alpha  occ. eigenvalues --  -10.28351 -10.28328 -10.28292 -10.28258 -10.28181
 Alpha  occ. eigenvalues --  -10.28161 -10.27639 -10.27562 -10.27505 -10.27483
 Alpha  occ. eigenvalues --  -10.27472 -10.27457 -10.27444 -10.27368 -10.27354
 Alpha  occ. eigenvalues --  -10.27346 -10.27274 -10.27205 -10.27175 -10.27026
 Alpha  occ. eigenvalues --  -10.26964 -10.26899 -10.26825 -10.26753 -10.26733
 Alpha  occ. eigenvalues --  -10.26542 -10.26317 -10.26263 -10.26167 -10.26139
 Alpha  occ. eigenvalues --  -10.26124 -10.26108 -10.25851 -10.25841 -10.25779
 Alpha  occ. eigenvalues --  -10.25635 -10.25613 -10.25587 -10.25199 -10.25101
 Alpha  occ. eigenvalues --  -10.25046 -10.25030 -10.25025 -10.24727 -10.24123
 Alpha  occ. eigenvalues --  -10.23684  -3.16974  -3.16392  -1.91860  -1.91443
 Alpha  occ. eigenvalues --   -1.91264  -1.91255  -1.90861  -1.90726  -1.16740
 Alpha  occ. eigenvalues --   -1.14507  -1.11237  -1.10571  -1.10200  -1.08836
 Alpha  occ. eigenvalues --   -1.08671  -1.05558  -1.05174  -1.04732  -1.04266
 Alpha  occ. eigenvalues --   -1.03754  -1.03484  -1.03118  -1.02614  -1.02199
 Alpha  occ. eigenvalues --   -0.93534  -0.91832  -0.89296  -0.89285  -0.88353
 Alpha  occ. eigenvalues --   -0.88134  -0.87834  -0.87658  -0.87407  -0.87242
 Alpha  occ. eigenvalues --   -0.87078  -0.87003  -0.86263  -0.85918  -0.83856
 Alpha  occ. eigenvalues --   -0.83793  -0.83447  -0.83290  -0.82432  -0.82189
 Alpha  occ. eigenvalues --   -0.82067  -0.81285  -0.80730  -0.80652  -0.80199
 Alpha  occ. eigenvalues --   -0.80160  -0.78674  -0.78290  -0.77443  -0.77169
 Alpha  occ. eigenvalues --   -0.76567  -0.76390  -0.75887  -0.75265  -0.74899
 Alpha  occ. eigenvalues --   -0.74612  -0.72272  -0.72247  -0.71583  -0.71310
 Alpha  occ. eigenvalues --   -0.69890  -0.69385  -0.68943  -0.68642  -0.68065
 Alpha  occ. eigenvalues --   -0.67672  -0.66793  -0.66741  -0.65089  -0.64820
 Alpha  occ. eigenvalues --   -0.64690  -0.64500  -0.64325  -0.64266  -0.63789
 Alpha  occ. eigenvalues --   -0.63396  -0.62354  -0.61385  -0.60789  -0.59861
 Alpha  occ. eigenvalues --   -0.59239  -0.59153  -0.58896  -0.58839  -0.58414
 Alpha  occ. eigenvalues --   -0.58028  -0.57414  -0.57396  -0.57240  -0.57039
 Alpha  occ. eigenvalues --   -0.56361  -0.55975  -0.55602  -0.55298  -0.55046
 Alpha  occ. eigenvalues --   -0.54938  -0.54775  -0.54487  -0.54427  -0.54071
 Alpha  occ. eigenvalues --   -0.53665  -0.53161  -0.53084  -0.52977  -0.52843
 Alpha  occ. eigenvalues --   -0.52588  -0.52335  -0.52299  -0.52272  -0.52101
 Alpha  occ. eigenvalues --   -0.51880  -0.51702  -0.51394  -0.51078  -0.50894
 Alpha  occ. eigenvalues --   -0.50649  -0.50501  -0.50308  -0.50140  -0.50085
 Alpha  occ. eigenvalues --   -0.49960  -0.49827  -0.49474  -0.49353  -0.49157
 Alpha  occ. eigenvalues --   -0.49132  -0.48978  -0.48851  -0.48751  -0.48488
 Alpha  occ. eigenvalues --   -0.48389  -0.48300  -0.48264  -0.47750  -0.47713
 Alpha  occ. eigenvalues --   -0.47666  -0.47382  -0.47269  -0.46889  -0.46811
 Alpha  occ. eigenvalues --   -0.46490  -0.46483  -0.46243  -0.46086  -0.45919
 Alpha  occ. eigenvalues --   -0.45754  -0.45613  -0.45372  -0.45216  -0.45054
 Alpha  occ. eigenvalues --   -0.44948  -0.44884  -0.44813  -0.44528  -0.44396
 Alpha  occ. eigenvalues --   -0.44154  -0.44084  -0.43950  -0.43827  -0.43740
 Alpha  occ. eigenvalues --   -0.43705  -0.43511  -0.43465  -0.43447  -0.43164
 Alpha  occ. eigenvalues --   -0.43094  -0.42993  -0.42862  -0.42625  -0.42509
 Alpha  occ. eigenvalues --   -0.42486  -0.42400  -0.42216  -0.42193  -0.42102
 Alpha  occ. eigenvalues --   -0.41746  -0.41642  -0.41494  -0.41371  -0.41174
 Alpha  occ. eigenvalues --   -0.40872  -0.40687  -0.40551  -0.40294  -0.40063
 Alpha  occ. eigenvalues --   -0.39924  -0.39459  -0.39159  -0.38778  -0.38719
 Alpha  occ. eigenvalues --   -0.38226  -0.38083  -0.37838  -0.37563  -0.37452
 Alpha  occ. eigenvalues --   -0.37101  -0.36436  -0.36353  -0.36089  -0.35995
 Alpha  occ. eigenvalues --   -0.35776  -0.34861  -0.34765  -0.34023  -0.33976
 Alpha  occ. eigenvalues --   -0.32946  -0.32843  -0.32552  -0.32154  -0.31237
 Alpha  occ. eigenvalues --   -0.31049  -0.31020  -0.30798  -0.30320  -0.29851
 Alpha  occ. eigenvalues --   -0.29780  -0.29369  -0.28980  -0.23529  -0.23358
 Alpha  occ. eigenvalues --   -0.20835  -0.20215
 Alpha virt. eigenvalues --   -0.08162  -0.07469  -0.01359  -0.01053   0.00362
 Alpha virt. eigenvalues --    0.00702   0.02204   0.02708   0.02983   0.03556
 Alpha virt. eigenvalues --    0.05310   0.05606   0.05826   0.06531   0.06541

 Mulliken charges:
               1
     1  Mg  12.000113
     2  C    5.983716
     3  C    6.006243
     4  C    6.015489
     5  C    6.000792
     6  N    6.993721
     7  C    6.022141
     8  C    5.990956
     9  C    6.007885
    10  C    5.978816
    11  C    6.002409
    12  C    5.997073
    13  C    6.000336
    14  H    0.998700
    15  N    7.005917
    16  C    5.977036
    17  C    5.986283
    18  C    5.989155
    19  C    5.976756
    20  C    6.002071
    21  C    5.991338
    22  O    7.983302
    23  C    6.004467
    24  N    7.003252
    25  C    5.977688
    26  C    6.005622
    27  C    5.996321
    28  C    6.014294
    29  C    6.000773
    30  C    5.994708
    31  C    5.995343
    32  N    6.998638
    33  C    6.021573
    34  C    6.028843
    35  C    6.005975
    36  C    6.018334
    37  C    5.998661
    38  C    6.014497
    39  O    8.018994
    40  C    6.001695
    41  C    6.000806
    42  O    8.001984
    43  O    8.001270
    44  C    5.999447
    45  H    0.990293
    46  H    0.995206
    47  H    1.006278
    48  H    0.999256
    49  H    0.997931
    50  H    0.998440
    51  H    0.998121
    52  H    0.990115
    53  H    1.004958
    54  H    1.001634
    55  H    1.000406
    56  H    0.998500
    57  H    0.986784
    58  H    0.988232
    59  H    0.991375
    60  H    0.995960
    61  H    0.996000
    62  H    0.989075
    63  H    1.000431
    64  H    0.998185
    65  H    1.001043
    66  H    0.991379
    67  H    0.996878
    68  H    1.003361
    69  H    0.999644
    70  H    1.007448
    71  H    1.000112
    72  H    1.004972
    73  H    1.004705
    74  H    1.021562
    75  H    1.006169
    76  H    1.008151
    77  H    0.999613
    78  H    0.998979
    79  H    1.002693
    80  Mg  11.996639
    81  C    6.003399
    82  C    5.983816
    83  C    5.988718
    84  C    6.019165
    85  N    6.996321
    86  C    5.984387
    87  C    6.007740
    88  C    5.990177
    89  C    6.032062
    90  C    5.996888
    91  C    6.003399
    92  C    5.999462
    93  H    0.996570
    94  N    6.993157
    95  C    6.038273
    96  C    6.009067
    97  C    6.021180
    98  C    6.022600
    99  C    5.996228
   100  C    6.009508
   101  O    8.023552
   102  C    5.995648
   103  N    7.004040
   104  C    6.026500
   105  C    5.993596
   106  C    6.008745
   107  C    5.970172
   108  C    5.997054
   109  C    6.001358
   110  C    6.004583
   111  N    7.001344
   112  C    5.966934
   113  C    5.964084
   114  C    5.997044
   115  C    5.974453
   116  C    6.002199
   117  C    5.982300
   118  O    7.979831
   119  C    6.001398
   120  C    5.998135
   121  O    7.996478
   122  O    7.999090
   123  C    6.000748
   124  H    1.008629
   125  H    1.007491
   126  H    0.995753
   127  H    1.000680
   128  H    1.003087
   129  H    1.000002
   130  H    1.001904
   131  H    1.012973
   132  H    0.992984
   133  H    1.005123
   134  H    1.003132
   135  H    0.995726
   136  H    1.016244
   137  H    1.015582
   138  H    1.015375
   139  H    1.008265
   140  H    1.013209
   141  H    1.005555
   142  H    0.999702
   143  H    0.997403
   144  H    0.994536
   145  H    1.008044
   146  H    1.006994
   147  H    0.995141
   148  H    1.004234
   149  H    1.002550
   150  H    0.992014
   151  H    0.998767
   152  H    0.979410
   153  H    0.985536
   154  H    0.983963
   155  H    0.990662
   156  H    0.999411
   157  H    0.999350
   158  H    0.995204
 Sum of Mulliken charges = 624.00000

 Dipole moment (field-independent basis, Debye):
    X=            -16.3680    Y=             -0.8797    Z=             -3.4520  Tot=             16.7512
 Quadrupole moment (field-independent basis, Debye-Ang):
   XX=             19.2544   YY=             -0.4793   ZZ=             -0.0220
   XY=             14.5622   XZ=              7.6701   YZ=              3.0166

 Normal termination of Gaussian 16 at Tue Sep 21 17:06:00 2021.
