 Gaussian 16, Revision A.03,
 Gaussian 16:  ES64L-G16RevA.03 25-Dec-2016

 -----------------------------------
 #p cam-b3lyp/Def2SVP td=(nstates=5)
 -----------------------------------

 --------------------------------
 TDDFT excited states in gaussian
 --------------------------------
 Symbolic Z-matrix:
 Charge =  0 Multiplicity = 1

                         Standard orientation:
 ---------------------------------------------------------------------
 Center     Atomic      Atomic             Coordinates (Angstroms)
 Number     Number       Type             X           Y           Z
 ---------------------------------------------------------------------
      1         12           0      -28.040281   -0.175702   -0.511532
      2          6           0      -25.039344    0.980916    0.718467
      3          6           0      -27.198951   -3.303403    0.571956
      4          6           0      -31.264745   -0.893293   -0.536137
      5          6           0      -28.760047    3.109088   -1.521270
      6          7           0      -26.483715   -0.899377    0.943960
      7          6           0      -25.265044   -0.320095    1.096554
      8          6           0      -24.268486   -1.229023    1.753165
      9          6           0      -24.827623   -2.614484    1.293918
     10          6           0      -26.233416   -2.256533    0.834886
     11          6           0      -23.934807   -3.308493    0.225629
     12          6           0      -24.281677   -1.090100    3.357680
     13          6           0      -22.861581   -1.259204    4.072680
     14          1           0      -22.954572   -2.430929    5.018436
     15          7           0      -29.050740   -1.934622   -0.231498
     16          6           0      -28.601908   -3.098404    0.287848
     17          6           0      -29.687109   -4.064783    0.400272
     18          6           0      -30.870626   -3.383785    0.048482
     19          6           0      -30.413462   -1.998876   -0.256322
     20          6           0      -29.428388   -5.505401    0.904213
     21          6           0      -32.239258   -3.978456    0.230418
     22          8           0      -32.346121   -5.113465    0.615875
     23          6           0      -33.561031   -3.219729    0.004928
     24          7           0      -29.815362    0.899676   -1.092410
     25          6           0      -30.964578    0.396280   -0.993872
     26          6           0      -32.058631    1.363961   -1.256452
     27          6           0      -31.266916    2.686885   -1.598520
     28          6           0      -29.883487    2.240755   -1.401450
     29          6           0      -33.055473    0.832272   -2.341086
     30          6           0      -31.667542    3.894346   -0.630423
     31          6           0      -31.323827    5.350048   -1.108034
     32          7           0      -27.115132    1.669119   -0.522172
     33          6           0      -27.495045    2.884124   -1.062856
     34          6           0      -26.413182    3.827118   -0.997336
     35          6           0      -25.373035    3.090401   -0.329747
     36          6           0      -25.886826    1.856078    0.018207
     37          6           0      -26.388578    5.232155   -1.506861
     38          6           0      -24.023352    3.170713    0.111349
     39          8           0      -23.147055    4.044716    0.094746
     40          6           0      -23.812653    1.884975    0.977666
     41          6           0      -22.481593    1.327883    0.596735
     42          8           0      -21.419106    1.567007    1.187627
     43          8           0      -22.605280    0.564530   -0.531229
     44          6           0      -21.259961    0.057812   -0.922660
     45          1           0      -26.980198   -4.358462    0.751422
     46          1           0      -32.325626   -1.143218   -0.477735
     47          1           0      -29.032089    4.150320   -1.710482
     48          1           0      -23.332119   -1.000032    1.245931
     49          1           0      -24.824568   -3.297445    2.143582
     50          1           0      -23.532424   -4.232905    0.638927
     51          1           0      -23.077016   -2.657302    0.054397
     52          1           0      -24.533899   -3.421838   -0.677346
     53          1           0      -25.014309   -1.697877    3.888463
     54          1           0      -24.629145   -0.098956    3.647451
     55          1           0      -22.760416   -0.356200    4.674903
     56          1           0      -21.953176   -1.295482    3.471250
     57          1           0      -29.986805   -5.787101    1.796837
     58          1           0      -28.375391   -5.736425    1.069011
     59          1           0      -29.690954   -6.174650    0.085582
     60          1           0      -33.711328   -2.915102   -1.030275
     61          1           0      -33.688453   -2.356929    0.659201
     62          1           0      -34.328230   -3.889254    0.395018
     63          1           0      -32.541110    1.462410   -0.284111
     64          1           0      -31.276841    3.046340   -2.627217
     65          1           0      -34.039088    0.796050   -1.873312
     66          1           0      -32.762940   -0.148133   -2.717457
     67          1           0      -33.270156    1.545008   -3.137188
     68          1           0      -31.193921    3.765052    0.342980
     69          1           0      -32.743260    3.800258   -0.489222
     70          1           0      -32.105873    6.095332   -1.250539
     71          1           0      -30.856432    5.328460   -2.091552
     72          1           0      -30.612290    5.812061   -0.423647
     73          1           0      -27.231594    5.543761   -2.123255
     74          1           0      -25.448511    5.199968   -2.056149
     75          1           0      -26.234226    5.765963   -0.569049
     76          1           0      -23.859070    2.056257    2.053654
     77          1           0      -20.653052    0.887704   -1.283251
     78          1           0      -21.288687   -0.569554   -1.813579
     79          1           0      -20.845388   -0.470970   -0.064141
     80         12           0       27.787460    0.464720   -0.222997
     81          6           0       25.848211   -2.347496   -0.247781
     82          6           0       24.909373    2.253188    0.863568
     83          6           0       29.749877    3.177393    0.196818
     84          6           0       30.636256   -1.534967   -0.373818
     85          7           0       25.628425   -0.116546    0.632296
     86          6           0       25.044152   -1.291534    0.265217
     87          6           0       23.606001   -1.304528    0.703966
     88          6           0       23.300552    0.204720    1.101983
     89          6           0       24.681635    0.889959    0.854500
     90          6           0       21.988651    0.750509    0.670065
     91          6           0       23.106048   -2.394885    1.765357
     92          6           0       24.078278   -2.871207    2.803555
     93          1           0       23.594187   -2.892228    4.246644
     94          7           0       27.331225    2.471814    0.204645
     95          6           0       26.138851    3.004498    0.585761
     96          6           0       26.233499    4.411434    0.841102
     97          6           0       27.655087    4.729515    0.529304
     98          6           0       28.317451    3.429800    0.283835
     99          6           0       25.187570    5.332330    1.255785
    100          6           0       28.337890    6.088403    0.469682
    101          8           0       27.775380    7.058873    0.835020
    102          6           0       29.761778    6.356557    0.067867
    103          7           0       29.851116    0.746390    0.021718
    104          6           0       30.390888    1.974465   -0.007031
    105          6           0       31.991565    1.900644    0.215172
    106          6           0       32.238829    0.419326   -0.354051
    107          6           0       30.852249   -0.150473   -0.171549
    108          6           0       32.814717    2.975432   -0.500326
    109          6           0       33.415664   -0.295893    0.333814
    110          6           0       34.486484   -1.017403   -0.492989
    111          7           0       28.191351   -1.548694   -0.186344
    112          6           0       29.383804   -2.253382   -0.294723
    113          6           0       29.156740   -3.636270   -0.460994
    114          6           0       27.778223   -3.762665   -0.508712
    115          6           0       27.209182   -2.451381   -0.335395
    116          6           0       30.174936   -4.720020   -0.637763
    117          6           0       26.657566   -4.586751   -0.695500
    118          8           0       26.651559   -5.801582   -0.883724
    119          6           0       25.371472   -3.775265   -0.369446
    120          6           0       24.479148   -4.046112   -1.571823
    121          8           0       23.301006   -4.454178   -1.492850
    122          8           0       25.157314   -3.625787   -2.691646
    123          6           0       24.497583   -3.510805   -4.015282
    124          1           0       24.027715    2.715233    1.312481
    125          1           0       30.380037    4.004285    0.530527
    126          1           0       31.532861   -2.146419   -0.491980
    127          1           0       22.990803   -1.601537   -0.146187
    128          1           0       23.256994    0.221493    2.190600
    129          1           0       22.062006    1.724113    0.185632
    130          1           0       21.248358    0.726834    1.469771
    131          1           0       21.577742    0.116728   -0.115851
    132          1           0       22.771328   -3.333111    1.322717
    133          1           0       22.326191   -1.958799    2.390442
    134          1           0       25.083784   -2.462410    2.709566
    135          1           0       24.191399   -3.945903    2.657196
    136          1           0       24.236280    4.983848    0.854868
    137          1           0       25.348700    6.361705    0.937815
    138          1           0       25.159221    5.301307    2.345572
    139          1           0       29.814739    5.535541   -0.647534
    140          1           0       30.468386    6.210309    0.884227
    141          1           0       29.978386    7.324982   -0.383359
    142          1           0       32.136857    1.877048    1.295614
    143          1           0       32.419695    0.293196   -1.421229
    144          1           0       33.303935    2.488149   -1.344167
    145          1           0       33.420484    3.529051    0.216477
    146          1           0       32.202608    3.764496   -0.936120
    147          1           0       32.977900   -1.026768    1.014253
    148          1           0       33.882780    0.414418    1.016153
    149          1           0       35.535987   -0.813872   -0.279805
    150          1           0       34.309748   -0.952864   -1.567427
    151          1           0       34.224861   -2.062345   -0.329491
    152          1           0       29.865191   -5.534423   -1.293116
    153          1           0       30.411064   -5.133240    0.343120
    154          1           0       31.099686   -4.371464   -1.099454
    155          1           0       25.022112   -4.241506    0.550980
    156          1           0       24.829299   -2.635910   -4.574138
    157          1           0       23.421869   -3.443641   -3.851906
    158          1           0       24.583888   -4.309262   -4.751185
 ---------------------------------------------------------------------

 SCF Done:  E(RCAM-B3LYP) =  -4069.74671548     A.U. after   19 cycles

 Excitation energies and oscillator strengths:

 Excited State   1:      Singlet-A      1.6347 eV  758.44 nm  f=0.3844  <S**2>=0.000
     309 -> 315       -0.16911
     311 -> 313        0.68879
     309 <- 315       -0.10872
 This state for optimization and/or second-order correction.
 Total Energy, E(TD-HF/TD-DFT) =  -4069.68664052
 Copying the excited state density for this state as the 1-particle RhoCI density.

 Excited State   2:      Singlet-A      1.6890 eV  734.06 nm  f=0.3619  <S**2>=0.000
     310 -> 316        0.16436
     312 -> 314        0.68793
     310 <- 316        0.10172

 Excited State   3:      Singlet-A      2.1488 eV  576.98 nm  f=0.1483  <S**2>=0.000
     309 -> 313        0.65208
     311 -> 315        0.25547

 Excited State   4:      Singlet-A      2.2121 eV  560.48 nm  f=0.1066  <S**2>=0.000
     310 -> 314        0.64120
     312 -> 316       -0.27965

 Excited State   5:      Singlet-A      2.9567 eV  419.34 nm  f=0.0000  <S**2>=0.000
     312 -> 313        0.70711

 The electronic state is 1-A.
 Alpha  occ. eigenvalues --  -46.89951 -46.89216 -19.26225 -19.25553 -19.20327
 Alpha  occ. eigenvalues --  -19.19517 -19.19034 -19.18480 -19.17892 -19.17241
 Alpha  occ. eigenvalues --  -14.42584 -14.42106 -14.42037 -14.41901 -14.40304
 Alpha  occ. eigenvalues --  -14.40057 -14.39662 -14.38583 -10.40480 -10.38654
 Alpha  occ. eigenvalues --  -10.35750 -10.34279 -10.34064 -10.33578 -10.32824
 Alpha  occ. eigenvalues --  -10.32309 -10.32094 -10.31705 -10.31703 -10.31609
 Alpha  occ. eigenvalues --  -10.31013 -10.30976 -10.30929 -10.30762 -10.30699
 Alpha  occ. eigenvalues --  -10.30675 -10.30246 -10.30179 -10.29962 -10.29392
 Alpha  occ. eigenvalues --  -10.29366 -10.28899 -10.28858 -10.28776 -10.28465
 Alpha  occ. eigenvalues --  -10.28435 -10.28384 -10.28383 -10.28299 -10.28205
 Alpha  occ. eigenvalues --  -10.28202 -10.28155 -10.28032 -10.27971 -10.27961
 Alpha  occ. eigenvalues --  -10.27843 -10.27806 -10.27771 -10.27681 -10.27578
 Alpha  occ. eigenvalues --  -10.27565 -10.27521 -10.27513 -10.27427 -10.27253
 Alpha  occ. eigenvalues --  -10.27234 -10.27162 -10.26990 -10.26795 -10.26781
 Alpha  occ. eigenvalues --  -10.26732 -10.26694 -10.26663 -10.26650 -10.26607
 Alpha  occ. eigenvalues --  -10.26577 -10.26348 -10.26273 -10.26227 -10.26214
 Alpha  occ. eigenvalues --  -10.26210 -10.26067 -10.25517 -10.25167 -10.25082
 Alpha  occ. eigenvalues --  -10.24426  -3.18423  -3.17789  -1.93281  -1.92915
 Alpha  occ. eigenvalues --   -1.92698  -1.92677  -1.92259  -1.92080  -1.15941
 Alpha  occ. eigenvalues --   -1.15685  -1.11951  -1.11418  -1.09361  -1.08099
 Alpha  occ. eigenvalues --   -1.07256  -1.07045  -1.06419  -1.05173  -1.04585
 Alpha  occ. eigenvalues --   -1.04369  -1.03930  -1.02941  -1.02822  -1.02161
 Alpha  occ. eigenvalues --   -0.93697  -0.92491  -0.89848  -0.89725  -0.88742
 Alpha  occ. eigenvalues --   -0.88683  -0.88410  -0.88252  -0.87948  -0.87293
 Alpha  occ. eigenvalues --   -0.87258  -0.86872  -0.86622  -0.85893  -0.84558
 Alpha  occ. eigenvalues --   -0.84293  -0.84004  -0.83798  -0.83107  -0.82270
 Alpha  occ. eigenvalues --   -0.82184  -0.81822  -0.80991  -0.80908  -0.80597
 Alpha  occ. eigenvalues --   -0.80339  -0.78525  -0.78418  -0.77836  -0.77814
 Alpha  occ. eigenvalues --   -0.77000  -0.76801  -0.76704  -0.75965  -0.75486
 Alpha  occ. eigenvalues --   -0.75484  -0.73595  -0.72684  -0.72216  -0.71762
 Alpha  occ. eigenvalues --   -0.70481  -0.70041  -0.69398  -0.69307  -0.68413
 Alpha  occ. eigenvalues --   -0.68145  -0.67742  -0.66817  -0.66577  -0.66282
 Alpha  occ. eigenvalues --   -0.65502  -0.65352  -0.64845  -0.64723  -0.64454
 Alpha  occ. eigenvalues --   -0.64410  -0.63604  -0.62413  -0.60510  -0.60290
 Alpha  occ. eigenvalues --   -0.59616  -0.59404  -0.59177  -0.58898  -0.58796
 Alpha  occ. eigenvalues --   -0.58073  -0.57970  -0.57632  -0.57228  -0.56990
 Alpha  occ. eigenvalues --   -0.56685  -0.56539  -0.56203  -0.55807  -0.55664
 Alpha  occ. eigenvalues --   -0.55337  -0.55120  -0.55035  -0.54474  -0.54135
 Alpha  occ. eigenvalues --   -0.53981  -0.53582  -0.53283  -0.53193  -0.52941
 Alpha  occ. eigenvalues --   -0.52655  -0.52518  -0.52384  -0.52087  -0.51969
 Alpha  occ. eigenvalues --   -0.51855  -0.51813  -0.51695  -0.51359  -0.51227
 Alpha  occ. eigenvalues --   -0.51179  -0.51089  -0.50702  -0.50643  -0.50601
 Alpha  occ. eigenvalues --   -0.50403  -0.50205  -0.49990  -0.49910  -0.49722
 Alpha  occ. eigenvalues --   -0.49684  -0.49471  -0.49193  -0.49134  -0.49006
 Alpha  occ. eigenvalues --   -0.48933  -0.48618  -0.48333  -0.48238  -0.47879
 Alpha  occ. eigenvalues --   -0.47764  -0.47672  -0.47569  -0.47400  -0.47315
 Alpha  occ. eigenvalues --   -0.47231  -0.47092  -0.46918  -0.46909  -0.46807
 Alpha  occ. eigenvalues --   -0.46422  -0.46278  -0.46216  -0.46151  -0.45822
 Alpha  occ. eigenvalues --   -0.45804  -0.45625  -0.45538  -0.45370  -0.45326
 Alpha  occ. eigenvalues --   -0.45098  -0.45028  -0.44893  -0.44659  -0.44409
 Alpha  occ. eigenvalues --   -0.44291  -0.44201  -0.44163  -0.44009  -0.43975
 Alpha  occ. eigenvalues --   -0.43391  -0.43369  -0.43156  -0.43080  -0.42911
 Alpha  occ. eigenvalues --   -0.42716  -0.42646  -0.42599  -0.42382  -0.42178
 Alpha  occ. eigenvalues --   -0.42084  -0.41955  -0.41952  -0.41890  -0.41735
 Alpha  occ. eigenvalues --   -0.41492  -0.41446  -0.41295  -0.41154  -0.40758
 Alpha  occ. eigenvalues --   -0.40572  -0.40236  -0.40063  -0.39612  -0.39040
 Alpha  occ. eigenvalues --   -0.38683  -0.38614  -0.38277  -0.37993  -0.37700
 Alpha  occ. eigenvalues --   -0.37374  -0.36889  -0.36805  -0.36698  -0.36479
 Alpha  occ. eigenvalues --   -0.36155  -0.35610  -0.34958  -0.34790  -0.33871
 Alpha  occ. eigenvalues --   -0.33589  -0.33376  -0.33090  -0.31901  -0.31576
 Alpha  occ. eigenvalues --   -0.31372  -0.30901  -0.30589  -0.30512  -0.30043
 Alpha  occ. eigenvalues --   -0.29552  -0.28950  -0.28356  -0.24467  -0.24176
 Alpha  occ. eigenvalues --   -0.21724  -0.21155
 Alpha virt. eigenvalues --   -0.09671  -0.08790  -0.01964  -0.01792   0.00139
 Alpha virt. eigenvalues --    0.00213   0.00996   0.01672   0.02368   0.02688
 Alpha virt. eigenvalues --    0.04565   0.04632   0.04908   0.05815   0.05908

 Mulliken charges:
               1
     1  Mg   0.827987
     2  C    0.029838
     3  C   -0.080486
     4  C   -0.070076
     5  C   -0.085117
     6  N   -0.279628
     7  C   -0.085642
     8  C    0.013190
     9  C   -0.095829
    10  C    0.097069
    11  C    0.091207
    12  C    0.062608
    13  C   -0.075213
    14  H    0.013429
    15  N   -0.375435
    16  C    0.100308
    17  C   -0.121973
    18  C   -0.020111
    19  C    0.147713
    20  C    0.133010
    21  C   -0.028648
    22  O   -0.181297
    23  C    0.044389
    24  N   -0.219562
    25  C   -0.003952
    26  C   -0.028911
    27  C    0.001895
    28  C   -0.020758
    29  C    0.065830
    30  C    0.026745
    31  C   -0.008595
    32  N   -0.362124
    33  C    0.142931
    34  C   -0.189895
    35  C    0.039482
    36  C    0.070795
    37  C    0.143849
    38  C    0.011169
    39  O   -0.189832
    40  C    0.005472
    41  C    0.179219
    42  O   -0.228203
    43  O   -0.342860
    44  C    0.180406
    45  H   -0.022453
    46  H   -0.067120
    47  H   -0.047005
    48  H    0.007635
    49  H    0.015469
    50  H    0.019119
    51  H    0.006656
    52  H    0.019683
    53  H    0.017316
    54  H    0.008058
    55  H    0.035236
    56  H    0.040861
    57  H    0.046014
    58  H   -0.003625
    59  H    0.028832
    60  H    0.045401
    61  H    0.039470
    62  H    0.024604
    63  H    0.020012
    64  H    0.015938
    65  H    0.008867
    66  H    0.036929
    67  H    0.015497
    68  H    0.016344
    69  H    0.011560
    70  H    0.016005
    71  H    0.015039
    72  H    0.022409
    73  H    0.021516
    74  H    0.042226
    75  H    0.041820
    76  H    0.048100
    77  H    0.046362
    78  H    0.028325
    79  H    0.044505
    80  Mg   0.824949
    81  C    0.019325
    82  C   -0.076957
    83  C   -0.075320
    84  C   -0.091276
    85  N   -0.272160
    86  C   -0.046306
    87  C    0.019140
    88  C   -0.037956
    89  C    0.011842
    90  C    0.090875
    91  C    0.034492
    92  C   -0.113666
    93  H    0.011954
    94  N   -0.363512
    95  C    0.155789
    96  C   -0.164902
    97  C   -0.053234
    98  C    0.113982
    99  C    0.136377
   100  C   -0.034853
   101  O   -0.178678
   102  C    0.046383
   103  N   -0.288409
   104  C    0.057827
   105  C   -0.083520
   106  C   -0.035974
   107  C    0.048049
   108  C    0.096423
   109  C    0.030976
   110  C    0.010223
   111  N   -0.351629
   112  C    0.123535
   113  C   -0.172823
   114  C    0.107901
   115  C    0.078500
   116  C    0.118784
   117  C   -0.023667
   118  O   -0.180964
   119  C   -0.040753
   120  C    0.244525
   121  O   -0.225270
   122  O   -0.349248
   123  C    0.180466
   124  H   -0.016047
   125  H   -0.017623
   126  H   -0.037892
   127  H    0.015016
   128  H    0.022366
   129  H    0.014231
   130  H    0.019030
   131  H    0.005486
   132  H    0.034695
   133  H    0.020743
   134  H    0.042981
   135  H    0.033984
   136  H    0.010787
   137  H    0.039558
   138  H    0.029666
   139  H    0.015075
   140  H    0.049010
   141  H    0.031123
   142  H    0.029330
   143  H    0.016130
   144  H    0.016705
   145  H    0.016751
   146  H    0.012750
   147  H    0.006068
   148  H    0.002119
   149  H    0.033165
   150  H    0.005106
   151  H    0.010957
   152  H    0.037295
   153  H    0.037058
   154  H    0.010953
   155  H    0.037016
   156  H    0.035831
   157  H    0.037919
   158  H    0.041414
 Sum of Mulliken charges =  -0.00000

 Dipole moment (field-independent basis, Debye):
    X=             -1.7020    Y=             -0.2711    Z=             -4.8326  Tot=              5.1307
 Quadrupole moment (field-independent basis, Debye-Ang):
   XX=            -27.2334   YY=           -591.5575   ZZ=           -497.4630
   XY=             12.7226   XZ=             10.9735   YZ=             -9.5038

 Normal termination of Gaussian 16 at Thu Sep 16 02:41:15 2021.
