 Gaussian 16, Revision A.03,
 Gaussian 16:  ES64L-G16RevA.03 25-Dec-2016

 ----------------------------------------------------------
 #p cam-b3lyp/Def2SVP td=(nstates=5) density=(transition=1)
 ----------------------------------------------------------

 --------------------------------
 TDDFT excited states in gaussian
 --------------------------------
 Symbolic Z-matrix:
 Charge =  0 Multiplicity = 1

                         Standard orientation:
 ---------------------------------------------------------------------
 Center     Atomic      Atomic             Coordinates (Angstroms)
 Number     Number       Type             X           Y           Z
 ---------------------------------------------------------------------
      1         12           0      -12.406303   -0.492662    0.210252
      2          6           0       -8.948282   -0.019940   -0.607200
      3          6           0      -13.101065   -0.596874   -2.997243
      4          6           0      -15.561751   -0.105373    1.147048
      5          6           0      -11.389507    0.038337    3.704948
      6          7           0      -11.144419   -0.371872   -1.586785
      7          6           0       -9.760315   -0.145428   -1.722892
      8          6           0       -9.268986   -0.090903   -3.218806
      9          6           0      -10.722982   -0.363454   -3.949038
     10          6           0      -11.739364   -0.470551   -2.816562
     11          6           0      -11.121599    0.801963   -4.952713
     12          6           0       -8.118030   -1.087034   -3.596933
     13          6           0       -7.921620   -1.337551   -5.087342
     14          1           0       -6.589687   -0.815791   -5.656818
     15          7           0      -14.108506   -0.468059   -0.795400
     16          6           0      -14.275112   -0.545278   -2.158189
     17          6           0      -15.670399   -0.552582   -2.544149
     18          6           0      -16.378850   -0.418141   -1.284925
     19          6           0      -15.312293   -0.397047   -0.221435
     20          6           0      -16.204454   -0.731979   -3.886899
     21          6           0      -17.870766   -0.367583   -1.004729
     22          8           0      -18.348723   -0.372745    0.094929
     23          6           0      -18.736066   -0.218405   -2.227819
     24          7           0      -13.345935   -0.025357    2.151604
     25          6           0      -14.698388    0.041458    2.238254
     26          6           0      -15.152195    0.231362    3.710364
     27          6           0      -13.797106    0.134735    4.493901
     28          6           0      -12.763837   -0.011222    3.393428
     29          6           0      -15.962881    1.521788    4.073939
     30          6           0      -13.674927   -1.045119    5.521636
     31          6           0      -14.430238   -0.785672    6.843906
     32          7           0      -10.621855   -0.060049    1.363232
     33          6           0      -10.361668    0.042917    2.710342
     34          6           0       -8.970075    0.151767    2.901129
     35          6           0       -8.373999    0.191326    1.696691
     36          6           0       -9.417928    0.080115    0.728887
     37          6           0       -8.361705    0.140289    4.297442
     38          6           0       -7.145162    0.350085    0.912450
     39          8           0       -6.007187    0.521532    1.266332
     40          6           0       -7.511807    0.236445   -0.643688
     41          6           0       -7.304733    1.588914   -1.247271
     42          8           0       -8.032368    2.551912   -1.337924
     43          8           0       -6.031648    1.541959   -1.779883
     44          6           0       -5.547307    2.758158   -2.475237
     45          1           0      -13.436313   -0.590280   -4.036370
     46          1           0      -16.597110    0.163998    1.369243
     47          1           0      -11.247247    0.072249    4.787584
     48          1           0       -9.008105    0.943584   -3.442755
     49          1           0      -10.632360   -1.272577   -4.543958
     50          1           0      -11.507575    0.367539   -5.874754
     51          1           0      -10.380389    1.559304   -5.206546
     52          1           0      -11.987874    1.344273   -4.575056
     53          1           0       -8.428675   -1.956127   -3.015576
     54          1           0       -7.120825   -0.904183   -3.196022
     55          1           0       -8.730501   -0.857746   -5.637621
     56          1           0       -7.834718   -2.411414   -5.250441
     57          1           0      -16.704998   -1.690442   -3.749587
     58          1           0      -15.407614   -0.730756   -4.630795
     59          1           0      -16.952452   -0.022169   -4.239543
     60          1           0      -19.056159   -1.204322   -2.564613
     61          1           0      -18.397108    0.560626   -2.911310
     62          1           0      -19.545909    0.418641   -1.873369
     63          1           0      -15.624374   -0.713276    3.981834
     64          1           0      -13.568645    1.109183    4.926162
     65          1           0      -15.525590    2.168981    4.834766
     66          1           0      -16.865651    1.160196    4.565734
     67          1           0      -16.200422    2.176437    3.235429
     68          1           0      -12.626491   -1.189539    5.780038
     69          1           0      -14.029022   -1.923821    4.980772
     70          1           0      -14.588796    0.283213    6.988202
     71          1           0      -13.824026   -1.242811    7.625885
     72          1           0      -15.436058   -1.205706    6.873774
     73          1           0       -7.339031   -0.236557    4.278826
     74          1           0       -9.000075   -0.452661    4.952498
     75          1           0       -8.412958    1.134655    4.741515
     76          1           0       -6.922375   -0.533566   -1.142005
     77          1           0       -4.500586    2.858869   -2.188572
     78          1           0       -6.087956    3.668583   -2.216965
     79          1           0       -5.684105    2.434262   -3.507439
     80         12           0       11.981375    0.737364   -0.651540
     81          6           0       11.723836   -2.796418   -0.440551
     82          6           0        8.571905    0.792104   -1.386144
     83          6           0       12.014614    3.881661    0.322335
     84          6           0       15.446888    0.320207    0.453073
     85          7           0       10.259950   -0.882009   -0.639563
     86          6           0       10.482366   -2.210758   -0.794710
     87          6           0        9.201594   -2.884233   -1.253961
     88          6           0        8.482612   -1.802973   -2.060908
     89          6           0        9.096619   -0.528944   -1.284476
     90          6           0        8.783470   -1.686084   -3.556289
     91          6           0        8.432097   -3.481249    0.003927
     92          6           0        7.932698   -4.850900   -0.240176
     93          1           0        6.521727   -5.198050    0.273261
     94          7           0       10.473495    2.200591   -0.485263
     95          6           0        9.135482    2.037772   -0.922533
     96          6           0        8.490123    3.313319   -0.739066
     97          6           0        9.443436    4.283953   -0.331767
     98          6           0       10.712243    3.502064   -0.113482
     99          6           0        7.003281    3.482452   -1.035089
    100          6           0        9.172639    5.707570   -0.042734
    101          8           0        8.029425    6.128324   -0.169841
    102          6           0       10.135503    6.717235    0.490198
    103          7           0       13.576107    1.915079    0.384647
    104          6           0       13.313670    3.235653    0.447711
    105          6           0       14.572934    4.021543    0.855723
    106          6           0       15.758103    2.905314    0.757825
    107          6           0       14.919977    1.631645    0.475275
    108          6           0       14.798459    5.378141    0.048042
    109          6           0       16.694984    2.807891    2.002353
    110          6           0       16.402824    1.678727    3.048529
    111          7           0       13.295888   -0.809839   -0.124218
    112          6           0       14.674654   -0.810419    0.231961
    113          6           0       15.181691   -2.251239    0.205037
    114          6           0       14.028930   -2.991059   -0.004820
    115          6           0       12.935726   -2.075901   -0.213455
    116          6           0       16.577135   -2.869361    0.416903
    117          6           0       13.525105   -4.316514   -0.177817
    118          8           0       14.116823   -5.396542   -0.216607
    119          6           0       12.050169   -4.170871   -0.298613
    120          6           0       11.535555   -4.723911    1.050058
    121          8           0       11.524810   -4.147406    2.135644
    122          8           0       11.137301   -6.071104    0.826137
    123          6           0       10.739578   -6.840875    1.934112
    124          1           0        7.532639    0.877416   -1.710743
    125          1           0       11.963742    4.964545    0.451947
    126          1           0       16.500614    0.097305    0.629287
    127          1           0        9.369772   -3.686418   -1.972357
    128          1           0        7.394273   -1.758052   -2.077830
    129          1           0        9.228019   -2.582802   -3.987034
    130          1           0        9.269267   -0.739831   -3.795682
    131          1           0        7.782829   -1.629020   -3.986302
    132          1           0        7.560973   -2.857699    0.205288
    133          1           0        8.970612   -3.382347    0.946494
    134          1           0        8.704109   -5.452318    0.239448
    135          1           0        7.933898   -5.027403   -1.315686
    136          1           0        6.813736    4.017046   -1.965682
    137          1           0        6.526615    3.944288   -0.171688
    138          1           0        6.527851    2.508279   -1.150249
    139          1           0       10.878402    6.918569   -0.281989
    140          1           0       10.648542    6.445057    1.413405
    141          1           0        9.684149    7.706561    0.554551
    142          1           0       14.399921    4.223231    1.912623
    143          1           0       16.322943    3.081154   -0.157051
    144          1           0       13.858145    5.757926   -0.351311
    145          1           0       15.584088    5.421546   -0.707215
    146          1           0       15.286960    6.011527    0.790162
    147          1           0       16.761027    3.749291    2.547190
    148          1           0       17.657202    2.582427    1.543204
    149          1           0       16.755917    2.241179    3.913181
    150          1           0       16.963760    0.747223    2.969598
    151          1           0       15.322550    1.536642    3.085168
    152          1           0       16.885316   -3.446477   -0.454214
    153          1           0       16.275373   -3.607974    1.158915
    154          1           0       17.222853   -2.090519    0.821969
    155          1           0       11.687024   -4.809250   -1.104112
    156          1           0       10.458714   -7.867846    1.697266
    157          1           0        9.871401   -6.351759    2.374049
    158          1           0       11.602401   -6.837929    2.600768
 ---------------------------------------------------------------------

 SCF Done:  E(RCAM-B3LYP) =  -4069.77122896     A.U. after   19 cycles

 Excitation energies and oscillator strengths:

 Excited State   1:      Singlet-A      1.6836 eV  736.44 nm  f=0.4553  <S**2>=0.000
     309 -> 315       -0.19275
     311 -> 314        0.66538
     312 -> 313        0.14292
     309 <- 315       -0.10964
 This state for optimization and/or second-order correction.
 Total Energy, E(TD-HF/TD-DFT) =  -4069.70935939
 Copying the excited state density for this state as the 1-particle RhoCI density.

 Excited State   2:      Singlet-A      1.6979 eV  730.21 nm  f=0.3087  <S**2>=0.000
     310 -> 316       -0.17399
     311 -> 314       -0.14122
     312 -> 313        0.67132
     310 <- 316       -0.10532

 Excited State   3:      Singlet-A      2.1915 eV  565.76 nm  f=0.0570  <S**2>=0.000
     309 -> 314        0.61435
     311 -> 315        0.33933

 Excited State   4:      Singlet-A      2.2114 eV  560.65 nm  f=0.1386  <S**2>=0.000
     310 -> 313        0.65056
     312 -> 316        0.26505

 Excited State   5:      Singlet-A      2.9973 eV  413.65 nm  f=0.0000  <S**2>=0.000
     312 -> 314        0.70705

 The electronic state is 1-A.
 Alpha  occ. eigenvalues --  -46.91242 -46.88533 -19.24653 -19.23791 -19.21344
 Alpha  occ. eigenvalues --  -19.19873 -19.19063 -19.18914 -19.18858 -19.17507
 Alpha  occ. eigenvalues --  -14.42350 -14.42153 -14.41882 -14.41283 -14.40185
 Alpha  occ. eigenvalues --  -14.39701 -14.39590 -14.38810 -10.40535 -10.38927
 Alpha  occ. eigenvalues --  -10.35221 -10.34736 -10.34507 -10.34060 -10.31775
 Alpha  occ. eigenvalues --  -10.31368 -10.31343 -10.31244 -10.31147 -10.30998
 Alpha  occ. eigenvalues --  -10.30914 -10.30878 -10.30828 -10.30773 -10.30328
 Alpha  occ. eigenvalues --  -10.30149 -10.30067 -10.30067 -10.30022 -10.29407
 Alpha  occ. eigenvalues --  -10.29365 -10.29334 -10.29052 -10.28877 -10.28828
 Alpha  occ. eigenvalues --  -10.28729 -10.28725 -10.28470 -10.28450 -10.28349
 Alpha  occ. eigenvalues --  -10.28307 -10.28125 -10.28084 -10.27851 -10.27707
 Alpha  occ. eigenvalues --  -10.27629 -10.27606 -10.27550 -10.27493 -10.27296
 Alpha  occ. eigenvalues --  -10.27160 -10.27116 -10.27059 -10.27032 -10.26964
 Alpha  occ. eigenvalues --  -10.26904 -10.26783 -10.26743 -10.26734 -10.26730
 Alpha  occ. eigenvalues --  -10.26711 -10.26701 -10.26666 -10.26308 -10.26158
 Alpha  occ. eigenvalues --  -10.26124 -10.25843 -10.25707 -10.25681 -10.25620
 Alpha  occ. eigenvalues --  -10.25547 -10.25525 -10.25511 -10.25190 -10.24919
 Alpha  occ. eigenvalues --  -10.24666  -3.19442  -3.17076  -1.94284  -1.93950
 Alpha  occ. eigenvalues --   -1.93698  -1.91972  -1.91512  -1.91401  -1.15763
 Alpha  occ. eigenvalues --   -1.15656  -1.11333  -1.10743  -1.09547  -1.09290
 Alpha  occ. eigenvalues --   -1.08593  -1.07416  -1.04142  -1.03770  -1.03391
 Alpha  occ. eigenvalues --   -1.03258  -1.02778  -1.02466  -1.01556  -1.01216
 Alpha  occ. eigenvalues --   -0.94321  -0.92975  -0.89104  -0.88894  -0.88666
 Alpha  occ. eigenvalues --   -0.88213  -0.88095  -0.87746  -0.87209  -0.87110
 Alpha  occ. eigenvalues --   -0.86807  -0.86789  -0.85981  -0.85507  -0.84714
 Alpha  occ. eigenvalues --   -0.83860  -0.83607  -0.83152  -0.82642  -0.82140
 Alpha  occ. eigenvalues --   -0.82019  -0.81583  -0.80797  -0.80671  -0.80213
 Alpha  occ. eigenvalues --   -0.80035  -0.78078  -0.77979  -0.77213  -0.76934
 Alpha  occ. eigenvalues --   -0.76811  -0.76606  -0.75944  -0.75503  -0.75148
 Alpha  occ. eigenvalues --   -0.74781  -0.72730  -0.72688  -0.71780  -0.71286
 Alpha  occ. eigenvalues --   -0.69865  -0.69611  -0.68713  -0.68652  -0.67686
 Alpha  occ. eigenvalues --   -0.67249  -0.66921  -0.66802  -0.65280  -0.65005
 Alpha  occ. eigenvalues --   -0.64913  -0.64652  -0.64571  -0.64484  -0.64383
 Alpha  occ. eigenvalues --   -0.63849  -0.62155  -0.61414  -0.60044  -0.59869
 Alpha  occ. eigenvalues --   -0.59708  -0.59435  -0.59210  -0.58841  -0.58784
 Alpha  occ. eigenvalues --   -0.58286  -0.58198  -0.57805  -0.56974  -0.56834
 Alpha  occ. eigenvalues --   -0.56142  -0.56093  -0.55900  -0.55726  -0.55580
 Alpha  occ. eigenvalues --   -0.54965  -0.54891  -0.54500  -0.54425  -0.54242
 Alpha  occ. eigenvalues --   -0.54096  -0.53620  -0.53616  -0.53339  -0.52972
 Alpha  occ. eigenvalues --   -0.52619  -0.52579  -0.52333  -0.52118  -0.51914
 Alpha  occ. eigenvalues --   -0.51897  -0.51609  -0.51583  -0.51327  -0.51305
 Alpha  occ. eigenvalues --   -0.51245  -0.50951  -0.50512  -0.50492  -0.50151
 Alpha  occ. eigenvalues --   -0.50130  -0.49912  -0.49765  -0.49638  -0.49448
 Alpha  occ. eigenvalues --   -0.49345  -0.49157  -0.49113  -0.48884  -0.48788
 Alpha  occ. eigenvalues --   -0.48414  -0.48372  -0.48212  -0.47932  -0.47775
 Alpha  occ. eigenvalues --   -0.47709  -0.47696  -0.47411  -0.47111  -0.47015
 Alpha  occ. eigenvalues --   -0.46787  -0.46716  -0.46299  -0.46034  -0.45880
 Alpha  occ. eigenvalues --   -0.45849  -0.45836  -0.45807  -0.45708  -0.45409
 Alpha  occ. eigenvalues --   -0.45372  -0.45262  -0.45234  -0.45136  -0.45083
 Alpha  occ. eigenvalues --   -0.45000  -0.44804  -0.44679  -0.44510  -0.44390
 Alpha  occ. eigenvalues --   -0.44071  -0.43940  -0.43778  -0.43733  -0.43441
 Alpha  occ. eigenvalues --   -0.43416  -0.43237  -0.43148  -0.42946  -0.42721
 Alpha  occ. eigenvalues --   -0.42511  -0.42268  -0.42031  -0.41975  -0.41780
 Alpha  occ. eigenvalues --   -0.41578  -0.41536  -0.41232  -0.41083  -0.40951
 Alpha  occ. eigenvalues --   -0.40910  -0.40910  -0.40746  -0.40438  -0.40374
 Alpha  occ. eigenvalues --   -0.40021  -0.39302  -0.39119  -0.38758  -0.38489
 Alpha  occ. eigenvalues --   -0.38214  -0.38064  -0.37857  -0.37715  -0.37570
 Alpha  occ. eigenvalues --   -0.36975  -0.36514  -0.36453  -0.36304  -0.36263
 Alpha  occ. eigenvalues --   -0.35704  -0.35691  -0.35156  -0.34590  -0.34155
 Alpha  occ. eigenvalues --   -0.33899  -0.33284  -0.32553  -0.31406  -0.31275
 Alpha  occ. eigenvalues --   -0.30795  -0.30750  -0.30524  -0.30505  -0.30147
 Alpha  occ. eigenvalues --   -0.30072  -0.29702  -0.29413  -0.23988  -0.23551
 Alpha  occ. eigenvalues --   -0.20976  -0.20923
 Alpha virt. eigenvalues --   -0.08495  -0.08469  -0.02555  -0.01093  -0.00548
 Alpha virt. eigenvalues --    0.00192   0.00919   0.02233   0.02501   0.02713
 Alpha virt. eigenvalues --    0.04768   0.04964   0.05236   0.05893   0.05972

 Mulliken charges:
               1
     1  Mg  12.000079
     2  C    6.006092
     3  C    5.997175
     4  C    5.995878
     5  C    6.003432
     6  N    7.001980
     7  C    5.992852
     8  C    6.003503
     9  C    5.996887
    10  C    6.006328
    11  C    5.999861
    12  C    6.000446
    13  C    5.999991
    14  H    0.999294
    15  N    6.998212
    16  C    6.009836
    17  C    6.003325
    18  C    6.004469
    19  C    6.007012
    20  C    5.998633
    21  C    6.003176
    22  O    8.006474
    23  C    5.997946
    24  N    6.999828
    25  C    6.007351
    26  C    5.997212
    27  C    6.002220
    28  C    5.993193
    29  C    5.999759
    30  C    6.001451
    31  C    5.999612
    32  N    7.000941
    33  C    5.991640
    34  C    5.994345
    35  C    5.999316
    36  C    5.990540
    37  C    6.000302
    38  C    5.996273
    39  O    7.992891
    40  C    5.998444
    41  C    6.000065
    42  O    7.998435
    43  O    7.999717
    44  C    6.000698
    45  H    1.002022
    46  H    1.001154
    47  H    0.997790
    48  H    0.998516
    49  H    1.001126
    50  H    1.000205
    51  H    1.002309
    52  H    0.998780
    53  H    0.999933
    54  H    1.000590
    55  H    0.998526
    56  H    0.999731
    57  H    1.004029
    58  H    1.004062
    59  H    1.004434
    60  H    1.002566
    61  H    1.001488
    62  H    1.003409
    63  H    1.000334
    64  H    1.000023
    65  H    1.002092
    66  H    1.000449
    67  H    0.999003
    68  H    1.001195
    69  H    0.998154
    70  H    0.999353
    71  H    1.000151
    72  H    0.998646
    73  H    0.996590
    74  H    0.996498
    75  H    0.995279
    76  H    0.998117
    77  H    0.998250
    78  H    0.999275
    79  H    0.998806
    80  Mg  12.001617
    81  C    6.023867
    82  C    5.980367
    83  C    5.979487
    84  C    6.022762
    85  N    7.003588
    86  C    5.972019
    87  C    6.002965
    88  C    5.998360
    89  C    6.030031
    90  C    5.998440
    91  C    6.005343
    92  C    6.000805
    93  H    0.993696
    94  N    6.985657
    95  C    6.051317
    96  C    6.016079
    97  C    6.013208
    98  C    6.039606
    99  C    5.993857
   100  C    6.008748
   101  O    8.022245
   102  C    5.996761
   103  N    7.003933
   104  C    6.033067
   105  C    5.987418
   106  C    6.014634
   107  C    5.960218
   108  C    5.996766
   109  C    5.998948
   110  C    6.008985
   111  N    7.007538
   112  C    5.946631
   113  C    5.974698
   114  C    5.996264
   115  C    5.967835
   116  C    5.999741
   117  C    5.983132
   118  O    7.969060
   119  C    6.001860
   120  C    5.997950
   121  O    7.995283
   122  O    7.998592
   123  C    6.002312
   124  H    1.008857
   125  H    1.002642
   126  H    0.990236
   127  H    1.001073
   128  H    1.000899
   129  H    1.014503
   130  H    0.997778
   131  H    1.001995
   132  H    0.987129
   133  H    1.002558
   134  H    1.005624
   135  H    0.997021
   136  H    1.020157
   137  H    1.016662
   138  H    1.018528
   139  H    1.010977
   140  H    1.011543
   141  H    1.011842
   142  H    1.000811
   143  H    0.994484
   144  H    0.991356
   145  H    1.006319
   146  H    1.004853
   147  H    0.989262
   148  H    0.999387
   149  H    0.990707
   150  H    1.003524
   151  H    0.998084
   152  H    0.982699
   153  H    0.986755
   154  H    0.984149
   155  H    0.991242
   156  H    0.995593
   157  H    0.994247
   158  H    1.000814
 Sum of Mulliken charges = 624.00000

 Dipole moment (field-independent basis, Debye):
    X=             -9.2578    Y=              7.1525    Z=             -2.3992  Tot=             11.9424
 Quadrupole moment (field-independent basis, Debye-Ang):
   XX=           -117.3424   YY=              7.4055   ZZ=              0.0851
   XY=             82.7266   XZ=              0.8465   YZ=             -0.6578

 Normal termination of Gaussian 16 at Wed Sep 22 08:09:50 2021.
