 Gaussian 16, Revision A.03,
 Gaussian 16:  ES64L-G16RevA.03 25-Dec-2016

 -----------------------------------
 #p cam-b3lyp/Def2SVP td=(nstates=5)
 -----------------------------------

 --------------------------------
 TDDFT excited states in gaussian
 --------------------------------
 Symbolic Z-matrix:
 Charge =  0 Multiplicity = 1

                         Standard orientation:
 ---------------------------------------------------------------------
 Center     Atomic      Atomic             Coordinates (Angstroms)
 Number     Number       Type             X           Y           Z
 ---------------------------------------------------------------------
      1         12           0       26.097559   -0.910301    0.194008
      2          6           0       26.991484    2.381209   -0.760385
      3          6           0       25.658982    0.398111    3.405597
      4          6           0       25.136389   -3.874981    1.226655
      5          6           0       27.366640   -2.099798   -2.816716
      6          7           0       26.280934    1.158553    1.146500
      7          6           0       26.510212    2.360166    0.547595
      8          6           0       26.504564    3.587256    1.475291
      9          6           0       26.177956    2.818709    2.854216
     10          6           0       26.054181    1.388508    2.419023
     11          6           0       27.304880    2.947723    3.954016
     12          6           0       25.413779    4.639561    1.091277
     13          6           0       25.709545    6.030724    0.544492
     14          1           0       24.837557    7.225101    0.908630
     15          7           0       25.402181   -1.655883    2.037809
     16          6           0       25.359288   -0.980390    3.265994
     17          6           0       24.977960   -1.943497    4.274746
     18          6           0       24.663779   -3.148169    3.650500
     19          6           0       25.011760   -2.913210    2.235564
     20          6           0       24.763060   -1.463616    5.669556
     21          6           0       24.196384   -4.489228    4.215113
     22          8           0       23.984335   -5.500328    3.538817
     23          6           0       23.842730   -4.526671    5.649683
     24          7           0       26.310138   -2.765127   -0.601444
     25          6           0       25.645268   -3.851270   -0.103456
     26          6           0       25.543232   -4.989562   -1.174572
     27          6           0       26.327539   -4.423128   -2.351039
     28          6           0       26.773584   -3.010144   -1.882588
     29          6           0       26.009635   -6.386548   -0.649128
     30          6           0       25.438012   -4.403694   -3.603439
     31          6           0       26.020672   -4.860548   -4.891234
     32          7           0       27.092977   -0.105245   -1.437096
     33          6           0       27.523872   -0.692275   -2.599865
     34          6           0       28.089323    0.273018   -3.494385
     35          6           0       27.832096    1.595266   -2.880266
     36          6           0       27.205877    1.268578   -1.613418
     37          6           0       28.761096   -0.034480   -4.843646
     38          6           0       27.958162    3.070093   -2.995221
     39          8           0       28.309890    3.772397   -3.958248
     40          6           0       27.405203    3.615191   -1.614409
     41          6           0       28.611656    4.355447   -1.127731
     42          8           0       29.564782    3.925052   -0.489701
     43          8           0       28.495605    5.634277   -1.360091
     44          6           0       29.646385    6.535295   -1.108161
     45          1           0       25.415508    0.965231    4.306094
     46          1           0       24.888306   -4.914978    1.447252
     47          1           0       27.694254   -2.483393   -3.784832
     48          1           0       27.518154    3.989606    1.495805
     49          1           0       25.236140    3.038782    3.357813
     50          1           0       28.283626    3.294991    3.624146
     51          1           0       27.481779    1.977621    4.417139
     52          1           0       26.951041    3.629591    4.727507
     53          1           0       24.835162    4.822688    1.996833
     54          1           0       24.749940    4.232770    0.329488
     55          1           0       25.493556    5.873569   -0.512374
     56          1           0       26.758598    6.152834    0.814270
     57          1           0       23.733531   -1.606584    5.994873
     58          1           0       24.992553   -0.401540    5.759386
     59          1           0       25.377014   -1.984374    6.403758
     60          1           0       23.171295   -3.699372    5.879934
     61          1           0       24.690311   -4.292942    6.294107
     62          1           0       23.319949   -5.430392    5.961246
     63          1           0       24.468095   -5.025806   -1.349499
     64          1           0       27.160892   -5.072831   -2.617936
     65          1           0       26.188501   -6.424093    0.425340
     66          1           0       26.932818   -6.742219   -1.105155
     67          1           0       25.315665   -7.156277   -0.986483
     68          1           0       25.168548   -3.351106   -3.680400
     69          1           0       24.539504   -5.016286   -3.533396
     70          1           0       25.861481   -4.025803   -5.573443
     71          1           0       25.584693   -5.815366   -5.184918
     72          1           0       27.104732   -4.976209   -4.889830
     73          1           0       29.827613   -0.186086   -4.681475
     74          1           0       28.563694    0.797417   -5.519553
     75          1           0       28.392782   -0.960546   -5.285603
     76          1           0       26.595647    4.304510   -1.853631
     77          1           0       29.977215    6.552677   -0.070302
     78          1           0       29.484918    7.564716   -1.427437
     79          1           0       30.561190    6.331037   -1.663656
     80         12           0      -26.954251   -0.425667   -0.217908
     81          6           0      -24.994287    2.413129   -0.804784
     82          6           0      -28.356408    1.111567    2.493453
     83          6           0      -28.514091   -3.260132    0.470495
     84          6           0      -25.269116   -1.980960   -2.959770
     85          7           0      -26.644266    1.544712    0.748165
     86          6           0      -25.858485    2.595974    0.330924
     87          6           0      -26.208335    3.858197    1.097314
     88          6           0      -27.067088    3.312871    2.306050
     89          6           0      -27.443684    1.902227    1.737712
     90          6           0      -26.291896    3.222199    3.614322
     91          6           0      -26.825355    4.925388    0.121473
     92          6           0      -27.408827    6.166379    0.852379
     93          1           0      -26.752490    6.555859    2.160611
     94          7           0      -28.224172   -0.968592    1.216327
     95          6           0      -28.622037   -0.239356    2.329765
     96          6           0      -29.501704   -1.026515    3.211668
     97          6           0      -29.565481   -2.302504    2.571769
     98          6           0      -28.737375   -2.210505    1.372214
     99          6           0      -30.147866   -0.467969    4.423785
    100          6           0      -30.330255   -3.504565    3.062825
    101          8           0      -30.369652   -4.583905    2.409543
    102          6           0      -31.152174   -3.446807    4.321868
    103          7           0      -26.934044   -2.348933   -1.168827
    104          6           0      -27.688233   -3.318421   -0.650348
    105          6           0      -27.419363   -4.693251   -1.406441
    106          6           0      -26.307429   -4.280934   -2.523823
    107          6           0      -26.142543   -2.795457   -2.199952
    108          6           0      -26.926159   -5.761618   -0.346611
    109          6           0      -26.791992   -4.449636   -4.027116
    110          6           0      -26.600471   -5.864092   -4.645889
    111          7           0      -25.428583    0.016641   -1.558518
    112          6           0      -24.909280   -0.646792   -2.701502
    113          6           0      -23.907184    0.264289   -3.409313
    114          6           0      -23.849400    1.440402   -2.668419
    115          6           0      -24.860493    1.264187   -1.594869
    116          6           0      -23.158839   -0.005354   -4.677059
    117          6           0      -23.287996    2.767116   -2.566736
    118          8           0      -22.452841    3.368250   -3.249779
    119          6           0      -24.146819    3.538589   -1.446291
    120          6           0      -23.281266    4.279213   -0.452752
    121          8           0      -22.818594    3.782179    0.538292
    122          8           0      -23.285520    5.668895   -0.709595
    123          6           0      -22.883777    6.558457    0.390408
    124          1           0      -28.671307    1.715129    3.347696
    125          1           0      -29.019852   -4.197488    0.712023
    126          1           0      -24.644299   -2.425555   -3.737323
    127          1           0      -25.275971    4.286642    1.462849
    128          1           0      -28.004207    3.838298    2.492815
    129          1           0      -26.855883    3.819295    4.330749
    130          1           0      -25.264388    3.533907    3.428207
    131          1           0      -26.363243    2.239571    4.080030
    132          1           0      -27.426118    4.293041   -0.531483
    133          1           0      -25.997607    5.246833   -0.509779
    134          1           0      -28.454262    5.894608    0.998623
    135          1           0      -27.329226    7.020445    0.179971
    136          1           0      -29.691732   -1.054381    5.221199
    137          1           0      -31.235679   -0.525885    4.397356
    138          1           0      -29.955339    0.568044    4.705480
    139          1           0      -31.959085   -2.728432    4.183847
    140          1           0      -30.360132   -3.158088    5.013940
    141          1           0      -31.550185   -4.393710    4.685592
    142          1           0      -28.405207   -4.862758   -1.841177
    143          1           0      -25.280655   -4.609839   -2.358097
    144          1           0      -26.834343   -5.381013    0.670500
    145          1           0      -25.942816   -6.137332   -0.630681
    146          1           0      -27.714124   -6.513059   -0.305659
    147          1           0      -26.453179   -3.634066   -4.665345
    148          1           0      -27.870848   -4.299329   -4.004157
    149          1           0      -27.579489   -6.183767   -5.001108
    150          1           0      -26.145785   -6.510642   -3.895221
    151          1           0      -25.933149   -5.846758   -5.507891
    152          1           0      -23.623245    0.619360   -5.440363
    153          1           0      -23.213141   -1.065024   -4.929479
    154          1           0      -22.103199    0.263128   -4.711827
    155          1           0      -24.802521    4.219286   -1.988478
    156          1           0      -21.795522    6.505092    0.406049
    157          1           0      -23.411435    6.300637    1.308893
    158          1           0      -23.243347    7.551446    0.121958
 ---------------------------------------------------------------------

 SCF Done:  E(RCAM-B3LYP) =  -4069.81785105     A.U. after   17 cycles

 Excitation energies and oscillator strengths:

 Excited State   1:      Singlet-A      1.7141 eV  723.31 nm  f=0.3828  <S**2>=0.000
     309 -> 315        0.19946
     312 -> 314        0.68037
     309 <- 315        0.11163
 This state for optimization and/or second-order correction.
 Total Energy, E(TD-HF/TD-DFT) =  -4069.75485827
 Copying the excited state density for this state as the 1-particle RhoCI density.

 Excited State   2:      Singlet-A      1.7572 eV  705.57 nm  f=0.3819  <S**2>=0.000
     310 -> 316        0.18343
     311 -> 313        0.68375
     310 <- 316        0.10474

 Excited State   3:      Singlet-A      2.2202 eV  558.44 nm  f=0.1059  <S**2>=0.000
     310 -> 313        0.63627
     311 -> 316       -0.29384

 Excited State   4:      Singlet-A      2.2903 eV  541.35 nm  f=0.0345  <S**2>=0.000
     309 -> 314        0.58797
     312 -> 315       -0.38618

 Excited State   5:      Singlet-A      3.0664 eV  404.34 nm  f=0.0000  <S**2>=0.000
     312 -> 313        0.70711

 The electronic state is 1-A.
 Alpha  occ. eigenvalues --  -46.88513 -46.88074 -19.25291 -19.23981 -19.20304
 Alpha  occ. eigenvalues --  -19.19568 -19.19186 -19.18858 -19.18394 -19.18175
 Alpha  occ. eigenvalues --  -14.42570 -14.42153 -14.41889 -14.41562 -14.39955
 Alpha  occ. eigenvalues --  -14.39879 -14.39809 -14.38972 -10.39424 -10.38633
 Alpha  occ. eigenvalues --  -10.35961 -10.35537 -10.35428 -10.35249 -10.31932
 Alpha  occ. eigenvalues --  -10.31764 -10.31621 -10.31390 -10.31097 -10.30918
 Alpha  occ. eigenvalues --  -10.30899 -10.30758 -10.30730 -10.30614 -10.30511
 Alpha  occ. eigenvalues --  -10.30369 -10.30360 -10.30317 -10.30116 -10.29623
 Alpha  occ. eigenvalues --  -10.29480 -10.29413 -10.29229 -10.29108 -10.29022
 Alpha  occ. eigenvalues --  -10.28845 -10.28753 -10.28721 -10.28609 -10.28545
 Alpha  occ. eigenvalues --  -10.28384 -10.28300 -10.28194 -10.28143 -10.28023
 Alpha  occ. eigenvalues --  -10.28016 -10.27938 -10.27864 -10.27742 -10.27711
 Alpha  occ. eigenvalues --  -10.27697 -10.27615 -10.27578 -10.27506 -10.27165
 Alpha  occ. eigenvalues --  -10.27044 -10.26968 -10.26907 -10.26622 -10.26509
 Alpha  occ. eigenvalues --  -10.26485 -10.26444 -10.26438 -10.26392 -10.26223
 Alpha  occ. eigenvalues --  -10.25989 -10.25841 -10.25810 -10.25769 -10.25675
 Alpha  occ. eigenvalues --  -10.25628 -10.25572 -10.25401 -10.25209 -10.25154
 Alpha  occ. eigenvalues --  -10.24847  -3.17110  -3.16756  -1.92010  -1.91661
 Alpha  occ. eigenvalues --   -1.91566  -1.91414  -1.91197  -1.91087  -1.17783
 Alpha  occ. eigenvalues --   -1.15479  -1.10070  -1.09118  -1.08374  -1.07809
 Alpha  occ. eigenvalues --   -1.07779  -1.06475  -1.05460  -1.04332  -1.03995
 Alpha  occ. eigenvalues --   -1.03470  -1.02801  -1.02764  -1.01379  -1.01347
 Alpha  occ. eigenvalues --   -0.91832  -0.91609  -0.89563  -0.89029  -0.88917
 Alpha  occ. eigenvalues --   -0.88779  -0.88580  -0.87831  -0.87705  -0.87567
 Alpha  occ. eigenvalues --   -0.86745  -0.86729  -0.86325  -0.85097  -0.84325
 Alpha  occ. eigenvalues --   -0.84251  -0.83466  -0.82941  -0.82863  -0.82684
 Alpha  occ. eigenvalues --   -0.82195  -0.81933  -0.80816  -0.80759  -0.80503
 Alpha  occ. eigenvalues --   -0.80005  -0.78966  -0.78762  -0.77483  -0.77421
 Alpha  occ. eigenvalues --   -0.76979  -0.76860  -0.76178  -0.75765  -0.75146
 Alpha  occ. eigenvalues --   -0.74547  -0.72215  -0.72070  -0.71802  -0.71472
 Alpha  occ. eigenvalues --   -0.69414  -0.69212  -0.68618  -0.68278  -0.68188
 Alpha  occ. eigenvalues --   -0.67598  -0.67067  -0.66915  -0.65859  -0.65514
 Alpha  occ. eigenvalues --   -0.65269  -0.65132  -0.64851  -0.64189  -0.63946
 Alpha  occ. eigenvalues --   -0.63767  -0.62390  -0.61268  -0.60934  -0.60640
 Alpha  occ. eigenvalues --   -0.59498  -0.59497  -0.58969  -0.58699  -0.58484
 Alpha  occ. eigenvalues --   -0.57835  -0.57799  -0.57627  -0.57515  -0.56776
 Alpha  occ. eigenvalues --   -0.56685  -0.56154  -0.55950  -0.55627  -0.54960
 Alpha  occ. eigenvalues --   -0.54524  -0.54294  -0.54241  -0.54166  -0.53956
 Alpha  occ. eigenvalues --   -0.53827  -0.53684  -0.53543  -0.53247  -0.52907
 Alpha  occ. eigenvalues --   -0.52627  -0.52552  -0.52513  -0.52212  -0.52125
 Alpha  occ. eigenvalues --   -0.51903  -0.51750  -0.51441  -0.51409  -0.51158
 Alpha  occ. eigenvalues --   -0.50834  -0.50565  -0.50484  -0.50435  -0.50065
 Alpha  occ. eigenvalues --   -0.50013  -0.49869  -0.49727  -0.49537  -0.49430
 Alpha  occ. eigenvalues --   -0.49400  -0.49323  -0.49049  -0.49006  -0.48884
 Alpha  occ. eigenvalues --   -0.48697  -0.48506  -0.48485  -0.48177  -0.48109
 Alpha  occ. eigenvalues --   -0.48056  -0.48020  -0.47794  -0.47419  -0.47387
 Alpha  occ. eigenvalues --   -0.46879  -0.46619  -0.46306  -0.46182  -0.46077
 Alpha  occ. eigenvalues --   -0.46075  -0.45824  -0.45733  -0.45596  -0.45567
 Alpha  occ. eigenvalues --   -0.45437  -0.45208  -0.45161  -0.45157  -0.45013
 Alpha  occ. eigenvalues --   -0.44857  -0.44651  -0.44642  -0.44344  -0.44245
 Alpha  occ. eigenvalues --   -0.44179  -0.44005  -0.43993  -0.43468  -0.43181
 Alpha  occ. eigenvalues --   -0.43123  -0.43071  -0.43046  -0.42896  -0.42799
 Alpha  occ. eigenvalues --   -0.42552  -0.42406  -0.42343  -0.42101  -0.41890
 Alpha  occ. eigenvalues --   -0.41632  -0.41516  -0.41394  -0.41286  -0.41221
 Alpha  occ. eigenvalues --   -0.40911  -0.40814  -0.40407  -0.40332  -0.40187
 Alpha  occ. eigenvalues --   -0.40057  -0.39830  -0.39499  -0.39227  -0.39075
 Alpha  occ. eigenvalues --   -0.38500  -0.38430  -0.38222  -0.37988  -0.37910
 Alpha  occ. eigenvalues --   -0.37225  -0.36652  -0.36614  -0.36369  -0.36275
 Alpha  occ. eigenvalues --   -0.35894  -0.35834  -0.34537  -0.34438  -0.34145
 Alpha  occ. eigenvalues --   -0.33430  -0.33177  -0.33078  -0.31907  -0.31768
 Alpha  occ. eigenvalues --   -0.31315  -0.30931  -0.30590  -0.30514  -0.30490
 Alpha  occ. eigenvalues --   -0.30301  -0.30030  -0.28702  -0.23985  -0.23902
 Alpha  occ. eigenvalues --   -0.21167  -0.20428
 Alpha virt. eigenvalues --   -0.08508  -0.07887  -0.02139  -0.01850  -0.00211
 Alpha virt. eigenvalues --   -0.00180   0.02088   0.02170   0.02707   0.03260
 Alpha virt. eigenvalues --    0.04489   0.04955   0.05254   0.05779   0.05877

 Mulliken charges:
               1
     1  Mg   0.832119
     2  C    0.053316
     3  C   -0.082049
     4  C   -0.070459
     5  C   -0.080610
     6  N   -0.209703
     7  C   -0.071928
     8  C    0.011127
     9  C   -0.072295
    10  C   -0.024592
    11  C    0.046702
    12  C    0.028493
    13  C   -0.068386
    14  H    0.028057
    15  N   -0.362198
    16  C    0.170253
    17  C   -0.116438
    18  C   -0.038021
    19  C    0.148187
    20  C    0.098557
    21  C    0.036648
    22  O   -0.200895
    23  C    0.053965
    24  N   -0.348540
    25  C   -0.000975
    26  C   -0.010956
    27  C   -0.014546
    28  C    0.090619
    29  C    0.058948
    30  C    0.000419
    31  C    0.009593
    32  N   -0.370119
    33  C    0.134153
    34  C   -0.185259
    35  C   -0.007960
    36  C    0.094278
    37  C    0.119448
    38  C    0.044312
    39  O   -0.191187
    40  C   -0.048606
    41  C    0.167995
    42  O   -0.239950
    43  O   -0.278998
    44  C    0.189686
    45  H   -0.020174
    46  H   -0.008665
    47  H   -0.032244
    48  H    0.036450
    49  H    0.020269
    50  H    0.030103
    51  H    0.017477
    52  H    0.014705
    53  H    0.014815
    54  H    0.008474
    55  H    0.040756
    56  H    0.030040
    57  H    0.032441
    58  H    0.010813
    59  H    0.024872
    60  H    0.019502
    61  H    0.028229
    62  H    0.034462
    63  H    0.027693
    64  H    0.006906
    65  H    0.037039
    66  H    0.003329
    67  H    0.012711
    68  H    0.013032
    69  H    0.007199
    70  H    0.015205
    71  H    0.020898
    72  H    0.005596
    73  H    0.033358
    74  H    0.038396
    75  H    0.005118
    76  H    0.046529
    77  H    0.033289
    78  H    0.033836
    79  H    0.035333
    80  Mg   0.842096
    81  C   -0.020564
    82  C   -0.090083
    83  C   -0.079643
    84  C   -0.078328
    85  N   -0.250710
    86  C   -0.044722
    87  C   -0.012977
    88  C   -0.082171
    89  C   -0.014493
    90  C    0.091567
    91  C    0.015937
    92  C   -0.044480
    93  H    0.032149
    94  N   -0.411450
    95  C    0.200977
    96  C   -0.144019
    97  C   -0.033962
    98  C    0.153134
    99  C    0.122198
   100  C   -0.007204
   101  O   -0.241929
   102  C    0.080572
   103  N   -0.275380
   104  C    0.019558
   105  C   -0.035736
   106  C    0.002857
   107  C    0.012017
   108  C    0.060821
   109  C    0.002611
   110  C    0.023784
   111  N   -0.368246
   112  C    0.111816
   113  C   -0.177364
   114  C    0.032693
   115  C    0.112116
   116  C    0.110965
   117  C    0.072020
   118  O   -0.179439
   119  C   -0.071630
   120  C    0.225333
   121  O   -0.190693
   122  O   -0.375621
   123  C    0.183812
   124  H   -0.034862
   125  H   -0.005885
   126  H   -0.023963
   127  H    0.008524
   128  H    0.003681
   129  H    0.006441
   130  H    0.036701
   131  H    0.014638
   132  H    0.016680
   133  H    0.015043
   134  H    0.036675
   135  H    0.035929
   136  H    0.032156
   137  H    0.035699
   138  H    0.012024
   139  H    0.044599
   140  H    0.019926
   141  H    0.028104
   142  H    0.024701
   143  H    0.018530
   144  H    0.031722
   145  H    0.016255
   146  H    0.027673
   147  H    0.011365
   148  H   -0.004934
   149  H    0.019982
   150  H    0.018627
   151  H    0.014666
   152  H    0.037885
   153  H    0.005623
   154  H    0.037461
   155  H    0.063017
   156  H    0.049871
   157  H    0.033275
   158  H    0.033981
 Sum of Mulliken charges =  -0.00000

 Dipole moment (field-independent basis, Debye):
    X=             -6.3611    Y=              0.9353    Z=              6.4661  Tot=              9.1186
 Quadrupole moment (field-independent basis, Debye-Ang):
   XX=           -470.3702   YY=           -500.4745   ZZ=           -479.0577
   XY=            -66.5250   XZ=             51.8760   YZ=             50.0009

 Normal termination of Gaussian 16 at Thu Sep 16 09:07:57 2021.
