 Gaussian 16, Revision A.03,
 Gaussian 16:  ES64L-G16RevA.03 25-Dec-2016

 ----------------------------------------------------------
 #p cam-b3lyp/Def2SVP td=(nstates=5) density=(transition=1)
 ----------------------------------------------------------

 --------------------------------
 TDDFT excited states in gaussian
 --------------------------------
 Symbolic Z-matrix:
 Charge =  0 Multiplicity = 1

                         Standard orientation:
 ---------------------------------------------------------------------
 Center     Atomic      Atomic             Coordinates (Angstroms)
 Number     Number       Type             X           Y           Z
 ---------------------------------------------------------------------
      1         12           0      -28.876222    0.490883   -0.682347
      2          6           0      -28.269374   -2.116765    1.724748
      3          6           0      -27.841791    2.704611    1.701601
      4          6           0      -29.731185    2.929249   -2.821243
      5          6           0      -30.308896   -1.838930   -2.699913
      6          7           0      -28.062204    0.268945    1.541562
      7          6           0      -27.892043   -0.906177    2.214292
      8          6           0      -27.174822   -0.589860    3.471621
      9          6           0      -27.150829    0.961751    3.550959
     10          6           0      -27.764382    1.425930    2.201676
     11          6           0      -27.991057    1.496245    4.754201
     12          6           0      -25.809086   -1.211104    3.625160
     13          6           0      -25.106807   -1.135573    4.971281
     14          1           0      -24.558102   -2.391565    5.505451
     15          7           0      -28.694425    2.498097   -0.616227
     16          6           0      -28.325075    3.262476    0.524865
     17          6           0      -28.253556    4.667596    0.081990
     18          6           0      -28.876099    4.707407   -1.162902
     19          6           0      -29.191717    3.324922   -1.565739
     20          6           0      -27.757034    5.758256    1.007962
     21          6           0      -29.148746    5.911919   -2.089583
     22          8           0      -29.908502    5.876214   -3.075593
     23          6           0      -28.430802    7.162769   -1.784169
     24          7           0      -29.950157    0.574357   -2.506905
     25          6           0      -30.183108    1.647886   -3.233801
     26          6           0      -30.983631    1.353158   -4.532017
     27          6           0      -30.917445   -0.175340   -4.563884
     28          6           0      -30.324024   -0.501200   -3.212445
     29          6           0      -32.448827    1.898481   -4.441489
     30          6           0      -30.139003   -0.802555   -5.698349
     31          6           0      -30.772135   -2.032607   -6.372684
     32          7           0      -29.130857   -1.547711   -0.560018
     33          6           0      -29.736092   -2.360494   -1.493474
     34          6           0      -29.681389   -3.795619   -1.081545
     35          6           0      -29.128484   -3.651767    0.174990
     36          6           0      -28.859403   -2.312504    0.482014
     37          6           0      -29.992805   -5.012258   -1.892598
     38          6           0      -28.717994   -4.434996    1.331072
     39          8           0      -28.744292   -5.654184    1.455948
     40          6           0      -28.135426   -3.482615    2.400388
     41          6           0      -28.803006   -3.798736    3.637291
     42          8           0      -29.970549   -3.479356    3.967387
     43          8           0      -27.928732   -4.367845    4.512634
     44          6           0      -28.324827   -4.509376    5.896751
     45          1           0      -27.433580    3.416817    2.421370
     46          1           0      -30.157394    3.720481   -3.441278
     47          1           0      -30.986001   -2.452800   -3.297213
     48          1           0      -27.845329   -0.983792    4.234264
     49          1           0      -26.141349    1.356740    3.666445
     50          1           0      -27.609225    2.209987    5.484869
     51          1           0      -28.248966    0.597868    5.314783
     52          1           0      -28.986131    1.860522    4.497389
     53          1           0      -25.079969   -0.725733    2.976170
     54          1           0      -25.755129   -2.196024    3.162174
     55          1           0      -25.786048   -0.769006    5.739472
     56          1           0      -24.179359   -0.597209    4.777809
     57          1           0      -28.386342    6.647715    1.030362
     58          1           0      -26.740392    6.089884    0.797828
     59          1           0      -27.742240    5.491254    2.064938
     60          1           0      -27.369966    6.933988   -1.681267
     61          1           0      -28.858060    7.443940   -0.822253
     62          1           0      -28.531570    7.795921   -2.664913
     63          1           0      -30.419417    1.812176   -5.344565
     64          1           0      -31.874261   -0.696614   -4.571813
     65          1           0      -33.176828    1.088591   -4.405165
     66          1           0      -32.710120    2.479968   -5.325643
     67          1           0      -32.485149    2.469807   -3.513805
     68          1           0      -29.126675   -1.068831   -5.396060
     69          1           0      -29.872532    0.043846   -6.330527
     70          1           0      -30.406538   -2.048230   -7.398963
     71          1           0      -31.855217   -2.075733   -6.253828
     72          1           0      -30.359789   -2.837095   -5.764057
     73          1           0      -29.116133   -5.514900   -2.301554
     74          1           0      -30.756111   -4.694009   -2.602084
     75          1           0      -30.608156   -5.688875   -1.298311
     76          1           0      -27.117953   -3.842094    2.553834
     77          1           0      -29.273590   -4.035087    6.149157
     78          1           0      -27.519583   -4.196328    6.560782
     79          1           0      -28.458871   -5.554139    6.178330
     80         12           0       29.419070   -0.369411   -0.007399
     81          6           0       26.697937    1.417176    1.028653
     82          6           0       27.175594   -2.994676   -0.866133
     83          6           0       32.019399   -2.005456   -1.402950
     84          6           0       31.309593    2.556800    0.011130
     85          7           0       27.048612   -0.585103   -0.262814
     86          6           0       26.210443    0.204855    0.465305
     87          6           0       24.798457   -0.295936    0.337036
     88          6           0       24.948405   -1.737928   -0.316965
     89          6           0       26.494206   -1.846371   -0.509136
     90          6           0       24.081033   -2.808961    0.236277
     91          6           0       23.680384    0.634345   -0.333689
     92          6           0       24.104221    1.585857   -1.413021
     93          1           0       23.273705    1.599205   -2.688700
     94          7           0       29.601056   -2.319952   -0.770109
     95          6           0       28.616932   -3.227094   -1.013730
     96          6           0       29.127983   -4.436099   -1.588844
     97          6           0       30.598239   -4.202936   -1.646180
     98          6           0       30.800800   -2.790596   -1.255659
     99          6           0       28.402678   -5.633972   -1.980009
    100          6           0       31.704521   -5.176063   -2.027648
    101          8           0       31.443278   -6.234072   -2.479391
    102          6           0       33.183548   -4.908178   -1.988452
    103          7           0       31.301935    0.222586   -0.716102
    104          6           0       32.225653   -0.684217   -1.069377
    105          6           0       33.574508    0.044925   -1.585064
    106          6           0       33.428409    1.416454   -0.762252
    107          6           0       31.935828    1.409385   -0.532615
    108          6           0       34.883513   -0.698773   -1.305586
    109          6           0       34.046066    2.621055   -1.495105
    110          6           0       34.974994    3.594416   -0.759920
    111          7           0       29.062719    1.625940    0.324104
    112          6           0       29.912831    2.724631    0.345642
    113          6           0       29.267527    3.870840    0.856891
    114          6           0       28.000293    3.434131    1.206123
    115          6           0       27.904912    2.038911    0.863228
    116          6           0       29.846503    5.236453    1.062736
    117          6           0       26.756189    3.715971    1.791489
    118          8           0       26.374088    4.794012    2.242159
    119          6           0       25.801016    2.511137    1.557224
    120          6           0       25.230164    2.249513    2.943221
    121          8           0       24.009249    2.164533    3.194056
    122          8           0       26.287962    1.991494    3.782908
    123          6           0       26.094065    1.455461    5.152416
    124          1           0       26.426836   -3.705902   -1.220885
    125          1           0       32.785210   -2.465026   -2.031077
    126          1           0       31.929969    3.452381    0.080446
    127          1           0       24.371803   -0.378760    1.337310
    128          1           0       24.621660   -1.630259   -1.350847
    129          1           0       24.620035   -3.727606    0.467641
    130          1           0       23.193459   -2.977416   -0.373608
    131          1           0       23.701662   -2.496447    1.209212
    132          1           0       23.169592    1.298038    0.364050
    133          1           0       22.966227    0.009690   -0.871149
    134          1           0       25.174702    1.599926   -1.615171
    135          1           0       23.866920    2.589003   -1.057248
    136          1           0       27.535496   -5.745151   -1.329808
    137          1           0       28.995086   -6.547165   -1.937440
    138          1           0       28.072431   -5.476674   -3.007431
    139          1           0       33.135062   -4.232774   -1.133965
    140          1           0       33.545276   -4.390477   -2.876295
    141          1           0       33.840176   -5.761152   -1.816270
    142          1           0       33.405038    0.262979   -2.639936
    143          1           0       33.833967    1.465319    0.248008
    144          1           0       35.378140   -0.170736   -0.489885
    145          1           0       35.427975   -0.870186   -2.233719
    146          1           0       34.730047   -1.714599   -0.942597
    147          1           0       33.212977    3.200021   -1.894572
    148          1           0       34.530682    2.247859   -2.397434
    149          1           0       35.929835    3.852093   -1.218407
    150          1           0       35.129068    3.327463    0.286414
    151          1           0       34.328693    4.462109   -0.631526
    152          1           0       29.459039    5.770049    1.930969
    153          1           0       29.648201    5.831921    0.171258
    154          1           0       30.922570    5.226002    1.241009
    155          1           0       25.075563    2.915349    0.852278
    156          1           0       26.849986    0.719228    5.425069
    157          1           0       25.109424    0.989750    5.196665
    158          1           0       26.088934    2.120909    6.014790
 ---------------------------------------------------------------------

 SCF Done:  E(RCAM-B3LYP) =  -4069.76859679     A.U. after   19 cycles

 Excitation energies and oscillator strengths:

 Excited State   1:      Singlet-A      1.6347 eV  758.43 nm  f=0.3856  <S**2>=0.000
     309 -> 315        0.16912
     311 -> 313        0.68879
     309 <- 315        0.10873
 This state for optimization and/or second-order correction.
 Total Energy, E(TD-HF/TD-DFT) =  -4069.70852125
 Copying the excited state density for this state as the 1-particle RhoCI density.

 Excited State   2:      Singlet-A      1.7540 eV  706.87 nm  f=0.3794  <S**2>=0.000
     310 -> 316        0.19893
     312 -> 314        0.68126
     310 <- 316        0.11271

 Excited State   3:      Singlet-A      2.1488 eV  576.98 nm  f=0.1478  <S**2>=0.000
     309 -> 313        0.65209
     311 -> 315       -0.25548

 Excited State   4:      Singlet-A      2.3187 eV  534.70 nm  f=0.0718  <S**2>=0.000
     310 -> 314        0.61706
     312 -> 316       -0.33877

 Excited State   5:      Singlet-A      2.8908 eV  428.89 nm  f=0.0000  <S**2>=0.000
     312 -> 313        0.70711

 The electronic state is 1-A.
 Alpha  occ. eigenvalues --  -46.89979 -46.88503 -19.26254 -19.25166 -19.20357
 Alpha  occ. eigenvalues --  -19.19033 -19.18840 -19.18611 -19.18509 -19.17268
 Alpha  occ. eigenvalues --  -14.42612 -14.42066 -14.41910 -14.41105 -14.40084
 Alpha  occ. eigenvalues --  -14.39768 -14.39690 -14.39602 -10.40509 -10.39142
 Alpha  occ. eigenvalues --  -10.35251 -10.34454 -10.34308 -10.33606 -10.32853
 Alpha  occ. eigenvalues --  -10.32123 -10.31636 -10.31220 -10.31042 -10.30956
 Alpha  occ. eigenvalues --  -10.30790 -10.30753 -10.30727 -10.30610 -10.30563
 Alpha  occ. eigenvalues --  -10.30478 -10.30408 -10.30396 -10.30207 -10.30085
 Alpha  occ. eigenvalues --  -10.29420 -10.29038 -10.28925 -10.28886 -10.28603
 Alpha  occ. eigenvalues --  -10.28494 -10.28466 -10.28404 -10.28325 -10.28230
 Alpha  occ. eigenvalues --  -10.28122 -10.28015 -10.28001 -10.27995 -10.27992
 Alpha  occ. eigenvalues --  -10.27955 -10.27834 -10.27606 -10.27549 -10.27542
 Alpha  occ. eigenvalues --  -10.27540 -10.27329 -10.27261 -10.27225 -10.27082
 Alpha  occ. eigenvalues --  -10.26969 -10.26921 -10.26820 -10.26808 -10.26764
 Alpha  occ. eigenvalues --  -10.26722 -10.26374 -10.26286 -10.26251 -10.26219
 Alpha  occ. eigenvalues --  -10.26099 -10.26097 -10.25988 -10.25938 -10.25923
 Alpha  occ. eigenvalues --  -10.25768 -10.25698 -10.25545 -10.25193 -10.25111
 Alpha  occ. eigenvalues --  -10.24608  -3.18451  -3.17109  -1.93309  -1.92943
 Alpha  occ. eigenvalues --   -1.92726  -1.92018  -1.91556  -1.91422  -1.16113
 Alpha  occ. eigenvalues --   -1.15714  -1.11446  -1.09477  -1.09389  -1.09065
 Alpha  occ. eigenvalues --   -1.07286  -1.05960  -1.05770  -1.05201  -1.04582
 Alpha  occ. eigenvalues --   -1.04397  -1.03078  -1.02970  -1.02189  -1.02184
 Alpha  occ. eigenvalues --   -0.93726  -0.93166  -0.90095  -0.89875  -0.89318
 Alpha  occ. eigenvalues --   -0.88772  -0.88479  -0.88438  -0.87976  -0.87592
 Alpha  occ. eigenvalues --   -0.87287  -0.87083  -0.86627  -0.85921  -0.84676
 Alpha  occ. eigenvalues --   -0.84587  -0.84069  -0.84031  -0.83136  -0.82936
 Alpha  occ. eigenvalues --   -0.82608  -0.82212  -0.81245  -0.81019  -0.80881
 Alpha  occ. eigenvalues --   -0.80625  -0.78671  -0.78552  -0.77843  -0.77722
 Alpha  occ. eigenvalues --   -0.77444  -0.77030  -0.76732  -0.76576  -0.75513
 Alpha  occ. eigenvalues --   -0.75249  -0.73623  -0.72992  -0.71957  -0.71791
 Alpha  occ. eigenvalues --   -0.70067  -0.69547  -0.69427  -0.69265  -0.68443
 Alpha  occ. eigenvalues --   -0.68087  -0.66605  -0.66533  -0.66424  -0.66309
 Alpha  occ. eigenvalues --   -0.65530  -0.65412  -0.65110  -0.64752  -0.64561
 Alpha  occ. eigenvalues --   -0.64439  -0.63633  -0.62544  -0.60411  -0.60318
 Alpha  occ. eigenvalues --   -0.59906  -0.59491  -0.59432  -0.58925  -0.58778
 Alpha  occ. eigenvalues --   -0.58396  -0.58101  -0.57661  -0.57613  -0.57257
 Alpha  occ. eigenvalues --   -0.56568  -0.56469  -0.55836  -0.55752  -0.55519
 Alpha  occ. eigenvalues --   -0.55366  -0.55150  -0.54502  -0.54440  -0.54032
 Alpha  occ. eigenvalues --   -0.54010  -0.53894  -0.53489  -0.53312  -0.53220
 Alpha  occ. eigenvalues --   -0.53170  -0.52969  -0.52547  -0.52115  -0.51974
 Alpha  occ. eigenvalues --   -0.51882  -0.51882  -0.51842  -0.51690  -0.51388
 Alpha  occ. eigenvalues --   -0.51211  -0.51117  -0.50791  -0.50729  -0.50630
 Alpha  occ. eigenvalues --   -0.50487  -0.50295  -0.50018  -0.49932  -0.49752
 Alpha  occ. eigenvalues --   -0.49653  -0.49500  -0.49221  -0.49079  -0.49034
 Alpha  occ. eigenvalues --   -0.48642  -0.48383  -0.48344  -0.48265  -0.47960
 Alpha  occ. eigenvalues --   -0.47908  -0.47802  -0.47597  -0.47364  -0.47343
 Alpha  occ. eigenvalues --   -0.47260  -0.47235  -0.47120  -0.47006  -0.46937
 Alpha  occ. eigenvalues --   -0.46541  -0.46450  -0.46231  -0.46179  -0.46044
 Alpha  occ. eigenvalues --   -0.45653  -0.45573  -0.45567  -0.45355  -0.45141
 Alpha  occ. eigenvalues --   -0.45057  -0.45055  -0.44921  -0.44528  -0.44191
 Alpha  occ. eigenvalues --   -0.44036  -0.43962  -0.43862  -0.43709  -0.43419
 Alpha  occ. eigenvalues --   -0.43419  -0.43152  -0.43108  -0.42745  -0.42673
 Alpha  occ. eigenvalues --   -0.42500  -0.42435  -0.42411  -0.42113  -0.42043
 Alpha  occ. eigenvalues --   -0.41979  -0.41764  -0.41753  -0.41682  -0.41565
 Alpha  occ. eigenvalues --   -0.41520  -0.41322  -0.41236  -0.41069  -0.40870
 Alpha  occ. eigenvalues --   -0.40599  -0.40266  -0.40122  -0.39935  -0.39069
 Alpha  occ. eigenvalues --   -0.38816  -0.38712  -0.38022  -0.37913  -0.37403
 Alpha  occ. eigenvalues --   -0.37042  -0.36918  -0.36186  -0.36067  -0.36003
 Alpha  occ. eigenvalues --   -0.35644  -0.35639  -0.34819  -0.33899  -0.33815
 Alpha  occ. eigenvalues --   -0.33535  -0.33118  -0.33009  -0.31604  -0.31567
 Alpha  occ. eigenvalues --   -0.31047  -0.30929  -0.30590  -0.30542  -0.30541
 Alpha  occ. eigenvalues --   -0.30263  -0.29580  -0.28384  -0.24495  -0.24075
 Alpha  occ. eigenvalues --   -0.21753  -0.20913
 Alpha virt. eigenvalues --   -0.09699  -0.08150  -0.01992  -0.01793   0.00111
 Alpha virt. eigenvalues --    0.00747   0.00968   0.02519   0.02660   0.03017
 Alpha virt. eigenvalues --    0.04535   0.04556   0.04880   0.05521   0.05877

 Mulliken charges:
               1
     1  Mg  12.000004
     2  C    6.000038
     3  C    6.000024
     4  C    5.999999
     5  C    5.999959
     6  N    7.000011
     7  C    5.999946
     8  C    6.000013
     9  C    5.999980
    10  C    6.000025
    11  C    5.999991
    12  C    6.000006
    13  C    5.999996
    14  H    0.999994
    15  N    6.999980
    16  C    6.000026
    17  C    6.000030
    18  C    5.999990
    19  C    6.000038
    20  C    5.999988
    21  C    6.000042
    22  O    8.000033
    23  C    5.999999
    24  N    6.999990
    25  C    6.000031
    26  C    5.999980
    27  C    6.000024
    28  C    5.999974
    29  C    5.999998
    30  C    6.000018
    31  C    5.999998
    32  N    7.000012
    33  C    5.999994
    34  C    5.999933
    35  C    6.000049
    36  C    5.999961
    37  C    6.000001
    38  C    5.999932
    39  O    7.999950
    40  C    5.999999
    41  C    5.999993
    42  O    7.999992
    43  O    7.999997
    44  C    6.000008
    45  H    1.000037
    46  H    1.000005
    47  H    0.999966
    48  H    1.000003
    49  H    1.000023
    50  H    1.000024
    51  H    1.000017
    52  H    0.999997
    53  H    0.999995
    54  H    1.000001
    55  H    1.000000
    56  H    1.000008
    57  H    1.000041
    58  H    1.000056
    59  H    1.000036
    60  H    1.000024
    61  H    1.000014
    62  H    1.000035
    63  H    0.999998
    64  H    0.999988
    65  H    1.000011
    66  H    1.000001
    67  H    0.999996
    68  H    0.999996
    69  H    0.999976
    70  H    0.999980
    71  H    0.999989
    72  H    1.000005
    73  H    0.999948
    74  H    0.999967
    75  H    0.999955
    76  H    0.999985
    77  H    0.999995
    78  H    0.999998
    79  H    0.999982
    80  Mg  12.003242
    81  C    6.005412
    82  C    5.977463
    83  C    5.977391
    84  C    6.020743
    85  N    6.992793
    86  C    5.972128
    87  C    6.010505
    88  C    5.984615
    89  C    6.039508
    90  C    5.998856
    91  C    6.000811
    92  C    6.003175
    93  H    0.988621
    94  N    6.992998
    95  C    6.050489
    96  C    6.023849
    97  C    6.007239
    98  C    6.047463
    99  C    5.993711
   100  C    6.010905
   101  O    8.020455
   102  C    6.000188
   103  N    7.004005
   104  C    6.030894
   105  C    5.989661
   106  C    6.013027
   107  C    5.960489
   108  C    5.999536
   109  C    6.001946
   110  C    5.998635
   111  N    7.004377
   112  C    5.959606
   113  C    5.976589
   114  C    5.990606
   115  C    5.971009
   116  C    6.003705
   117  C    5.984492
   118  O    7.964059
   119  C    6.000950
   120  C    5.993949
   121  O    7.988638
   122  O    8.005399
   123  C    6.005702
   124  H    1.008805
   125  H    1.006702
   126  H    0.992396
   127  H    1.001509
   128  H    1.005788
   129  H    0.994050
   130  H    1.004241
   131  H    1.009611
   132  H    1.002974
   133  H    0.989898
   134  H    1.004517
   135  H    1.003913
   136  H    1.020256
   137  H    1.016903
   138  H    1.023609
   139  H    1.004800
   140  H    1.012522
   141  H    1.013562
   142  H    1.004530
   143  H    0.995845
   144  H    1.008546
   145  H    1.001189
   146  H    0.992962
   147  H    1.003119
   148  H    0.989328
   149  H    0.994996
   150  H    0.998888
   151  H    1.005124
   152  H    0.985533
   153  H    0.980804
   154  H    0.980731
   155  H    0.991346
   156  H    0.992516
   157  H    0.992985
   158  H    0.995670
 Sum of Mulliken charges = 624.00000

 Dipole moment (field-independent basis, Debye):
    X=              1.9702    Y=            -10.3588    Z=             -3.6352  Tot=             11.1535
 Quadrupole moment (field-independent basis, Debye-Ang):
   XX=            112.3544   YY=              8.0538   ZZ=             -0.4235
   XY=           -304.0580   XZ=           -104.7276   YZ=              4.3656

 Normal termination of Gaussian 16 at Wed Sep 22 23:52:11 2021.
