 Gaussian 16, Revision A.03,
 Gaussian 16:  ES64L-G16RevA.03 25-Dec-2016

 -----------------------------------
 #p cam-b3lyp/Def2SVP td=(nstates=5)
 -----------------------------------

 --------------------------------
 TDDFT excited states in gaussian
 --------------------------------
 Symbolic Z-matrix:
 Charge =  0 Multiplicity = 1

                         Standard orientation:
 ---------------------------------------------------------------------
 Center     Atomic      Atomic             Coordinates (Angstroms)
 Number     Number       Type             X           Y           Z
 ---------------------------------------------------------------------
      1         12           0       32.962029    0.511891   -0.490560
      2          6           0       31.357769   -2.382525    0.460752
      3          6           0       30.405095    2.301898    0.895895
      4          6           0       35.052444    3.061451   -0.284110
      5          6           0       35.522821   -1.483993   -1.827076
      6          7           0       31.339415   -0.054348    0.962559
      7          6           0       30.744247   -1.274555    0.992270
      8          6           0       29.421274   -1.257959    1.699295
      9          6           0       28.990301    0.219166    1.424685
     10          6           0       30.301187    0.860790    0.994582
     11          6           0       27.825168    0.333905    0.400327
     12          6           0       29.569873   -1.545455    3.277017
     13          6           0       28.372712   -2.372843    3.939382
     14          1           0       27.753270   -1.513678    5.013703
     15          7           0       32.679361    2.471676    0.031539
     16          6           0       31.625035    3.040428    0.656419
     17          6           0       31.884964    4.448787    0.926886
     18          6           0       33.224114    4.689314    0.556681
     19          6           0       33.709913    3.364754    0.077705
     20          6           0       30.808628    5.352098    1.576350
     21          6           0       33.938579    5.974873    0.867753
     22          8           0       33.334390    6.879463    1.382451
     23          6           0       35.438512    6.225359    0.620665
     24          7           0       35.002130    0.836822   -1.104709
     25          6           0       35.597773    1.925781   -0.896884
     26          6           0       37.046530    1.877510   -1.214816
     27          6           0       37.229899    0.399309   -1.739456
     28          6           0       35.873581   -0.129264   -1.558462
     29          6           0       37.466264    3.032791   -2.185366
     30          6           0       38.321934   -0.406956   -0.895023
     31          6           0       38.934959   -1.696502   -1.548162
     32          7           0       33.373592   -1.493657   -0.750892
     33          6           0       34.404679   -2.142290   -1.405906
     34          6           0       34.138753   -3.551173   -1.496969
     35          6           0       32.888207   -3.696820   -0.800366
     36          6           0       32.541301   -2.459639   -0.292778
     37          6           0       34.970259   -4.600804   -2.161216
     38          6           0       31.891428   -4.642997   -0.434525
     39          8           0       31.741787   -5.861831   -0.589782
     40          6           0       30.960309   -3.873009    0.559536
     41          6           0       29.557744   -4.215369    0.181670
     42          8           0       28.889639   -5.125638    0.691823
     43          8           0       29.146769   -3.412968   -0.846708
     44          6           0       27.763756   -3.802113   -1.241303
     45          1           0       29.587617    2.967555    1.181971
     46          1           0       35.733846    3.903281   -0.148631
     47          1           0       36.373327   -2.104891   -2.118790
     48          1           0       28.810135   -1.954285    1.126455
     49          1           0       28.594004    0.649781    2.344409
     50          1           0       26.951674    0.757307    0.895306
     51          1           0       27.547447   -0.681966    0.117398
     52          1           0       28.196523    0.897009   -0.455320
     53          1           0       29.787786   -0.682556    3.906137
     54          1           0       30.464393   -2.136813    3.469877
     55          1           0       28.870425   -3.208671    4.431315
     56          1           0       27.616688   -2.834381    3.304053
     57          1           0       31.102772    5.811425    2.519992
     58          1           0       29.843770    4.863529    1.716647
     59          1           0       30.575019    6.130710    0.850966
     60          1           0       35.710878    6.201778   -0.433988
     61          1           0       36.092761    5.555683    1.179436
     62          1           0       35.640868    7.174086    1.118660
     63          1           0       37.518309    1.984714   -0.238160
     64          1           0       37.426003    0.245734   -2.800344
     65          1           0       38.232266    3.612764   -1.671078
     66          1           0       36.618719    3.659774   -2.462826
     67          1           0       38.049026    2.703208   -3.045380
     68          1           0       37.901685   -0.712008    0.063560
     69          1           0       39.113922    0.313011   -0.694114
     70          1           0       40.005105   -1.777998   -1.736566
     71          1           0       38.522125   -1.852946   -2.543815
     72          1           0       38.683356   -2.574873   -0.953781
     73          1           0       35.805070   -4.251674   -2.768600
     74          1           0       34.193580   -5.091139   -2.746724
     75          1           0       35.209190   -5.221166   -1.297313
     76          1           0       31.137721   -4.103467    1.610562
     77          1           0       27.787359   -4.780328   -1.720493
     78          1           0       27.369856   -3.191834   -2.054047
     79          1           0       27.139507   -3.746290   -0.349264
     80         12           0      -33.142045   -0.461947   -0.767006
     81          6           0      -30.229547    1.356636    0.132200
     82          6           0      -31.642629   -3.273637    0.651894
     83          6           0      -36.172376   -1.726207   -0.532741
     84          6           0      -34.525007    2.744623   -1.866684
     85          7           0      -31.195297   -0.825622    0.522850
     86          6           0      -30.111873   -0.010732    0.487352
     87          6           0      -28.896242   -0.769062    0.989382
     88          6           0      -29.175966   -2.219942    0.597051
     89          6           0      -30.786505   -2.134451    0.640162
     90          6           0      -28.724818   -2.703627   -0.782389
     91          6           0      -28.679528   -0.465846    2.535969
     92          6           0      -27.264575   -0.189362    2.862146
     93          1           0      -26.697516   -0.803694    4.156755
     94          7           0      -33.880239   -2.275665    0.012661
     95          6           0      -33.074609   -3.342789    0.481916
     96          6           0      -33.974934   -4.422983    0.797776
     97          6           0      -35.295300   -4.084945    0.398784
     98          6           0      -35.201491   -2.649432   -0.047725
     99          6           0      -33.451442   -5.717473    1.411930
    100          6           0      -36.498245   -4.929137    0.553119
    101          8           0      -36.379393   -6.039104    1.057080
    102          6           0      -37.909265   -4.551721    0.241471
    103          7           0      -35.138714    0.496655   -1.080474
    104          6           0      -36.160692   -0.382079   -1.092895
    105          6           0      -37.438809    0.277893   -1.641253
    106          6           0      -36.900867    1.699100   -2.233677
    107          6           0      -35.426711    1.661918   -1.754089
    108          6           0      -38.283836   -0.638667   -2.635947
    109          6           0      -37.701954    2.961331   -1.785211
    110          6           0      -37.125012    3.808177   -0.599950
    111          7           0      -32.569279    1.553277   -0.870246
    112          6           0      -33.219305    2.703850   -1.400820
    113          6           0      -32.201766    3.840264   -1.484185
    114          6           0      -31.086656    3.317002   -0.849397
    115          6           0      -31.357505    1.940526   -0.520622
    116          6           0      -32.285535    5.275979   -2.037297
    117          6           0      -29.737706    3.596677   -0.471622
    118          8           0      -29.042704    4.593819   -0.673544
    119          6           0      -29.275918    2.398315    0.277994
    120          6           0      -29.226635    2.900983    1.738984
    121          8           0      -30.173725    3.044073    2.509384
    122          8           0      -27.875305    3.247141    2.017837
    123          6           0      -27.583814    3.849170    3.255146
    124          1           0      -31.198020   -4.210845    0.993481
    125          1           0      -37.103475   -2.294556   -0.578133
    126          1           0      -34.796366    3.703537   -2.311571
    127          1           0      -27.980522   -0.519166    0.453765
    128          1           0      -28.815314   -3.039486    1.217584
    129          1           0      -27.956351   -2.079645   -1.237774
    130          1           0      -29.574020   -2.966850   -1.413475
    131          1           0      -28.224577   -3.642548   -0.542312
    132          1           0      -28.969350   -1.348535    3.106128
    133          1           0      -29.367244    0.272703    2.948044
    134          1           0      -27.255692    0.899756    2.885817
    135          1           0      -26.648168   -0.551828    2.039627
    136          1           0      -33.416251   -6.541551    0.699626
    137          1           0      -34.039571   -5.944399    2.299947
    138          1           0      -32.427555   -5.582922    1.761017
    139          1           0      -38.003177   -4.452491   -0.840212
    140          1           0      -38.273508   -3.638785    0.714205
    141          1           0      -38.591043   -5.387176    0.395808
    142          1           0      -38.006207    0.494373   -0.736353
    143          1           0      -36.847381    1.622334   -3.319130
    144          1           0      -38.084658   -1.695712   -2.460181
    145          1           0      -38.270322   -0.415691   -3.703471
    146          1           0      -39.306301   -0.311516   -2.440777
    147          1           0      -38.740341    2.731505   -1.547777
    148          1           0      -37.659928    3.584232   -2.678376
    149          1           0      -38.094157    4.128022   -0.216406
    150          1           0      -36.523797    4.685416   -0.839889
    151          1           0      -36.636591    3.118670    0.088924
    152          1           0      -31.538592    5.440098   -2.813200
    153          1           0      -31.893746    5.774422   -1.151155
    154          1           0      -33.336544    5.494293   -2.225297
    155          1           0      -28.266512    2.137583   -0.040359
    156          1           0      -26.532848    4.101272    3.401997
    157          1           0      -27.868449    3.143281    4.034386
    158          1           0      -28.187810    4.756778    3.273621
 ---------------------------------------------------------------------

 SCF Done:  E(RCAM-B3LYP) =  -4069.75102198     A.U. after   19 cycles

 Excitation energies and oscillator strengths:

 Excited State   1:      Singlet-A      1.6842 eV  736.14 nm  f=0.3410  <S**2>=0.000
     310 -> 315        0.19720
     312 -> 314        0.68002
     310 <- 315        0.11210
 This state for optimization and/or second-order correction.
 Total Energy, E(TD-HF/TD-DFT) =  -4069.68912721
 Copying the excited state density for this state as the 1-particle RhoCI density.

 Excited State   2:      Singlet-A      1.6890 eV  734.06 nm  f=0.3735  <S**2>=0.000
     309 -> 316       -0.16432
     311 -> 313        0.68774
     309 <- 316       -0.10170

 Excited State   3:      Singlet-A      2.1915 eV  565.74 nm  f=0.0566  <S**2>=0.000
     310 -> 314        0.61453
     312 -> 315       -0.33942

 Excited State   4:      Singlet-A      2.2121 eV  560.48 nm  f=0.1066  <S**2>=0.000
     309 -> 313        0.64120
     311 -> 316        0.27965

 Excited State   5:      Singlet-A      3.1916 eV  388.47 nm  f=0.0000  <S**2>=0.000
     312 -> 313        0.70711

 The electronic state is 1-A.
 Alpha  occ. eigenvalues --  -46.91311 -46.89223 -19.25561 -19.24721 -19.21413
 Alpha  occ. eigenvalues --  -19.19523 -19.19043 -19.18923 -19.17900 -19.17583
 Alpha  occ. eigenvalues --  -14.42417 -14.42114 -14.41952 -14.41908 -14.40311
 Alpha  occ. eigenvalues --  -14.40253 -14.39771 -14.38590 -10.40603 -10.38662
 Alpha  occ. eigenvalues --  -10.35757 -10.34572 -10.34135 -10.34072 -10.32316
 Alpha  occ. eigenvalues --  -10.31840 -10.31714 -10.31710 -10.31438 -10.31413
 Alpha  occ. eigenvalues --  -10.31317 -10.31064 -10.30984 -10.30983 -10.30841
 Alpha  occ. eigenvalues --  -10.30682 -10.30253 -10.30091 -10.29969 -10.29477
 Alpha  occ. eigenvalues --  -10.29402 -10.29373 -10.28790 -10.28785 -10.28531
 Alpha  occ. eigenvalues --  -10.28422 -10.28391 -10.28390 -10.28383 -10.28212
 Alpha  occ. eigenvalues --  -10.28211 -10.28162 -10.28156 -10.28039 -10.27918
 Alpha  occ. eigenvalues --  -10.27850 -10.27779 -10.27689 -10.27674 -10.27617
 Alpha  occ. eigenvalues --  -10.27585 -10.27572 -10.27565 -10.27435 -10.27365
 Alpha  occ. eigenvalues --  -10.27261 -10.27174 -10.27169 -10.27116 -10.27104
 Alpha  occ. eigenvalues --  -10.26996 -10.26790 -10.26670 -10.26656 -10.26615
 Alpha  occ. eigenvalues --  -10.26584 -10.26372 -10.26279 -10.26244 -10.26221
 Alpha  occ. eigenvalues --  -10.26218 -10.25779 -10.25678 -10.25281 -10.24987
 Alpha  occ. eigenvalues --  -10.24433  -3.19511  -3.17796  -1.94352  -1.94018
 Alpha  occ. eigenvalues --   -1.93766  -1.92684  -1.92266  -1.92088  -1.15949
 Alpha  occ. eigenvalues --   -1.15831  -1.11958  -1.09611  -1.09367  -1.08662
 Alpha  occ. eigenvalues --   -1.08106  -1.07052  -1.06428  -1.04592  -1.04211
 Alpha  occ. eigenvalues --   -1.03937  -1.03459  -1.02847  -1.02829  -1.01285
 Alpha  occ. eigenvalues --   -0.94389  -0.92499  -0.89732  -0.89180  -0.88731
 Alpha  occ. eigenvalues --   -0.88690  -0.88260  -0.87810  -0.87301  -0.87276
 Alpha  occ. eigenvalues --   -0.86879  -0.86858  -0.86629  -0.85581  -0.84788
 Alpha  occ. eigenvalues --   -0.84300  -0.83805  -0.83671  -0.82712  -0.82277
 Alpha  occ. eigenvalues --   -0.81829  -0.81651  -0.80916  -0.80866  -0.80346
 Alpha  occ. eigenvalues --   -0.80282  -0.78425  -0.78046  -0.77843  -0.77280
 Alpha  occ. eigenvalues --   -0.76887  -0.76808  -0.76012  -0.75973  -0.75493
 Alpha  occ. eigenvalues --   -0.75215  -0.72756  -0.72692  -0.72223  -0.71849
 Alpha  occ. eigenvalues --   -0.70488  -0.69926  -0.69314  -0.68722  -0.68153
 Alpha  occ. eigenvalues --   -0.67749  -0.67327  -0.66877  -0.66824  -0.65360
 Alpha  occ. eigenvalues --   -0.65351  -0.64978  -0.64853  -0.64721  -0.64553
 Alpha  occ. eigenvalues --   -0.64461  -0.62421  -0.62222  -0.60517  -0.59940
 Alpha  occ. eigenvalues --   -0.59777  -0.59624  -0.59280  -0.59185  -0.58909
 Alpha  occ. eigenvalues --   -0.58803  -0.58269  -0.57977  -0.57044  -0.56998
 Alpha  occ. eigenvalues --   -0.56692  -0.56211  -0.56209  -0.55968  -0.55671
 Alpha  occ. eigenvalues --   -0.55648  -0.55043  -0.54957  -0.54567  -0.54143
 Alpha  occ. eigenvalues --   -0.53686  -0.53590  -0.53401  -0.53042  -0.52948
 Alpha  occ. eigenvalues --   -0.52662  -0.52649  -0.52391  -0.52188  -0.51976
 Alpha  occ. eigenvalues --   -0.51970  -0.51702  -0.51677  -0.51399  -0.51313
 Alpha  occ. eigenvalues --   -0.51234  -0.51185  -0.50651  -0.50561  -0.50411
 Alpha  occ. eigenvalues --   -0.50213  -0.50191  -0.49975  -0.49918  -0.49691
 Alpha  occ. eigenvalues --   -0.49411  -0.49235  -0.49142  -0.48957  -0.48940
 Alpha  occ. eigenvalues --   -0.48625  -0.48485  -0.48340  -0.48273  -0.47771
 Alpha  occ. eigenvalues --   -0.47766  -0.47680  -0.47477  -0.47407  -0.47175
 Alpha  occ. eigenvalues --   -0.46925  -0.46857  -0.46814  -0.46285  -0.46224
 Alpha  occ. eigenvalues --   -0.46101  -0.45953  -0.45909  -0.45876  -0.45829
 Alpha  occ. eigenvalues --   -0.45812  -0.45443  -0.45378  -0.45309  -0.45153
 Alpha  occ. eigenvalues --   -0.45105  -0.44666  -0.44577  -0.44456  -0.44416
 Alpha  occ. eigenvalues --   -0.44298  -0.44209  -0.44145  -0.43983  -0.43800
 Alpha  occ. eigenvalues --   -0.43483  -0.43377  -0.43313  -0.43164  -0.43010
 Alpha  occ. eigenvalues --   -0.42918  -0.42607  -0.42338  -0.42186  -0.42048
 Alpha  occ. eigenvalues --   -0.41962  -0.41898  -0.41608  -0.41453  -0.41306
 Alpha  occ. eigenvalues --   -0.41162  -0.41018  -0.40984  -0.40765  -0.40434
 Alpha  occ. eigenvalues --   -0.40091  -0.40071  -0.39619  -0.39179  -0.38622
 Alpha  occ. eigenvalues --   -0.38566  -0.38284  -0.38275  -0.37932  -0.37708
 Alpha  occ. eigenvalues --   -0.37644  -0.36813  -0.36706  -0.36524  -0.36487
 Alpha  occ. eigenvalues --   -0.36333  -0.35778  -0.35224  -0.34966  -0.34225
 Alpha  occ. eigenvalues --   -0.33596  -0.33384  -0.33354  -0.31908  -0.31472
 Alpha  occ. eigenvalues --   -0.31379  -0.30817  -0.30597  -0.30575  -0.30223
 Alpha  occ. eigenvalues --   -0.30051  -0.29486  -0.28957  -0.24183  -0.24057
 Alpha  occ. eigenvalues --   -0.21162  -0.21045
 Alpha virt. eigenvalues --   -0.08798  -0.08539  -0.02623  -0.01800  -0.00612
 Alpha virt. eigenvalues --    0.00126   0.00206   0.01664   0.02162   0.02361
 Alpha virt. eigenvalues --    0.04624   0.04699   0.05159   0.05807   0.05887

 Mulliken charges:
               1
     1  Mg   0.827945
     2  C    0.029824
     3  C   -0.080499
     4  C   -0.070067
     5  C   -0.085112
     6  N   -0.279641
     7  C   -0.085635
     8  C    0.013162
     9  C   -0.095819
    10  C    0.097099
    11  C    0.091201
    12  C    0.062614
    13  C   -0.075215
    14  H    0.013424
    15  N   -0.375436
    16  C    0.100331
    17  C   -0.121989
    18  C   -0.020097
    19  C    0.147708
    20  C    0.133010
    21  C   -0.028662
    22  O   -0.181289
    23  C    0.044392
    24  N   -0.219535
    25  C   -0.003966
    26  C   -0.028916
    27  C    0.001903
    28  C   -0.020765
    29  C    0.065826
    30  C    0.026747
    31  C   -0.008597
    32  N   -0.362099
    33  C    0.142917
    34  C   -0.189891
    35  C    0.039462
    36  C    0.070826
    37  C    0.143852
    38  C    0.011187
    39  O   -0.189837
    40  C    0.005451
    41  C    0.179227
    42  O   -0.228216
    43  O   -0.342855
    44  C    0.180409
    45  H   -0.022456
    46  H   -0.067115
    47  H   -0.047000
    48  H    0.007627
    49  H    0.015467
    50  H    0.019112
    51  H    0.006656
    52  H    0.019686
    53  H    0.017319
    54  H    0.008060
    55  H    0.035237
    56  H    0.040854
    57  H    0.046018
    58  H   -0.003630
    59  H    0.028833
    60  H    0.045401
    61  H    0.039473
    62  H    0.024609
    63  H    0.020018
    64  H    0.015940
    65  H    0.008873
    66  H    0.036929
    67  H    0.015502
    68  H    0.016342
    69  H    0.011566
    70  H    0.016011
    71  H    0.015038
    72  H    0.022409
    73  H    0.021520
    74  H    0.042222
    75  H    0.041820
    76  H    0.048102
    77  H    0.046358
    78  H    0.028323
    79  H    0.044496
    80  Mg   0.808522
    81  C    0.026508
    82  C   -0.060732
    83  C   -0.021874
    84  C   -0.054821
    85  N   -0.238521
    86  C   -0.066687
    87  C   -0.007321
    88  C   -0.085903
    89  C    0.025278
    90  C    0.085427
    91  C    0.072662
    92  C   -0.063560
    93  H    0.018178
    94  N   -0.411435
    95  C    0.127357
    96  C   -0.147931
    97  C    0.024180
    98  C    0.084043
    99  C    0.141731
   100  C   -0.053930
   101  O   -0.216886
   102  C    0.078840
   103  N   -0.260289
   104  C    0.038680
   105  C   -0.046176
   106  C    0.025428
   107  C   -0.014264
   108  C    0.052467
   109  C    0.002694
   110  C    0.007464
   111  N   -0.333228
   112  C    0.096748
   113  C   -0.206563
   114  C    0.019533
   115  C    0.125905
   116  C    0.134631
   117  C    0.005930
   118  O   -0.180155
   119  C    0.016409
   120  C    0.215326
   121  O   -0.202560
   122  O   -0.345889
   123  C    0.186832
   124  H   -0.020642
   125  H   -0.066442
   126  H   -0.026122
   127  H   -0.009638
   128  H    0.002562
   129  H    0.020033
   130  H    0.025892
   131  H    0.005833
   132  H    0.007757
   133  H    0.031960
   134  H    0.024942
   135  H    0.024298
   136  H    0.034552
   137  H    0.037890
   138  H   -0.012197
   139  H    0.019229
   140  H    0.050493
   141  H    0.019670
   142  H    0.023824
   143  H    0.010335
   144  H    0.032476
   145  H    0.011778
   146  H    0.010043
   147  H    0.015633
   148  H    0.005367
   149  H    0.012267
   150  H    0.025458
   151  H    0.040071
   152  H    0.049510
   153  H    0.045728
   154  H    0.017029
   155  H    0.029896
   156  H    0.038713
   157  H    0.024815
   158  H    0.034940
 Sum of Mulliken charges =  -0.00000

 Dipole moment (field-independent basis, Debye):
    X=              2.0331    Y=              4.9947    Z=             -6.0577  Tot=              8.1102
 Quadrupole moment (field-independent basis, Debye-Ang):
   XX=           -195.9585   YY=           -603.3636   ZZ=           -504.1618
   XY=             97.4267   XZ=             66.4176   YZ=              3.4140

 Normal termination of Gaussian 16 at Thu Sep 16 03:31:04 2021.
