 Gaussian 16, Revision A.03,
 Gaussian 16:  ES64L-G16RevA.03 25-Dec-2016

 ----------------------------------------------------------
 #p cam-b3lyp/Def2SVP td=(nstates=5) density=(transition=1)
 ----------------------------------------------------------

 --------------------------------
 TDDFT excited states in gaussian
 --------------------------------
 Symbolic Z-matrix:
 Charge =  0 Multiplicity = 1

                         Standard orientation:
 ---------------------------------------------------------------------
 Center     Atomic      Atomic             Coordinates (Angstroms)
 Number     Number       Type             X           Y           Z
 ---------------------------------------------------------------------
      1         12           0       24.079128   -0.791055    0.139691
      2          6           0       24.140858    2.458107   -1.154445
      3          6           0       24.188078    0.398950    3.196121
      4          6           0       24.777507   -3.948821    1.299252
      5          6           0       24.478597   -2.060491   -3.130549
      6          7           0       24.052345    1.185777    0.869588
      7          6           0       24.012518    2.398331    0.217017
      8          6           0       23.788658    3.553779    1.183990
      9          6           0       24.039640    2.860979    2.561731
     10          6           0       23.988308    1.413243    2.217054
     11          6           0       25.224116    3.279243    3.405880
     12          6           0       22.418586    4.287303    1.025607
     13          6           0       22.197074    5.468540    1.976597
     14          1           0       21.779672    6.779625    1.326728
     15          7           0       24.513481   -1.681942    2.086246
     16          6           0       24.357183   -1.005168    3.243081
     17          6           0       24.490821   -1.916543    4.345576
     18          6           0       24.774171   -3.181204    3.801637
     19          6           0       24.708242   -2.963943    2.330817
     20          6           0       24.401726   -1.501608    5.799006
     21          6           0       24.980192   -4.492497    4.486492
     22          8           0       25.371816   -5.561496    3.946371
     23          6           0       24.667921   -4.637341    5.970904
     24          7           0       24.577879   -2.680654   -0.774211
     25          6           0       24.883250   -3.796723   -0.072227
     26          6           0       24.976570   -5.064362   -1.081042
     27          6           0       24.407777   -4.461175   -2.413193
     28          6           0       24.408364   -2.996600   -2.112872
     29          6           0       26.474661   -5.557518   -1.150695
     30          6           0       22.906976   -4.881690   -2.621226
     31          6           0       21.907669   -4.657019   -1.497097
     32          7           0       24.220518    0.012465   -1.842456
     33          6           0       24.372894   -0.657193   -3.025425
     34          6           0       24.402581    0.298683   -4.032746
     35          6           0       24.341148    1.582430   -3.418145
     36          6           0       24.231383    1.354311   -2.071622
     37          6           0       24.592827    0.110971   -5.496611
     38          6           0       24.355275    3.052258   -3.595312
     39          8           0       24.490428    3.784015   -4.569282
     40          6           0       24.120413    3.674083   -2.111164
     41          6           0       25.072772    4.787252   -1.854943
     42          8           0       26.268865    4.826317   -2.270603
     43          8           0       24.381291    5.761824   -1.279741
     44          6           0       25.006476    7.067023   -1.376035
     45          1           0       24.109777    0.734154    4.232559
     46          1           0       24.964542   -4.965780    1.652238
     47          1           0       24.471817   -2.493787   -4.131915
     48          1           0       24.523329    4.298696    0.877692
     49          1           0       23.208119    2.983373    3.256623
     50          1           0       25.664527    4.252261    3.188315
     51          1           0       25.990346    2.505422    3.351894
     52          1           0       24.937906    3.130636    4.447271
     53          1           0       21.604935    3.568543    1.126189
     54          1           0       22.331072    4.656604    0.004337
     55          1           0       23.144162    5.878055    2.327464
     56          1           0       21.544512    5.193188    2.805641
     57          1           0       24.351011   -0.425756    5.966130
     58          1           0       25.286780   -1.698035    6.403656
     59          1           0       23.555085   -1.943289    6.325472
     60          1           0       25.408833   -4.061482    6.524768
     61          1           0       24.916661   -5.630137    6.345165
     62          1           0       23.626557   -4.424194    6.214913
     63          1           0       24.391060   -5.892398   -0.681468
     64          1           0       25.144886   -4.719329   -3.173512
     65          1           0       27.105036   -5.147190   -0.361601
     66          1           0       26.988354   -5.294674   -2.075572
     67          1           0       26.586904   -6.631394   -1.008459
     68          1           0       23.056405   -5.943707   -2.816153
     69          1           0       22.432500   -4.454335   -3.504079
     70          1           0       22.431149   -4.402551   -0.575264
     71          1           0       21.169429   -5.442631   -1.339823
     72          1           0       21.301622   -3.839216   -1.887056
     73          1           0       23.888608   -0.583227   -5.955846
     74          1           0       25.584618   -0.329207   -5.595911
     75          1           0       24.586267    1.052988   -6.043977
     76          1           0       23.117284    4.096001   -2.167312
     77          1           0       24.259730    7.820786   -1.628780
     78          1           0       25.778189    7.178207   -2.137367
     79          1           0       25.406598    7.278949   -0.383989
     80         12           0      -24.805727   -0.540002   -0.049692
     81          6           0      -22.538981    2.118158   -0.351039
     82          6           0      -26.500682    1.304384    2.312421
     83          6           0      -26.907893   -3.067738    0.238638
     84          6           0      -22.859138   -2.333238   -2.360058
     85          7           0      -24.548801    1.502835    0.767764
     86          6           0      -23.544073    2.443308    0.539627
     87          6           0      -23.889908    3.876221    1.106038
     88          6           0      -25.032028    3.491256    2.026403
     89          6           0      -25.410339    1.990466    1.686912
     90          6           0      -24.562533    3.520695    3.552825
     91          6           0      -24.434417    4.671170   -0.162656
     92          6           0      -23.969684    6.185172   -0.323656
     93          1           0      -23.801104    6.811513    1.036984
     94          7           0      -26.339440   -0.876180    1.191541
     95          6           0      -26.885802   -0.047527    2.076937
     96          6           0      -28.038021   -0.612964    2.727590
     97          6           0      -28.300902   -1.808013    2.029068
     98          6           0      -27.108667   -2.004475    1.121142
     99          6           0      -28.812067    0.007162    3.832579
    100          6           0      -29.519615   -2.707566    2.043583
    101          8           0      -29.717994   -3.583080    1.193569
    102          6           0      -30.514447   -2.626428    3.204754
    103          7           0      -24.825567   -2.472933   -0.924640
    104          6           0      -25.901603   -3.282415   -0.646540
    105          6           0      -25.833268   -4.505882   -1.558038
    106          6           0      -24.570683   -4.227483   -2.510761
    107          6           0      -24.062386   -2.916271   -1.971597
    108          6           0      -25.819626   -5.814927   -0.692105
    109          6           0      -24.824286   -4.236220   -4.010100
    110          6           0      -23.862620   -5.174192   -4.804822
    111          7           0      -23.051025   -0.196753   -1.114150
    112          6           0      -22.348226   -1.046455   -2.025037
    113          6           0      -21.168770   -0.406499   -2.487449
    114          6           0      -21.222874    0.841991   -1.845130
    115          6           0      -22.350784    0.877793   -0.999211
    116          6           0      -20.124851   -0.863773   -3.454699
    117          6           0      -20.569711    2.103033   -1.696416
    118          8           0      -19.544673    2.555520   -2.149513
    119          6           0      -21.472905    3.001338   -0.804753
    120          6           0      -20.633776    3.639432    0.241983
    121          8           0      -20.110005    3.102086    1.213764
    122          8           0      -20.595036    4.945903   -0.037348
    123          6           0      -19.895810    5.797128    0.902256
    124          1           0      -27.203416    1.824914    2.966185
    125          1           0      -27.632249   -3.872170    0.389049
    126          1           0      -22.259222   -2.828631   -3.126395
    127          1           0      -22.935784    4.281693    1.441280
    128          1           0      -25.894160    4.132139    1.844798
    129          1           0      -23.509739    3.782984    3.659217
    130          1           0      -24.726840    2.531482    3.979664
    131          1           0      -25.221850    4.254675    4.016289
    132          1           0      -25.521909    4.725903   -0.202546
    133          1           0      -24.140797    4.085229   -1.034004
    134          1           0      -24.779112    6.793183   -0.727866
    135          1           0      -23.194331    6.287293   -1.083373
    136          1           0      -29.787143    0.267894    3.418814
    137          1           0      -28.343642    0.926991    4.179935
    138          1           0      -28.951535   -0.653890    4.687434
    139          1           0      -30.999657   -3.595935    3.094305
    140          1           0      -31.201526   -1.781772    3.141718
    141          1           0      -30.107390   -2.658573    4.215206
    142          1           0      -26.692053   -4.655757   -2.212289
    143          1           0      -23.810749   -4.979660   -2.298631
    144          1           0      -26.535181   -6.486946   -1.166023
    145          1           0      -26.036597   -5.650521    0.363402
    146          1           0      -24.911297   -6.393396   -0.864751
    147          1           0      -24.790862   -3.251950   -4.476159
    148          1           0      -25.786298   -4.741066   -4.108915
    149          1           0      -23.242941   -5.757609   -4.123655
    150          1           0      -23.102094   -4.608469   -5.342639
    151          1           0      -24.417109   -5.854486   -5.451558
    152          1           0      -20.654270   -0.757173   -4.401915
    153          1           0      -19.840765   -1.871034   -3.150826
    154          1           0      -19.267700   -0.192931   -3.491937
    155          1           0      -21.761922    3.807059   -1.480892
    156          1           0      -18.883575    5.423991    1.060471
    157          1           0      -20.297753    5.845606    1.914843
    158          1           0      -19.862908    6.786526    0.445708
 ---------------------------------------------------------------------

 SCF Done:  E(RCAM-B3LYP) =  -4069.84602354     A.U. after   19 cycles

 Excitation energies and oscillator strengths:

 Excited State   1:      Singlet-A      1.7144 eV  723.19 nm  f=0.3846  <S**2>=0.000
     310 -> 316        0.16593
     311 -> 313        0.68893
     310 <- 316        0.10308
 This state for optimization and/or second-order correction.
 Total Energy, E(TD-HF/TD-DFT) =  -4069.78302054
 Copying the excited state density for this state as the 1-particle RhoCI density.

 Excited State   2:      Singlet-A      1.7259 eV  718.39 nm  f=0.3908  <S**2>=0.000
     309 -> 315       -0.16126
     312 -> 314        0.68767

 Excited State   3:      Singlet-A      2.1453 eV  577.93 nm  f=0.1689  <S**2>=0.000
     310 -> 313        0.66340
     311 -> 316       -0.22677

 Excited State   4:      Singlet-A      2.2842 eV  542.80 nm  f=0.1220  <S**2>=0.000
     309 -> 314        0.63702
     312 -> 315        0.28303

 Excited State   5:      Singlet-A      2.9933 eV  414.20 nm  f=0.0000  <S**2>=0.000
     312 -> 313        0.70711

 The electronic state is 1-A.
 Alpha  occ. eigenvalues --  -46.89369 -46.87778 -19.26649 -19.25271 -19.19929
 Alpha  occ. eigenvalues --  -19.19099 -19.19038 -19.18804 -19.18441 -19.17415
 Alpha  occ. eigenvalues --  -14.42890 -14.42250 -14.41813 -14.41630 -14.40232
 Alpha  occ. eigenvalues --  -14.39751 -14.38478 -14.38012 -10.39227 -10.38324
 Alpha  occ. eigenvalues --  -10.36245 -10.35746 -10.34814 -10.33164 -10.32107
 Alpha  occ. eigenvalues --  -10.32008 -10.31914 -10.31378 -10.31078 -10.31023
 Alpha  occ. eigenvalues --  -10.31004 -10.30770 -10.30690 -10.30637 -10.30616
 Alpha  occ. eigenvalues --  -10.30459 -10.30125 -10.30085 -10.29753 -10.29239
 Alpha  occ. eigenvalues --  -10.29075 -10.29017 -10.28923 -10.28512 -10.28449
 Alpha  occ. eigenvalues --  -10.28349 -10.28301 -10.28293 -10.28238 -10.28206
 Alpha  occ. eigenvalues --  -10.28160 -10.27988 -10.27870 -10.27853 -10.27837
 Alpha  occ. eigenvalues --  -10.27778 -10.27753 -10.27692 -10.27559 -10.27538
 Alpha  occ. eigenvalues --  -10.27535 -10.27154 -10.27106 -10.27084 -10.27057
 Alpha  occ. eigenvalues --  -10.26705 -10.26640 -10.26543 -10.26490 -10.26473
 Alpha  occ. eigenvalues --  -10.26467 -10.26460 -10.26233 -10.26173 -10.26134
 Alpha  occ. eigenvalues --  -10.26115 -10.26042 -10.25897 -10.25809 -10.25719
 Alpha  occ. eigenvalues --  -10.25657 -10.25432 -10.25404 -10.24875 -10.24262
 Alpha  occ. eigenvalues --  -10.23593  -3.17757  -3.16488  -1.92666  -1.92182
 Alpha  occ. eigenvalues --   -1.92071  -1.91398  -1.90923  -1.90819  -1.18086
 Alpha  occ. eigenvalues --   -1.17112  -1.10365  -1.09379  -1.08784  -1.08360
 Alpha  occ. eigenvalues --   -1.07095  -1.05910  -1.05400  -1.04994  -1.04351
 Alpha  occ. eigenvalues --   -1.03923  -1.03326  -1.02931  -1.02448  -1.02354
 Alpha  occ. eigenvalues --   -0.92661  -0.91844  -0.89653  -0.89587  -0.89273
 Alpha  occ. eigenvalues --   -0.88492  -0.88431  -0.88393  -0.87986  -0.87975
 Alpha  occ. eigenvalues --   -0.87128  -0.87043  -0.86646  -0.85670  -0.84792
 Alpha  occ. eigenvalues --   -0.83965  -0.83752  -0.83537  -0.82898  -0.82363
 Alpha  occ. eigenvalues --   -0.81853  -0.81847  -0.81325  -0.81282  -0.80659
 Alpha  occ. eigenvalues --   -0.80388  -0.78916  -0.78871  -0.77574  -0.77434
 Alpha  occ. eigenvalues --   -0.77346  -0.76775  -0.76114  -0.75611  -0.75224
 Alpha  occ. eigenvalues --   -0.74989  -0.73112  -0.72739  -0.71737  -0.71415
 Alpha  occ. eigenvalues --   -0.69899  -0.69195  -0.69169  -0.68880  -0.68340
 Alpha  occ. eigenvalues --   -0.67673  -0.67618  -0.67400  -0.65520  -0.65424
 Alpha  occ. eigenvalues --   -0.65253  -0.65191  -0.65024  -0.64667  -0.64552
 Alpha  occ. eigenvalues --   -0.64515  -0.62729  -0.62485  -0.61006  -0.60798
 Alpha  occ. eigenvalues --   -0.59767  -0.59604  -0.59237  -0.59149  -0.58638
 Alpha  occ. eigenvalues --   -0.58522  -0.57775  -0.57600  -0.57310  -0.57217
 Alpha  occ. eigenvalues --   -0.56651  -0.56198  -0.56024  -0.55790  -0.55674
 Alpha  occ. eigenvalues --   -0.55452  -0.55338  -0.55307  -0.54471  -0.54385
 Alpha  occ. eigenvalues --   -0.53834  -0.53547  -0.53263  -0.53174  -0.53129
 Alpha  occ. eigenvalues --   -0.52917  -0.52604  -0.52552  -0.52524  -0.52164
 Alpha  occ. eigenvalues --   -0.51782  -0.51706  -0.51564  -0.51325  -0.51044
 Alpha  occ. eigenvalues --   -0.50967  -0.50744  -0.50554  -0.50440  -0.50422
 Alpha  occ. eigenvalues --   -0.50309  -0.50101  -0.49991  -0.49648  -0.49515
 Alpha  occ. eigenvalues --   -0.49270  -0.49097  -0.48844  -0.48643  -0.48569
 Alpha  occ. eigenvalues --   -0.48532  -0.48479  -0.48426  -0.48348  -0.48093
 Alpha  occ. eigenvalues --   -0.47908  -0.47685  -0.47548  -0.47230  -0.47190
 Alpha  occ. eigenvalues --   -0.47187  -0.46753  -0.46750  -0.46572  -0.46484
 Alpha  occ. eigenvalues --   -0.46404  -0.46373  -0.46087  -0.45950  -0.45844
 Alpha  occ. eigenvalues --   -0.45431  -0.45283  -0.45169  -0.45073  -0.44721
 Alpha  occ. eigenvalues --   -0.44716  -0.44564  -0.44458  -0.44444  -0.44300
 Alpha  occ. eigenvalues --   -0.44271  -0.43850  -0.43714  -0.43702  -0.43669
 Alpha  occ. eigenvalues --   -0.43408  -0.43195  -0.43092  -0.42866  -0.42858
 Alpha  occ. eigenvalues --   -0.42624  -0.42573  -0.42356  -0.42343  -0.42062
 Alpha  occ. eigenvalues --   -0.41949  -0.41758  -0.41583  -0.41427  -0.41225
 Alpha  occ. eigenvalues --   -0.41124  -0.40854  -0.40825  -0.40488  -0.40386
 Alpha  occ. eigenvalues --   -0.40072  -0.39743  -0.39599  -0.39240  -0.38820
 Alpha  occ. eigenvalues --   -0.38660  -0.38284  -0.37886  -0.37638  -0.37426
 Alpha  occ. eigenvalues --   -0.37296  -0.36920  -0.36909  -0.36565  -0.36478
 Alpha  occ. eigenvalues --   -0.36320  -0.36287  -0.34249  -0.34069  -0.33940
 Alpha  occ. eigenvalues --   -0.33856  -0.32895  -0.32818  -0.32274  -0.31940
 Alpha  occ. eigenvalues --   -0.31400  -0.31144  -0.30909  -0.30781  -0.30093
 Alpha  occ. eigenvalues --   -0.29695  -0.29275  -0.28498  -0.24132  -0.24057
 Alpha  occ. eigenvalues --   -0.21761  -0.21066
 Alpha virt. eigenvalues --   -0.09362  -0.08592  -0.01707  -0.01278  -0.00019
 Alpha virt. eigenvalues --    0.00512   0.01807   0.02513   0.02804   0.03402
 Alpha virt. eigenvalues --    0.04453   0.04668   0.05557   0.05692   0.05873

 Mulliken charges:
               1
     1  Mg  12.006219
     2  C    5.973092
     3  C    6.011069
     4  C    6.028258
     5  C    5.994676
     6  N    6.982035
     7  C    6.038457
     8  C    5.990541
     9  C    6.009487
    10  C    5.962710
    11  C    6.001746
    12  C    5.997022
    13  C    6.002783
    14  H    0.997137
    15  N    7.010409
    16  C    5.956724
    17  C    5.983175
    18  C    5.979015
    19  C    5.963901
    20  C    6.006445
    21  C    5.989730
    22  O    7.965938
    23  C    6.006678
    24  N    7.007904
    25  C    5.968140
    26  C    6.004584
    27  C    5.987311
    28  C    6.029911
    29  C    6.002086
    30  C    5.989334
    31  C    5.997416
    32  N    6.995060
    33  C    6.036111
    34  C    6.031540
    35  C    5.999724
    36  C    6.039091
    37  C    5.997408
    38  C    6.013135
    39  O    8.026703
    40  C    6.005898
    41  C    6.005955
    42  O    8.001374
    43  O    8.002203
    44  C    5.997860
    45  H    0.989756
    46  H    0.998278
    47  H    1.014945
    48  H    0.997851
    49  H    0.997106
    50  H    0.984486
    51  H    1.000288
    52  H    1.000865
    53  H    1.006231
    54  H    0.992621
    55  H    1.003010
    56  H    1.005709
    57  H    0.981948
    58  H    0.980213
    59  H    0.980338
    60  H    0.992465
    61  H    0.984665
    62  H    0.991108
    63  H    1.001981
    64  H    1.003070
    65  H    1.006623
    66  H    0.988975
    67  H    0.999938
    68  H    1.012073
    69  H    0.997630
    70  H    1.016411
    71  H    1.005829
    72  H    0.994703
    73  H    1.021603
    74  H    1.021744
    75  H    1.016343
    76  H    1.004676
    77  H    1.003256
    78  H    1.000618
    79  H    1.006647
    80  Mg  11.999949
    81  C    6.000637
    82  C    5.999950
    83  C    5.999340
    84  C    6.000066
    85  N    7.000392
    86  C    5.999277
    87  C    6.000082
    88  C    5.999940
    89  C    6.000347
    90  C    5.999925
    91  C    6.000029
    92  C    6.000048
    93  H    0.999901
    94  N    6.999774
    95  C    6.000668
    96  C    6.000454
    97  C    6.000175
    98  C    6.000888
    99  C    5.999870
   100  C    6.000231
   101  O    8.000507
   102  C    5.999870
   103  N    6.999826
   104  C    6.000794
   105  C    5.999742
   106  C    6.000204
   107  C    5.999530
   108  C    5.999922
   109  C    6.000150
   110  C    6.000022
   111  N    7.000014
   112  C    5.999288
   113  C    5.999507
   114  C    5.999926
   115  C    5.999331
   116  C    6.000017
   117  C    5.999711
   118  O    7.999380
   119  C    5.999835
   120  C    5.999952
   121  O    7.999929
   122  O    7.999969
   123  C    6.000046
   124  H    1.000258
   125  H    1.000058
   126  H    0.999693
   127  H    1.000077
   128  H    1.000048
   129  H    1.000283
   130  H    0.999931
   131  H    1.000085
   132  H    0.999788
   133  H    1.000118
   134  H    0.999923
   135  H    1.000064
   136  H    1.000369
   137  H    1.000329
   138  H    1.000388
   139  H    1.000264
   140  H    1.000151
   141  H    1.000161
   142  H    1.000041
   143  H    0.999947
   144  H    1.000055
   145  H    0.999908
   146  H    1.000195
   147  H    1.000003
   148  H    0.999757
   149  H    0.999970
   150  H    1.000045
   151  H    0.999867
   152  H    0.999666
   153  H    0.999719
   154  H    0.999722
   155  H    0.999901
   156  H    0.999990
   157  H    0.999895
   158  H    0.999913
 Sum of Mulliken charges = 624.00000

 Dipole moment (field-independent basis, Debye):
    X=             -0.6826    Y=              3.4724    Z=            -10.2851  Tot=             10.8769
 Quadrupole moment (field-independent basis, Debye-Ang):
   XX=            -17.4939   YY=             -4.0294   ZZ=             -4.6606
   XY=             88.5068   XZ=           -257.9626   YZ=             10.5897

 Normal termination of Gaussian 16 at Wed Sep 22 05:23:23 2021.
