 Gaussian 16, Revision A.03,
 Gaussian 16:  ES64L-G16RevA.03 25-Dec-2016

 ----------------------------------------------------------
 #p cam-b3lyp/Def2SVP td=(nstates=5) density=(transition=1)
 ----------------------------------------------------------

 --------------------------------
 TDDFT excited states in gaussian
 --------------------------------
 Symbolic Z-matrix:
 Charge =  0 Multiplicity = 1

                         Standard orientation:
 ---------------------------------------------------------------------
 Center     Atomic      Atomic             Coordinates (Angstroms)
 Number     Number       Type             X           Y           Z
 ---------------------------------------------------------------------
      1         12           0       10.877242   -0.435186   -0.134334
      2          6           0        8.161400    1.295939   -1.175548
      3          6           0       10.716871    1.164840    2.944454
      4          6           0       13.597394   -2.162282    0.904600
      5          6           0       11.330644   -1.655948   -3.341703
      6          7           0        9.528969    0.932584    0.728751
      7          6           0        8.483707    1.566522    0.139737
      8          6           0        7.657944    2.352113    1.124807
      9          6           0        8.631034    2.523392    2.352516
     10          6           0        9.695458    1.434684    1.995481
     11          6           0        9.222244    3.949818    2.713820
     12          6           0        6.351073    1.553949    1.570653
     13          6           0        5.218283    2.497300    2.072365
     14          1           0        5.521054    3.870415    2.695284
     15          7           0       12.092615   -0.463129    1.657443
     16          6           0       11.807369    0.297016    2.821922
     17          6           0       12.773080   -0.003824    3.835428
     18          6           0       13.658653   -0.980699    3.255403
     19          6           0       13.096101   -1.236080    1.881277
     20          6           0       12.748224    0.542625    5.219807
     21          6           0       14.878712   -1.661623    3.865465
     22          8           0       15.679600   -2.427871    3.253726
     23          6           0       15.216768   -1.414635    5.325916
     24          7           0       12.302859   -1.663476   -1.081972
     25          6           0       13.248175   -2.431391   -0.400168
     26          6           0       13.870590   -3.586502   -1.236581
     27          6           0       13.026982   -3.378499   -2.616014
     28          6           0       12.152850   -2.206040   -2.359243
     29          6           0       15.380074   -3.349116   -1.372782
     30          6           0       12.301010   -4.603727   -3.087934
     31          6           0       12.657825   -5.009126   -4.489466
     32          7           0       10.103333   -0.210614   -1.917875
     33          6           0       10.332497   -0.771238   -3.168256
     34          6           0        9.398235   -0.270061   -4.106832
     35          6           0        8.517231    0.600104   -3.410200
     36          6           0        8.908858    0.531361   -2.056523
     37          6           0        9.263570   -0.581663   -5.547902
     38          6           0        7.442559    1.557302   -3.556094
     39          8           0        6.811415    2.006333   -4.492837
     40          6           0        7.147508    1.977186   -2.038474
     41          6           0        6.852699    3.427349   -1.899508
     42          8           0        7.439761    4.334981   -2.430898
     43          8           0        5.792326    3.681218   -1.116969
     44          6           0        5.483554    5.129762   -0.948467
     45          1           0       10.680610    1.843125    3.799628
     46          1           0       14.546371   -2.608744    1.208574
     47          1           0       11.334212   -2.079937   -4.347947
     48          1           0        7.469460    3.372072    0.790180
     49          1           0        8.130460    2.137642    3.240036
     50          1           0        8.744456    4.673496    2.053331
     51          1           0       10.302044    4.078519    2.658517
     52          1           0        8.983930    4.125504    3.763011
     53          1           0        6.708692    0.862486    2.333801
     54          1           0        6.002550    0.996990    0.700837
     55          1           0        4.701817    1.868760    2.798063
     56          1           0        4.512361    2.586523    1.247068
     57          1           0       12.078776    0.038802    5.917089
     58          1           0       12.494960    1.596036    5.107060
     59          1           0       13.741085    0.656442    5.653964
     60          1           0       15.776218   -0.479527    5.347328
     61          1           0       15.876586   -2.236886    5.601671
     62          1           0       14.345498   -1.321639    5.974494
     63          1           0       13.719553   -4.494210   -0.652202
     64          1           0       13.726803   -3.116958   -3.410424
     65          1           0       15.745386   -2.386724   -1.013777
     66          1           0       15.683019   -3.585690   -2.392486
     67          1           0       15.852711   -4.065294   -0.699996
     68          1           0       11.219431   -4.474102   -3.128645
     69          1           0       12.434514   -5.483105   -2.457751
     70          1           0       12.896988   -6.068225   -4.581078
     71          1           0       13.525098   -4.458881   -4.853421
     72          1           0       11.816406   -4.659323   -5.088312
     73          1           0       10.187039   -0.826280   -6.073596
     74          1           0        9.065617    0.393709   -5.993319
     75          1           0        8.507204   -1.353000   -5.693384
     76          1           0        6.201890    1.442714   -1.943114
     77          1           0        4.976473    5.545276   -1.820441
     78          1           0        6.352649    5.695640   -0.612555
     79          1           0        4.775926    5.230902   -0.125221
     80         12           0      -10.985245   -0.532751    0.283602
     81          6           0       -9.019460    2.385584    0.078419
     82          6           0      -11.542552   -0.208407   -3.007120
     83          6           0      -12.347458   -3.495679    0.498183
     84          6           0       -9.619091   -0.952594    3.558937
     85          7           0      -10.300622    0.914259   -1.277394
     86          6           0       -9.586081    2.058828   -1.162796
     87          6           0       -9.456488    2.828000   -2.461864
     88          6           0      -10.529694    2.067602   -3.339905
     89          6           0      -10.834049    0.821697   -2.534104
     90          6           0      -11.840518    2.898301   -3.659314
     91          6           0       -8.064252    2.967760   -3.218855
     92          6           0       -6.857607    2.055094   -2.873657
     93          1           0       -5.878503    1.654400   -4.039662
     94          7           0      -11.957164   -1.619923   -1.108828
     95          6           0      -11.997662   -1.395783   -2.415403
     96          6           0      -12.657389   -2.551125   -3.082570
     97          6           0      -13.050080   -3.468864   -1.975907
     98          6           0      -12.428304   -2.870082   -0.794474
     99          6           0      -13.010631   -2.590865   -4.544943
    100          6           0      -13.790196   -4.771403   -2.132949
    101          8           0      -14.183077   -5.094787   -3.251151
    102          6           0      -14.060209   -5.811991   -0.984297
    103          7           0      -10.899860   -2.132243    1.826147
    104          6           0      -11.705842   -3.118620    1.634903
    105          6           0      -11.717888   -3.989617    2.969201
    106          6           0      -10.652172   -3.263807    3.792986
    107          6           0      -10.333073   -2.010493    3.000959
    108          6           0      -13.045070   -4.193791    3.718647
    109          6           0       -9.254021   -4.067103    3.895942
    110          6           0       -8.862742   -4.587466    5.291211
    111          7           0       -9.579360    0.409115    1.568384
    112          6           0       -9.225080    0.211792    2.876847
    113          6           0       -8.489642    1.390542    3.403850
    114          6           0       -8.262357    2.246334    2.289102
    115          6           0       -9.061413    1.617136    1.239080
    116          6           0       -7.878815    1.555733    4.813361
    117          6           0       -7.654664    3.434427    1.789734
    118          8           0       -6.828265    4.243793    2.244607
    119          6           0       -8.180507    3.625625    0.344341
    120          6           0       -8.898107    4.978091    0.309675
    121          8           0       -8.605851    6.044892   -0.161650
    122          8           0      -10.197530    4.780769    0.789344
    123          6           0      -11.137900    5.943291    0.743544
    124          1           0      -11.700503   -0.082102   -4.080402
    125          1           0      -12.851519   -4.464672    0.529505
    126          1           0       -9.431896   -0.972027    4.634258
    127          1           0       -9.858585    3.815370   -2.235609
    128          1           0      -10.092358    1.822302   -4.307830
    129          1           0      -11.817152    3.868304   -3.163811
    130          1           0      -12.593745    2.326892   -3.117979
    131          1           0      -11.983823    2.957006   -4.738413
    132          1           0       -7.751283    4.005896   -3.106640
    133          1           0       -8.236085    2.863996   -4.290749
    134          1           0       -7.289967    1.143002   -2.462190
    135          1           0       -6.119854    2.527058   -2.225486
    136          1           0      -13.717091   -3.381849   -4.795783
    137          1           0      -12.064396   -2.601651   -5.087187
    138          1           0      -13.401957   -1.591948   -4.740433
    139          1           0      -14.525286   -5.507569   -0.045918
    140          1           0      -13.097804   -6.199792   -0.650380
    141          1           0      -14.689361   -6.636481   -1.318448
    142          1           0      -11.434233   -5.022902    2.772161
    143          1           0      -10.869616   -3.013061    4.831812
    144          1           0      -13.878184   -3.710794    3.207775
    145          1           0      -12.976269   -3.867335    4.756875
    146          1           0      -13.358481   -5.236480    3.770447
    147          1           0       -8.410700   -3.449495    3.590000
    148          1           0       -9.345198   -4.897414    3.195343
    149          1           0       -7.793161   -4.609858    5.501473
    150          1           0       -9.194740   -5.625468    5.310003
    151          1           0       -9.378160   -3.903178    5.965261
    152          1           0       -7.825280    0.641428    5.403454
    153          1           0       -8.550899    2.255404    5.309609
    154          1           0       -6.919783    2.062666    4.709596
    155          1           0       -7.338121    3.641925   -0.346404
    156          1           0      -10.728767    6.948860    0.838732
    157          1           0      -11.750852    5.798971    1.633042
    158          1           0      -11.859604    5.996950   -0.071795
 ---------------------------------------------------------------------

 SCF Done:  E(RCAM-B3LYP) =  -4069.79688393     A.U. after   18 cycles

 Excitation energies and oscillator strengths:

 Excited State   1:      Singlet-A      1.6459 eV  753.28 nm  f=0.3842  <S**2>=0.000
     310 -> 316        0.17005
     312 -> 314        0.68912
     310 <- 316        0.10753
 This state for optimization and/or second-order correction.
 Total Energy, E(TD-HF/TD-DFT) =  -4069.73639716
 Copying the excited state density for this state as the 1-particle RhoCI density.

 Excited State   2:      Singlet-A      1.7683 eV  701.13 nm  f=0.4119  <S**2>=0.000
     309 -> 315        0.18503
     311 -> 313        0.68379
     309 <- 315        0.10633

 Excited State   3:      Singlet-A      2.2269 eV  556.75 nm  f=0.1134  <S**2>=0.000
     310 -> 314        0.63825
     312 -> 316       -0.29143

 Excited State   4:      Singlet-A      2.2830 eV  543.08 nm  f=0.0986  <S**2>=0.000
     309 -> 313        0.63716
     311 -> 315       -0.29606

 Excited State   5:      Singlet-A      2.8239 eV  439.06 nm  f=0.0000  <S**2>=0.000
     312 -> 313        0.70704

 The electronic state is 1-A.
 Alpha  occ. eigenvalues --  -46.90122 -46.87066 -19.25020 -19.24649 -19.20466
 Alpha  occ. eigenvalues --  -19.19530 -19.19127 -19.18648 -19.18629 -19.18426
 Alpha  occ. eigenvalues --  -14.42766 -14.42366 -14.41897 -14.41605 -14.40492
 Alpha  occ. eigenvalues --  -14.40217 -14.39445 -14.38674 -10.39931 -10.38461
 Alpha  occ. eigenvalues --  -10.35753 -10.35654 -10.35155 -10.35048 -10.31915
 Alpha  occ. eigenvalues --  -10.31871 -10.31568 -10.31262 -10.31178 -10.31082
 Alpha  occ. eigenvalues --  -10.30860 -10.30828 -10.30788 -10.30652 -10.30404
 Alpha  occ. eigenvalues --  -10.30234 -10.30158 -10.30154 -10.30033 -10.29922
 Alpha  occ. eigenvalues --  -10.29769 -10.29421 -10.29185 -10.29023 -10.28861
 Alpha  occ. eigenvalues --  -10.28831 -10.28809 -10.28774 -10.28665 -10.28142
 Alpha  occ. eigenvalues --  -10.28076 -10.28054 -10.27970 -10.27918 -10.27874
 Alpha  occ. eigenvalues --  -10.27757 -10.27730 -10.27714 -10.27688 -10.27585
 Alpha  occ. eigenvalues --  -10.27561 -10.27449 -10.27446 -10.27431 -10.27396
 Alpha  occ. eigenvalues --  -10.27299 -10.27265 -10.27144 -10.27127 -10.26893
 Alpha  occ. eigenvalues --  -10.26705 -10.26617 -10.26616 -10.26449 -10.26393
 Alpha  occ. eigenvalues --  -10.26236 -10.25919 -10.25868 -10.25761 -10.25698
 Alpha  occ. eigenvalues --  -10.25544 -10.25420 -10.25414 -10.25298 -10.25159
 Alpha  occ. eigenvalues --  -10.25064  -3.18600  -3.15924  -1.93488  -1.93054
 Alpha  occ. eigenvalues --   -1.92903  -1.90815  -1.90358  -1.90269  -1.17168
 Alpha  occ. eigenvalues --   -1.16109  -1.10041  -1.09617  -1.09394  -1.07340
 Alpha  occ. eigenvalues --   -1.07330  -1.07120  -1.06803  -1.04876  -1.04436
 Alpha  occ. eigenvalues --   -1.04067  -1.03488  -1.03356  -1.02636  -1.01332
 Alpha  occ. eigenvalues --   -0.93640  -0.93280  -0.89866  -0.89647  -0.88881
 Alpha  occ. eigenvalues --   -0.88731  -0.88650  -0.88477  -0.88358  -0.87601
 Alpha  occ. eigenvalues --   -0.87144  -0.86966  -0.86334  -0.85462  -0.84943
 Alpha  occ. eigenvalues --   -0.84251  -0.84022  -0.83722  -0.82948  -0.82376
 Alpha  occ. eigenvalues --   -0.81844  -0.81573  -0.80953  -0.80862  -0.80598
 Alpha  occ. eigenvalues --   -0.80426  -0.78578  -0.78285  -0.77768  -0.77698
 Alpha  occ. eigenvalues --   -0.77252  -0.77072  -0.76746  -0.76420  -0.75423
 Alpha  occ. eigenvalues --   -0.75135  -0.73378  -0.72802  -0.72451  -0.71764
 Alpha  occ. eigenvalues --   -0.69622  -0.69305  -0.69001  -0.68761  -0.68624
 Alpha  occ. eigenvalues --   -0.68079  -0.67577  -0.66919  -0.66616  -0.65777
 Alpha  occ. eigenvalues --   -0.65740  -0.65570  -0.65269  -0.64929  -0.64693
 Alpha  occ. eigenvalues --   -0.63985  -0.63218  -0.62221  -0.60662  -0.60256
 Alpha  occ. eigenvalues --   -0.60249  -0.59836  -0.59524  -0.58876  -0.58603
 Alpha  occ. eigenvalues --   -0.58292  -0.58140  -0.57902  -0.57627  -0.57366
 Alpha  occ. eigenvalues --   -0.56426  -0.56008  -0.55930  -0.55746  -0.55368
 Alpha  occ. eigenvalues --   -0.55119  -0.55089  -0.54899  -0.54587  -0.54008
 Alpha  occ. eigenvalues --   -0.53856  -0.53671  -0.53244  -0.53074  -0.52916
 Alpha  occ. eigenvalues --   -0.52882  -0.52812  -0.52446  -0.52361  -0.52071
 Alpha  occ. eigenvalues --   -0.52055  -0.51891  -0.51810  -0.51598  -0.51307
 Alpha  occ. eigenvalues --   -0.51227  -0.51161  -0.51067  -0.50681  -0.50243
 Alpha  occ. eigenvalues --   -0.50058  -0.49998  -0.49914  -0.49852  -0.49545
 Alpha  occ. eigenvalues --   -0.49517  -0.49085  -0.48928  -0.48925  -0.48770
 Alpha  occ. eigenvalues --   -0.48618  -0.48570  -0.48346  -0.48303  -0.48125
 Alpha  occ. eigenvalues --   -0.47962  -0.47920  -0.47690  -0.47690  -0.47492
 Alpha  occ. eigenvalues --   -0.47298  -0.47226  -0.47137  -0.46993  -0.46702
 Alpha  occ. eigenvalues --   -0.46615  -0.46516  -0.46331  -0.46264  -0.46140
 Alpha  occ. eigenvalues --   -0.45932  -0.45827  -0.45586  -0.45416  -0.45101
 Alpha  occ. eigenvalues --   -0.44922  -0.44829  -0.44691  -0.44459  -0.44265
 Alpha  occ. eigenvalues --   -0.43967  -0.43964  -0.43804  -0.43635  -0.43413
 Alpha  occ. eigenvalues --   -0.43353  -0.43214  -0.43182  -0.43087  -0.42731
 Alpha  occ. eigenvalues --   -0.42318  -0.42306  -0.42262  -0.42123  -0.42061
 Alpha  occ. eigenvalues --   -0.41906  -0.41882  -0.41517  -0.41312  -0.41307
 Alpha  occ. eigenvalues --   -0.40969  -0.40912  -0.40795  -0.40743  -0.40418
 Alpha  occ. eigenvalues --   -0.40336  -0.40288  -0.40030  -0.39981  -0.39295
 Alpha  occ. eigenvalues --   -0.38898  -0.38264  -0.38139  -0.37880  -0.37709
 Alpha  occ. eigenvalues --   -0.37535  -0.37111  -0.36940  -0.36935  -0.36715
 Alpha  occ. eigenvalues --   -0.36497  -0.36348  -0.35067  -0.34514  -0.34322
 Alpha  occ. eigenvalues --   -0.34033  -0.33702  -0.33244  -0.31968  -0.31475
 Alpha  occ. eigenvalues --   -0.31447  -0.31108  -0.31014  -0.30649  -0.30642
 Alpha  occ. eigenvalues --   -0.29868  -0.29496  -0.29322  -0.24547  -0.24233
 Alpha  occ. eigenvalues --   -0.21586  -0.20955
 Alpha virt. eigenvalues --   -0.08970  -0.08885  -0.02086  -0.01535  -0.00676
 Alpha virt. eigenvalues --    0.00189   0.01135   0.01817   0.02246   0.03242
 Alpha virt. eigenvalues --    0.04283   0.04919   0.04922   0.05392   0.05552

 Mulliken charges:
               1
     1  Mg  11.995325
     2  C    6.026226
     3  C    5.990895
     4  C    5.964118
     5  C    5.990574
     6  N    7.013286
     7  C    5.963782
     8  C    6.013018
     9  C    5.989236
    10  C    6.036115
    11  C    5.994745
    12  C    6.002988
    13  C    6.000228
    14  H    0.993154
    15  N    6.992956
    16  C    6.049051
    17  C    6.012367
    18  C    6.024949
    19  C    6.036343
    20  C    5.995150
    21  C    6.013103
    22  O    8.038764
    23  C    5.994165
    24  N    6.978942
    25  C    6.038164
    26  C    5.989114
    27  C    6.013018
    28  C    5.981043
    29  C    5.999715
    30  C    6.006861
    31  C    6.000344
    32  N    7.005261
    33  C    5.974259
    34  C    5.964151
    35  C    5.997913
    36  C    5.964403
    37  C    6.004973
    38  C    5.987147
    39  O    7.974714
    40  C    5.995644
    41  C    5.997072
    42  O    7.997581
    43  O    7.997885
    44  C    6.002190
    45  H    1.015650
    46  H    0.997695
    47  H    0.984045
    48  H    1.000211
    49  H    1.004034
    50  H    1.016520
    51  H    0.999305
    52  H    1.003577
    53  H    0.987077
    54  H    1.007809
    55  H    0.997247
    56  H    1.004535
    57  H    1.020469
    58  H    1.014555
    59  H    1.015905
    60  H    1.010879
    61  H    1.015828
    62  H    1.007340
    63  H    0.996656
    64  H    0.995408
    65  H    0.995067
    66  H    1.008984
    67  H    0.995070
    68  H    1.002286
    69  H    0.986229
    70  H    0.992272
    71  H    0.995753
    72  H    1.004664
    73  H    0.980780
    74  H    0.982317
    75  H    0.976185
    76  H    0.996041
    77  H    0.999373
    78  H    0.994558
    79  H    0.994744
    80  Mg  12.000033
    81  C    6.000315
    82  C    6.000045
    83  C    5.999746
    84  C    5.999857
    85  N    7.000118
    86  C    5.999983
    87  C    6.000019
    88  C    5.999915
    89  C    6.000186
    90  C    6.000003
    91  C    5.999974
    92  C    5.999368
    93  H    1.001414
    94  N    6.999939
    95  C    6.000203
    96  C    6.000308
    97  C    5.999914
    98  C    6.000273
    99  C    5.999915
   100  C    6.000052
   101  O    8.000061
   102  C    6.000042
   103  N    6.999955
   104  C    6.000190
   105  C    5.999978
   106  C    6.000005
   107  C    5.999960
   108  C    6.000080
   109  C    6.000085
   110  C    6.000013
   111  N    7.000016
   112  C    5.999939
   113  C    5.999666
   114  C    6.000061
   115  C    5.999841
   116  C    6.000059
   117  C    5.999938
   118  O    7.999840
   119  C    5.999983
   120  C    5.999939
   121  O    8.000087
   122  O    7.999966
   123  C    6.000123
   124  H    1.000266
   125  H    0.999882
   126  H    0.999576
   127  H    0.999887
   128  H    1.000328
   129  H    0.999981
   130  H    0.999780
   131  H    1.000116
   132  H    1.000068
   133  H    1.000153
   134  H    0.999746
   135  H    1.000244
   136  H    1.000025
   137  H    1.000417
   138  H    1.000058
   139  H    0.999880
   140  H    1.000087
   141  H    0.999925
   142  H    0.999942
   143  H    0.999757
   144  H    0.999945
   145  H    0.999810
   146  H    0.999862
   147  H    1.000160
   148  H    1.000033
   149  H    0.999818
   150  H    0.999851
   151  H    0.999814
   152  H    0.999654
   153  H    0.999626
   154  H    0.999826
   155  H    1.000435
   156  H    0.999907
   157  H    0.999772
   158  H    0.999961
 Sum of Mulliken charges = 624.00000

 Dipole moment (field-independent basis, Debye):
    X=              4.7534    Y=              0.2609    Z=             10.0230  Tot=             11.0961
 Quadrupole moment (field-independent basis, Debye-Ang):
   XX=            106.2824   YY=             -2.3950   ZZ=             -1.8676
   XY=              2.6346   XZ=            115.7550   YZ=             -3.3715

 Normal termination of Gaussian 16 at Wed Sep 22 22:12:43 2021.
