 Gaussian 16, Revision A.03,
 Gaussian 16:  ES64L-G16RevA.03 25-Dec-2016

 ----------------------------------------------------------
 #p cam-b3lyp/Def2SVP td=(nstates=5) density=(transition=1)
 ----------------------------------------------------------

 --------------------------------
 TDDFT excited states in gaussian
 --------------------------------
 Symbolic Z-matrix:
 Charge =  0 Multiplicity = 1

                         Standard orientation:
 ---------------------------------------------------------------------
 Center     Atomic      Atomic             Coordinates (Angstroms)
 Number     Number       Type             X           Y           Z
 ---------------------------------------------------------------------
      1         12           0      -13.501167   -0.519800    0.594958
      2          6           0      -13.483661    2.448044   -1.330140
      3          6           0      -11.941370    1.160795    2.943536
      4          6           0      -12.651612   -3.478578    1.801570
      5          6           0      -14.538171   -2.152953   -2.385949
      6          7           0      -12.973185    1.676522    0.764901
      7          6           0      -13.112162    2.674960   -0.028887
      8          6           0      -12.827379    4.003000    0.702346
      9          6           0      -11.872998    3.547553    1.920236
     10          6           0      -12.206650    1.999069    1.856567
     11          6           0      -10.331334    3.855720    1.763744
     12          6           0      -14.192637    4.635420    1.294800
     13          6           0      -14.373194    6.185185    1.388365
     14          1           0      -13.058028    7.027788    1.576017
     15          7           0      -12.619308   -1.088356    2.271860
     16          6           0      -12.074226   -0.183808    3.170653
     17          6           0      -11.509654   -0.956404    4.332808
     18          6           0      -11.765023   -2.349627    3.989904
     19          6           0      -12.361213   -2.438173    2.654179
     20          6           0      -10.813824   -0.252053    5.482211
     21          6           0      -11.477254   -3.564170    4.844785
     22          8           0      -11.673062   -4.735597    4.492336
     23          6           0      -10.960887   -3.361565    6.211459
     24          7           0      -13.685605   -2.610967   -0.169991
     25          6           0      -13.199017   -3.608559    0.545852
     26          6           0      -13.717583   -4.999531   -0.032714
     27          6           0      -14.324178   -4.503883   -1.455198
     28          6           0      -14.210863   -2.988062   -1.316938
     29          6           0      -12.612661   -6.104219   -0.112736
     30          6           0      -15.779212   -4.941485   -1.825913
     31          6           0      -15.931180   -5.918428   -2.963420
     32          7           0      -14.150217    0.009728   -1.422435
     33          6           0      -14.529707   -0.798062   -2.475930
     34          6           0      -14.707278   -0.026329   -3.634406
     35          6           0      -14.265740    1.249386   -3.235173
     36          6           0      -13.900707    1.254459   -1.909717
     37          6           0      -15.144684   -0.459705   -4.942100
     38          6           0      -14.161614    2.565628   -3.734008
     39          8           0      -14.475086    3.155478   -4.803584
     40          6           0      -13.383965    3.348872   -2.583001
     41          6           0      -13.960360    4.705186   -2.402652
     42          8           0      -15.096390    5.000543   -2.037516
     43          8           0      -12.903131    5.643386   -2.623180
     44          6           0      -13.238180    7.068510   -2.508537
     45          1           0      -11.552015    1.789532    3.747526
     46          1           0      -12.419542   -4.449487    2.242754
     47          1           0      -14.932136   -2.653151   -3.273856
     48          1           0      -12.153041    4.576904    0.067266
     49          1           0      -12.148382    4.125719    2.801605
     50          1           0      -10.074739    4.142931    0.744281
     51          1           0       -9.723159    2.973278    1.961766
     52          1           0      -10.123219    4.674876    2.451966
     53          1           0      -14.422104    4.215264    2.274167
     54          1           0      -15.023978    4.246348    0.706590
     55          1           0      -15.028528    6.502438    2.200165
     56          1           0      -14.668477    6.522931    0.394191
     57          1           0      -11.128418   -0.638769    6.452198
     58          1           0      -10.964851    0.827450    5.478611
     59          1           0       -9.736587   -0.277559    5.319725
     60          1           0      -10.024172   -2.803605    6.199464
     61          1           0      -10.806338   -4.326409    6.694555
     62          1           0      -11.629851   -2.839837    6.895851
     63          1           0      -14.563343   -5.398386    0.527261
     64          1           0      -13.634630   -4.685152   -2.280993
     65          1           0      -11.640615   -5.688681    0.153493
     66          1           0      -12.764184   -6.465797   -1.129993
     67          1           0      -12.944842   -6.924954    0.521674
     68          1           0      -16.323910   -4.041298   -2.111496
     69          1           0      -16.273456   -5.341720   -0.940455
     70          1           0      -14.905911   -6.225302   -3.165892
     71          1           0      -16.295236   -5.364284   -3.829349
     72          1           0      -16.507466   -6.804495   -2.700080
     73          1           0      -16.069828   -1.016022   -4.793747
     74          1           0      -14.554153   -1.249671   -5.406225
     75          1           0      -15.334932    0.409815   -5.571534
     76          1           0      -12.335756    3.423787   -2.874149
     77          1           0      -12.384449    7.688919   -2.782435
     78          1           0      -13.368503    7.307960   -1.453015
     79          1           0      -14.048986    7.301667   -3.197898
     80         12           0       12.788544   -0.720127   -0.541504
     81          6           0       15.243562    1.860583   -0.157264
     82          6           0       10.439220    1.661019    0.578491
     83          6           0       10.572197   -3.093913   -0.145124
     84          6           0       15.280505   -2.922152   -1.251207
     85          7           0       12.865949    1.508885    0.074073
     86          6           0       13.969207    2.293376    0.022174
     87          6           0       13.553137    3.733051    0.275274
     88          6           0       12.014055    3.756828    0.493961
     89          6           0       11.730823    2.249248    0.348488
     90          6           0       11.564640    4.416490    1.916955
     91          6           0       13.939492    4.704181   -0.921164
     92          6           0       14.634188    6.012785   -0.543148
     93          1           0       14.294843    6.753771    0.812075
     94          7           0       10.777130   -0.722327    0.182330
     95          6           0       10.045454    0.312411    0.537763
     96          6           0        8.754546   -0.186494    0.919992
     97          6           0        8.653758   -1.563598    0.597431
     98          6           0       10.016948   -1.849741    0.234155
     99          6           0        7.591898    0.731817    1.292972
    100          6           0        7.503093   -2.554042    0.511544
    101          8           0        7.663310   -3.736754    0.271669
    102          6           0        6.123089   -1.980328    0.680010
    103          7           0       13.012035   -2.746280   -0.337441
    104          6           0       11.870013   -3.548116   -0.381503
    105          6           0       12.171985   -5.016251   -0.787576
    106          6           0       13.657268   -4.838766   -1.281327
    107          6           0       14.027223   -3.395038   -0.941465
    108          6           0       11.967814   -5.966029    0.401624
    109          6           0       13.831601   -5.015282   -2.863644
    110          6           0       14.461496   -6.267530   -3.374638
    111          7           0       14.786166   -0.578193   -0.791885
    112          6           0       15.685120   -1.589645   -1.053012
    113          6           0       17.073355   -1.137216   -1.016077
    114          6           0       16.957212    0.254736   -0.663715
    115          6           0       15.584939    0.500462   -0.422122
    116          6           0       18.229434   -1.948443   -1.477954
    117          6           0       17.680611    1.507073   -0.505963
    118          8           0       18.901320    1.693647   -0.660509
    119          6           0       16.571276    2.644067   -0.126457
    120          6           0       16.956388    3.112477    1.195446
    121          8           0       17.082088    2.386034    2.156917
    122          8           0       17.139596    4.438041    1.212267
    123          6           0       17.596822    5.166007    2.437323
    124          1           0        9.657961    2.374122    0.849418
    125          1           0        9.848367   -3.854797   -0.446596
    126          1           0       16.034697   -3.646149   -1.565754
    127          1           0       14.037362    4.046344    1.200206
    128          1           0       11.510113    4.405680   -0.222574
    129          1           0       12.340348    5.080049    2.299264
    130          1           0       11.383197    3.564220    2.572308
    131          1           0       10.630363    4.962931    1.789036
    132          1           0       13.123303    4.949876   -1.599175
    133          1           0       14.660647    4.204383   -1.567765
    134          1           0       14.524513    6.765769   -1.323874
    135          1           0       15.688809    5.739047   -0.574035
    136          1           0        6.907563    0.942235    0.470908
    137          1           0        7.938076    1.633962    1.798250
    138          1           0        7.036718    0.210302    2.072321
    139          1           0        5.954045   -1.023142    0.185814
    140          1           0        5.814253   -1.827950    1.713234
    141          1           0        5.418536   -2.586280    0.110276
    142          1           0       11.479302   -5.279146   -1.586595
    143          1           0       14.270243   -5.577922   -0.765398
    144          1           0       11.479348   -5.512209    1.263807
    145          1           0       12.916449   -6.341545    0.783655
    146          1           0       11.380923   -6.825698    0.076507
    147          1           0       14.422184   -4.237952   -3.348451
    148          1           0       12.892455   -4.900841   -3.403692
    149          1           0       13.746933   -6.831234   -3.973058
    150          1           0       14.721118   -6.800189   -2.459588
    151          1           0       15.324443   -6.033954   -3.998155
    152          1           0       18.988535   -1.325324   -1.949587
    153          1           0       17.814152   -2.747418   -2.091910
    154          1           0       18.665812   -2.401900   -0.586931
    155          1           0       16.596330    3.481281   -0.822686
    156          1           0       18.478197    4.669963    2.844217
    157          1           0       16.837493    5.189449    3.219356
    158          1           0       17.748578    6.233741    2.281587
 ---------------------------------------------------------------------

 SCF Done:  E(RCAM-B3LYP) =  -4069.77336693     A.U. after   19 cycles

 Excitation energies and oscillator strengths:

 Excited State   1:      Singlet-A      1.6833 eV  736.54 nm  f=0.4100  <S**2>=0.000
     310 -> 316       -0.17289
     312 -> 313        0.68693
     310 <- 316       -0.10713
 This state for optimization and/or second-order correction.
 Total Energy, E(TD-HF/TD-DFT) =  -4069.71150518
 Copying the excited state density for this state as the 1-particle RhoCI density.

 Excited State   2:      Singlet-A      1.7997 eV  688.91 nm  f=0.3626  <S**2>=0.000
     309 -> 315        0.21209
     311 -> 314        0.67490
     309 <- 315        0.10953

 Excited State   3:      Singlet-A      2.1993 eV  563.75 nm  f=0.1279  <S**2>=0.000
     310 -> 313        0.65020
     312 -> 316        0.26289

 Excited State   4:      Singlet-A      2.2246 eV  557.34 nm  f=0.0830  <S**2>=0.000
     309 -> 314        0.62925
     311 -> 315       -0.30797

 Excited State   5:      Singlet-A      2.9934 eV  414.19 nm  f=0.0000  <S**2>=0.000
     312 -> 314        0.70708

 The electronic state is 1-A.
 Alpha  occ. eigenvalues --  -46.89461 -46.88653 -19.25294 -19.24020 -19.20294
 Alpha  occ. eigenvalues --  -19.19567 -19.19060 -19.19044 -19.18550 -19.18524
 Alpha  occ. eigenvalues --  -14.42223 -14.41912 -14.41791 -14.41746 -14.40041
 Alpha  occ. eigenvalues --  -14.39407 -14.39122 -14.38636 -10.39368 -10.38533
 Alpha  occ. eigenvalues --  -10.35826 -10.35492 -10.35187 -10.34560 -10.32572
 Alpha  occ. eigenvalues --  -10.31595 -10.31365 -10.31167 -10.31033 -10.30821
 Alpha  occ. eigenvalues --  -10.30780 -10.30775 -10.30686 -10.30552 -10.30376
 Alpha  occ. eigenvalues --  -10.30316 -10.30304 -10.29682 -10.29618 -10.29406
 Alpha  occ. eigenvalues --  -10.29213 -10.29059 -10.28780 -10.28738 -10.28723
 Alpha  occ. eigenvalues --  -10.28640 -10.28597 -10.28460 -10.28456 -10.28368
 Alpha  occ. eigenvalues --  -10.28243 -10.28216 -10.28081 -10.28054 -10.27964
 Alpha  occ. eigenvalues --  -10.27912 -10.27827 -10.27760 -10.27658 -10.27651
 Alpha  occ. eigenvalues --  -10.27611 -10.27563 -10.27537 -10.27121 -10.27046
 Alpha  occ. eigenvalues --  -10.27038 -10.26705 -10.26607 -10.26466 -10.26462
 Alpha  occ. eigenvalues --  -10.26450 -10.26288 -10.26259 -10.26103 -10.26097
 Alpha  occ. eigenvalues --  -10.26094 -10.25976 -10.25887 -10.25870 -10.25834
 Alpha  occ. eigenvalues --  -10.25610 -10.25602 -10.25493 -10.25461 -10.25046
 Alpha  occ. eigenvalues --  -10.24711  -3.17915  -3.17282  -1.92818  -1.92381
 Alpha  occ. eigenvalues --   -1.92201  -1.92147  -1.91742  -1.91592  -1.16592
 Alpha  occ. eigenvalues --   -1.14042  -1.10883  -1.09483  -1.08470  -1.07401
 Alpha  occ. eigenvalues --   -1.07360  -1.06802  -1.05854  -1.05278  -1.04683
 Alpha  occ. eigenvalues --   -1.03558  -1.03543  -1.03178  -1.01919  -1.01538
 Alpha  occ. eigenvalues --   -0.93028  -0.92196  -0.89565  -0.88678  -0.88666
 Alpha  occ. eigenvalues --   -0.88296  -0.88131  -0.87968  -0.87620  -0.87449
 Alpha  occ. eigenvalues --   -0.87143  -0.87059  -0.86977  -0.86440  -0.84345
 Alpha  occ. eigenvalues --   -0.84261  -0.84155  -0.84037  -0.82790  -0.82697
 Alpha  occ. eigenvalues --   -0.82130  -0.81874  -0.81580  -0.81320  -0.80741
 Alpha  occ. eigenvalues --   -0.80732  -0.79037  -0.78303  -0.77779  -0.77707
 Alpha  occ. eigenvalues --   -0.77043  -0.76901  -0.76312  -0.75965  -0.75305
 Alpha  occ. eigenvalues --   -0.74877  -0.73293  -0.72519  -0.72326  -0.71449
 Alpha  occ. eigenvalues --   -0.69001  -0.68786  -0.68655  -0.67998  -0.67830
 Alpha  occ. eigenvalues --   -0.67684  -0.67296  -0.67009  -0.65993  -0.65728
 Alpha  occ. eigenvalues --   -0.65667  -0.65588  -0.65197  -0.64670  -0.64657
 Alpha  occ. eigenvalues --   -0.64534  -0.62456  -0.61330  -0.60603  -0.60539
 Alpha  occ. eigenvalues --   -0.60216  -0.59359  -0.59264  -0.58851  -0.58523
 Alpha  occ. eigenvalues --   -0.58419  -0.58076  -0.57808  -0.57506  -0.57410
 Alpha  occ. eigenvalues --   -0.57066  -0.56120  -0.55834  -0.55791  -0.55551
 Alpha  occ. eigenvalues --   -0.55199  -0.54520  -0.54399  -0.53863  -0.53606
 Alpha  occ. eigenvalues --   -0.53534  -0.53352  -0.53286  -0.53031  -0.53027
 Alpha  occ. eigenvalues --   -0.52953  -0.52674  -0.52656  -0.52543  -0.52392
 Alpha  occ. eigenvalues --   -0.52308  -0.52126  -0.51626  -0.51320  -0.51222
 Alpha  occ. eigenvalues --   -0.51180  -0.50984  -0.50626  -0.50615  -0.50564
 Alpha  occ. eigenvalues --   -0.50412  -0.50104  -0.50012  -0.49933  -0.49633
 Alpha  occ. eigenvalues --   -0.49296  -0.49274  -0.49062  -0.48857  -0.48792
 Alpha  occ. eigenvalues --   -0.48735  -0.48603  -0.48447  -0.48431  -0.48180
 Alpha  occ. eigenvalues --   -0.48119  -0.47874  -0.47753  -0.47686  -0.47468
 Alpha  occ. eigenvalues --   -0.47386  -0.47099  -0.46860  -0.46777  -0.46639
 Alpha  occ. eigenvalues --   -0.46371  -0.46226  -0.46174  -0.46153  -0.45925
 Alpha  occ. eigenvalues --   -0.45656  -0.45409  -0.45339  -0.45135  -0.44980
 Alpha  occ. eigenvalues --   -0.44544  -0.44299  -0.44269  -0.43997  -0.43978
 Alpha  occ. eigenvalues --   -0.43858  -0.43629  -0.43627  -0.43403  -0.43332
 Alpha  occ. eigenvalues --   -0.43058  -0.43056  -0.42795  -0.42681  -0.42646
 Alpha  occ. eigenvalues --   -0.42511  -0.42010  -0.41876  -0.41763  -0.41644
 Alpha  occ. eigenvalues --   -0.41551  -0.41449  -0.41322  -0.41248  -0.41123
 Alpha  occ. eigenvalues --   -0.41042  -0.40815  -0.40714  -0.40582  -0.40355
 Alpha  occ. eigenvalues --   -0.40322  -0.40123  -0.39750  -0.39358  -0.39104
 Alpha  occ. eigenvalues --   -0.38552  -0.38423  -0.37956  -0.37899  -0.37468
 Alpha  occ. eigenvalues --   -0.37007  -0.36584  -0.36517  -0.36255  -0.36183
 Alpha  occ. eigenvalues --   -0.36182  -0.35713  -0.34549  -0.34488  -0.33973
 Alpha  occ. eigenvalues --   -0.33795  -0.33618  -0.33045  -0.31864  -0.31732
 Alpha  occ. eigenvalues --   -0.31357  -0.31273  -0.30773  -0.30572  -0.30317
 Alpha  occ. eigenvalues --   -0.30122  -0.29427  -0.29363  -0.24229  -0.23866
 Alpha  occ. eigenvalues --   -0.21740  -0.20995
 Alpha virt. eigenvalues --   -0.08753  -0.08681  -0.02717  -0.01152  -0.00304
 Alpha virt. eigenvalues --    0.00081   0.01750   0.02042   0.02190   0.02258
 Alpha virt. eigenvalues --    0.04507   0.04733   0.05434   0.05488   0.05537

 Mulliken charges:
               1
     1  Mg  12.000047
     2  C    5.999575
     3  C    6.000246
     4  C    6.000290
     5  C    5.999805
     6  N    6.999833
     7  C    6.000505
     8  C    5.999919
     9  C    6.000295
    10  C    5.999328
    11  C    6.000108
    12  C    5.999917
    13  C    6.000019
    14  H    0.999931
    15  N    7.000296
    16  C    5.999304
    17  C    5.999422
    18  C    5.999817
    19  C    5.999370
    20  C    6.000223
    21  C    5.999703
    22  O    7.999644
    23  C    6.000166
    24  N    7.000007
    25  C    5.999324
    26  C    6.000286
    27  C    5.999877
    28  C    6.000518
    29  C    5.999975
    30  C    5.999842
    31  C    5.999997
    32  N    6.999862
    33  C    6.000580
    34  C    6.000693
    35  C    5.999956
    36  C    6.000577
    37  C    5.999792
    38  C    6.000272
    39  O    8.000711
    40  C    6.000067
    41  C    6.000078
    42  O    8.000274
    43  O    7.999909
    44  C    5.999932
    45  H    0.999741
    46  H    0.999906
    47  H    1.000340
    48  H    0.999874
    49  H    0.999999
    50  H    0.999609
    51  H    0.999591
    52  H    0.999862
    53  H    1.000267
    54  H    1.000058
    55  H    1.000254
    56  H    1.000051
    57  H    0.999827
    58  H    0.999750
    59  H    0.999068
    60  H    0.999494
    61  H    0.999798
    62  H    1.000120
    63  H    1.000139
    64  H    0.999872
    65  H    0.999696
    66  H    0.999945
    67  H    1.000147
    68  H    1.000049
    69  H    1.000342
    70  H    0.999962
    71  H    1.000066
    72  H    1.000302
    73  H    1.000553
    74  H    1.000423
    75  H    1.000391
    76  H    0.999881
    77  H    1.000001
    78  H    1.000101
    79  H    1.000225
    80  Mg  11.997531
    81  C    6.024496
    82  C    5.984193
    83  C    5.968058
    84  C    6.011403
    85  N    7.008258
    86  C    5.972272
    87  C    6.010844
    88  C    5.984766
    89  C    6.034002
    90  C    5.999276
    91  C    6.001258
    92  C    6.000841
    93  H    0.992366
    94  N    6.991504
    95  C    6.041540
    96  C    6.025448
    97  C    6.012594
    98  C    6.040556
    99  C    5.995562
   100  C    6.014072
   101  O    8.027139
   102  C    5.991650
   103  N    6.990682
   104  C    6.047679
   105  C    5.988395
   106  C    6.009181
   107  C    5.971805
   108  C    5.996114
   109  C    6.008705
   110  C    6.000484
   111  N    7.000189
   112  C    5.964337
   113  C    5.961389
   114  C    5.999810
   115  C    5.962094
   116  C    6.004985
   117  C    5.985673
   118  O    7.971335
   119  C    5.992500
   120  C    5.994831
   121  O    7.997820
   122  O    7.997946
   123  C    6.002604
   124  H    1.010400
   125  H    1.005359
   126  H    0.987763
   127  H    0.999900
   128  H    1.006126
   129  H    1.013895
   130  H    0.998181
   131  H    1.000384
   132  H    0.990891
   133  H    1.008189
   134  H    0.997590
   135  H    1.006331
   136  H    1.022915
   137  H    1.018940
   138  H    1.018105
   139  H    1.005002
   140  H    1.009962
   141  H    1.015100
   142  H    1.000294
   143  H    0.996744
   144  H    0.995389
   145  H    1.012851
   146  H    1.003246
   147  H    1.005737
   148  H    0.985915
   149  H    0.992663
   150  H    0.997318
   151  H    1.002138
   152  H    0.980677
   153  H    0.980478
   154  H    0.975146
   155  H    0.990666
   156  H    0.999403
   157  H    0.993162
   158  H    0.994952
 Sum of Mulliken charges = 624.00000

 Dipole moment (field-independent basis, Debye):
    X=            -11.1547    Y=             -0.0655    Z=              2.0019  Tot=             11.3331
 Quadrupole moment (field-independent basis, Debye-Ang):
   XX=           -280.7727   YY=             -0.8980   ZZ=             -1.3850
   XY=              4.9620   XZ=             30.8446   YZ=             -3.0584

 Normal termination of Gaussian 16 at Wed Sep 22 03:11:02 2021.
