 Gaussian 16, Revision A.03,
 Gaussian 16:  ES64L-G16RevA.03 25-Dec-2016

 ----------------------------------------------------------
 #p cam-b3lyp/Def2SVP td=(nstates=5) density=(transition=1)
 ----------------------------------------------------------

 --------------------------------
 TDDFT excited states in gaussian
 --------------------------------
 Symbolic Z-matrix:
 Charge =  0 Multiplicity = 1

                         Standard orientation:
 ---------------------------------------------------------------------
 Center     Atomic      Atomic             Coordinates (Angstroms)
 Number     Number       Type             X           Y           Z
 ---------------------------------------------------------------------
      1         12           0       25.217667   -0.473521    0.067443
      2          6           0       23.576899    2.586118    0.712977
      3          6           0       26.050530    0.641741   -3.053565
      4          6           0       26.112956   -3.559032   -0.672939
      5          6           0       23.880278   -1.687070    3.121054
      6          7           0       24.934279    1.466664   -0.977686
      7          6           0       24.272952    2.509935   -0.516815
      8          6           0       24.610499    3.708548   -1.385024
      9          6           0       24.995094    3.054307   -2.767713
     10          6           0       25.353076    1.605919   -2.265516
     11          6           0       23.825745    3.193939   -3.815032
     12          6           0       25.823190    4.510026   -0.846065
     13          6           0       25.939922    6.012839   -1.357763
     14          1           0       24.936986    6.611847   -2.347441
     15          7           0       26.147341   -1.276670   -1.521059
     16          6           0       26.502560   -0.653975   -2.745071
     17          6           0       27.245536   -1.638010   -3.566517
     18          6           0       27.186267   -2.907512   -2.887048
     19          6           0       26.465706   -2.665179   -1.618324
     20          6           0       27.908904   -1.307545   -4.856808
     21          6           0       27.746426   -4.340316   -3.239490
     22          8           0       27.680827   -5.317407   -2.481192
     23          6           0       28.268341   -4.577797   -4.626914
     24          7           0       24.922345   -2.410186    1.042523
     25          6           0       25.430583   -3.513480    0.561283
     26          6           0       25.249071   -4.732429    1.421706
     27          6           0       24.508522   -4.142178    2.672904
     28          6           0       24.503205   -2.620777    2.320109
     29          6           0       24.593469   -5.881571    0.650235
     30          6           0       25.204230   -4.396370    4.004264
     31          6           0       24.282001   -4.749088    5.225858
     32          7           0       24.016211    0.263969    1.717071
     33          6           0       23.596602   -0.352771    2.912025
     34          6           0       22.995408    0.630581    3.745774
     35          6           0       22.791043    1.759978    2.890499
     36          6           0       23.457635    1.511118    1.717555
     37          6           0       22.704003    0.477881    5.211110
     38          6           0       22.335846    3.162146    2.731869
     39          8           0       21.738807    3.880837    3.506135
     40          6           0       22.624411    3.601474    1.218097
     41          6           0       22.891359    5.068800    1.135712
     42          8           0       23.783595    5.663669    1.664592
     43          8           0       21.881577    5.732824    0.414419
     44          6           0       21.594320    7.127820    0.810549
     45          1           0       26.180345    0.850292   -4.117973
     46          1           0       26.494884   -4.578088   -0.755993
     47          1           0       23.549008   -2.072168    4.087782
     48          1           0       23.728023    4.339406   -1.278980
     49          1           0       25.884387    3.517119   -3.196894
     50          1           0       22.974485    3.703141   -3.364420
     51          1           0       23.484471    2.167461   -3.949284
     52          1           0       24.083002    3.752165   -4.715287
     53          1           0       26.690223    3.952775   -1.203133
     54          1           0       25.779157    4.462232    0.241937
     55          1           0       26.944044    6.077425   -1.779649
     56          1           0       25.956401    6.612472   -0.447345
     57          1           0       28.006805   -0.263468   -5.151975
     58          1           0       27.388504   -1.738142   -5.711844
     59          1           0       28.918677   -1.699904   -4.733785
     60          1           0       29.322012   -4.329798   -4.753995
     61          1           0       27.586173   -3.932230   -5.181444
     62          1           0       28.056726   -5.623112   -4.850261
     63          1           0       26.280460   -4.983562    1.668894
     64          1           0       23.484296   -4.494763    2.787951
     65          1           0       23.980567   -5.556185   -0.190910
     66          1           0       23.920477   -6.354633    1.364263
     67          1           0       25.318674   -6.601596    0.270461
     68          1           0       25.790865   -3.531052    4.312320
     69          1           0       25.983801   -5.116884    3.757273
     70          1           0       23.227621   -4.627232    4.978382
     71          1           0       24.548586   -4.014027    5.984991
     72          1           0       24.380197   -5.729219    5.693708
     73          1           0       22.188905   -0.479297    5.293670
     74          1           0       22.060465    1.252034    5.629418
     75          1           0       23.637449    0.387981    5.767628
     76          1           0       21.692863    3.535427    0.656906
     77          1           0       21.852054    7.771822   -0.030376
     78          1           0       22.133771    7.422520    1.711358
     79          1           0       20.520592    7.155017    0.996034
     80         12           0      -24.465600   -0.809086    0.036885
     81          6           0      -25.410155    2.481116    0.416756
     82          6           0      -22.845479    0.115533   -3.010830
     83          6           0      -23.835350   -3.968514   -0.582368
     84          6           0      -26.204312   -1.687076    2.929904
     85          7           0      -24.203472    1.110142   -1.086256
     86          6           0      -24.643510    2.318858   -0.724386
     87          6           0      -24.110969    3.377328   -1.744539
     88          6           0      -23.407476    2.521071   -2.894832
     89          6           0      -23.532970    1.099484   -2.313659
     90          6           0      -24.098072    2.481332   -4.244513
     91          6           0      -23.232522    4.478537   -1.131903
     92          6           0      -23.710878    5.861319   -1.541519
     93          1           0      -22.740325    7.049752   -1.602917
     94          7           0      -23.406265   -1.763238   -1.541020
     95          6           0      -22.786246   -1.247719   -2.642549
     96          6           0      -22.141608   -2.228030   -3.396434
     97          6           0      -22.501312   -3.483691   -2.793721
     98          6           0      -23.279155   -3.111083   -1.561780
     99          6           0      -21.304571   -1.940170   -4.634326
    100          6           0      -22.220322   -4.894969   -3.283299
    101          8           0      -22.771413   -5.846786   -2.697047
    102          6           0      -21.419082   -5.157607   -4.492589
    103          7           0      -24.929910   -2.510363    1.049848
    104          6           0      -24.508324   -3.760031    0.644419
    105          6           0      -24.981891   -4.942755    1.568483
    106          6           0      -25.492400   -4.102665    2.816005
    107          6           0      -25.570969   -2.678308    2.236733
    108          6           0      -26.064505   -5.986400    1.084561
    109          6           0      -24.748514   -4.287550    4.215934
    110          6           0      -23.428394   -3.575242    4.348634
    111          7           0      -25.681726    0.091534    1.330678
    112          6           0      -26.339795   -0.339570    2.466781
    113          6           0      -27.037717    0.699615    3.106295
    114          6           0      -26.658989    1.812966    2.347336
    115          6           0      -25.822291    1.414877    1.264215
    116          6           0      -27.785319    0.491175    4.353930
    117          6           0      -26.955706    3.190764    2.257436
    118          8           0      -27.755509    3.835362    2.938784
    119          6           0      -26.127918    3.749466    0.985588
    120          6           0      -27.053782    4.359522    0.047597
    121          8           0      -27.817571    3.786085   -0.694961
    122          8           0      -27.044327    5.680026    0.181739
    123          6           0      -27.979609    6.462460   -0.568499
    124          1           0      -22.398204    0.398550   -3.965528
    125          1           0      -23.706178   -5.050150   -0.654391
    126          1           0      -26.737751   -2.005326    3.828074
    127          1           0      -25.055646    3.764795   -2.124723
    128          1           0      -22.455747    3.020364   -3.079955
    129          1           0      -24.965556    3.136506   -4.329482
    130          1           0      -24.485949    1.481796   -4.439084
    131          1           0      -23.363086    2.611091   -5.039479
    132          1           0      -22.168491    4.395727   -1.354133
    133          1           0      -23.281913    4.372353   -0.048467
    134          1           0      -24.411073    6.174199   -0.766119
    135          1           0      -24.173430    5.738921   -2.520708
    136          1           0      -21.091300   -0.876241   -4.738138
    137          1           0      -21.901791   -2.161528   -5.519150
    138          1           0      -20.433469   -2.592718   -4.679830
    139          1           0      -21.636723   -6.147822   -4.894435
    140          1           0      -20.374157   -5.172515   -4.181187
    141          1           0      -21.624205   -4.405616   -5.254133
    142          1           0      -24.144419   -5.496389    1.994215
    143          1           0      -26.483818   -4.461746    3.089313
    144          1           0      -26.344262   -5.723374    0.065199
    145          1           0      -27.001570   -5.787121    1.605982
    146          1           0      -25.826944   -7.048422    1.152480
    147          1           0      -24.505987   -5.347607    4.286399
    148          1           0      -25.375338   -4.082170    5.082857
    149          1           0      -23.320231   -3.307822    5.399192
    150          1           0      -23.191414   -2.709763    3.731125
    151          1           0      -22.662897   -4.293801    4.055696
    152          1           0      -27.439949   -0.273049    5.049731
    153          1           0      -28.870027    0.452154    4.261551
    154          1           0      -27.651421    1.460130    4.834192
    155          1           0      -25.428267    4.501045    1.350753
    156          1           0      -27.589864    6.750715   -1.545441
    157          1           0      -28.127520    7.390358   -0.016331
    158          1           0      -28.900202    5.897713   -0.716482
 ---------------------------------------------------------------------

 SCF Done:  E(RCAM-B3LYP) =  -4069.81530322     A.U. after   19 cycles

 Excitation energies and oscillator strengths:

 Excited State   1:      Singlet-A      1.7068 eV  726.43 nm  f=0.4153  <S**2>=0.000
     309 -> 316        0.17263
     311 -> 313        0.68675
     309 <- 316        0.10537
 This state for optimization and/or second-order correction.
 Total Energy, E(TD-HF/TD-DFT) =  -4069.75258106
 Copying the excited state density for this state as the 1-particle RhoCI density.

 Excited State   2:      Singlet-A      1.7949 eV  690.74 nm  f=0.3738  <S**2>=0.000
     310 -> 315        0.18886
     312 -> 314        0.68031
     310 <- 315        0.10305

 Excited State   3:      Singlet-A      2.1693 eV  571.54 nm  f=0.0985  <S**2>=0.000
     310 -> 314        0.64307
     312 -> 315       -0.27289

 Excited State   4:      Singlet-A      2.2215 eV  558.11 nm  f=0.1599  <S**2>=0.000
     309 -> 313        0.65327
     311 -> 316       -0.25407

 Excited State   5:      Singlet-A      3.1426 eV  394.53 nm  f=0.0000  <S**2>=0.000
     312 -> 313        0.70711

 The electronic state is 1-A.
 Alpha  occ. eigenvalues --  -46.88551 -46.87679 -19.24821 -19.23278 -19.20317
 Alpha  occ. eigenvalues --  -19.19587 -19.18618 -19.18585 -19.18377 -19.18237
 Alpha  occ. eigenvalues --  -14.42293 -14.42160 -14.41978 -14.41751 -14.39755
 Alpha  occ. eigenvalues --  -14.39708 -14.38957 -14.38015 -10.38559 -10.38296
 Alpha  occ. eigenvalues --  -10.36808 -10.34864 -10.34825 -10.34504 -10.32225
 Alpha  occ. eigenvalues --  -10.31560 -10.31496 -10.31212 -10.31180 -10.31151
 Alpha  occ. eigenvalues --  -10.30895 -10.30827 -10.30732 -10.30646 -10.30622
 Alpha  occ. eigenvalues --  -10.30149 -10.30107 -10.29744 -10.29378 -10.29219
 Alpha  occ. eigenvalues --  -10.29047 -10.28982 -10.28548 -10.28516 -10.28277
 Alpha  occ. eigenvalues --  -10.28269 -10.28261 -10.28220 -10.28200 -10.28103
 Alpha  occ. eigenvalues --  -10.27991 -10.27955 -10.27903 -10.27867 -10.27706
 Alpha  occ. eigenvalues --  -10.27693 -10.27657 -10.27643 -10.27637 -10.27604
 Alpha  occ. eigenvalues --  -10.27582 -10.27493 -10.27399 -10.27288 -10.27184
 Alpha  occ. eigenvalues --  -10.26909 -10.26793 -10.26709 -10.26596 -10.26302
 Alpha  occ. eigenvalues --  -10.26270 -10.26232 -10.26180 -10.26167 -10.26161
 Alpha  occ. eigenvalues --  -10.26091 -10.25989 -10.25884 -10.25876 -10.25740
 Alpha  occ. eigenvalues --  -10.25629 -10.25555 -10.25459 -10.24973 -10.24633
 Alpha  occ. eigenvalues --  -10.24435  -3.17011  -3.16464  -1.91924  -1.91468
 Alpha  occ. eigenvalues --   -1.91362  -1.91308  -1.90935  -1.90768  -1.17926
 Alpha  occ. eigenvalues --   -1.15213  -1.10495  -1.09554  -1.08848  -1.08498
 Alpha  occ. eigenvalues --   -1.07791  -1.07009  -1.05118  -1.04588  -1.04531
 Alpha  occ. eigenvalues --   -1.03696  -1.03326  -1.02541  -1.01705  -1.00981
 Alpha  occ. eigenvalues --   -0.92082  -0.91828  -0.89359  -0.89294  -0.88913
 Alpha  occ. eigenvalues --   -0.88767  -0.88339  -0.87757  -0.87645  -0.87606
 Alpha  occ. eigenvalues --   -0.87511  -0.87247  -0.86779  -0.85452  -0.84588
 Alpha  occ. eigenvalues --   -0.83994  -0.83858  -0.83699  -0.82945  -0.82878
 Alpha  occ. eigenvalues --   -0.82394  -0.81708  -0.81175  -0.80685  -0.80589
 Alpha  occ. eigenvalues --   -0.79877  -0.78611  -0.78335  -0.77327  -0.77201
 Alpha  occ. eigenvalues --   -0.76888  -0.76390  -0.75975  -0.75411  -0.75278
 Alpha  occ. eigenvalues --   -0.75161  -0.73445  -0.72519  -0.71708  -0.71447
 Alpha  occ. eigenvalues --   -0.69839  -0.69646  -0.68832  -0.68633  -0.67789
 Alpha  occ. eigenvalues --   -0.67264  -0.67140  -0.66642  -0.66055  -0.65388
 Alpha  occ. eigenvalues --   -0.65205  -0.64914  -0.64600  -0.64535  -0.64379
 Alpha  occ. eigenvalues --   -0.63476  -0.62337  -0.61060  -0.60421  -0.60215
 Alpha  occ. eigenvalues --   -0.59997  -0.59114  -0.58988  -0.58613  -0.58506
 Alpha  occ. eigenvalues --   -0.58344  -0.58067  -0.57676  -0.57553  -0.56842
 Alpha  occ. eigenvalues --   -0.56521  -0.56468  -0.56198  -0.55448  -0.55092
 Alpha  occ. eigenvalues --   -0.55087  -0.54667  -0.54355  -0.54277  -0.53691
 Alpha  occ. eigenvalues --   -0.53528  -0.53212  -0.53161  -0.53129  -0.52835
 Alpha  occ. eigenvalues --   -0.52769  -0.52500  -0.52347  -0.52190  -0.52125
 Alpha  occ. eigenvalues --   -0.52031  -0.51743  -0.51717  -0.51375  -0.51322
 Alpha  occ. eigenvalues --   -0.51211  -0.50920  -0.50520  -0.50295  -0.50290
 Alpha  occ. eigenvalues --   -0.50187  -0.50043  -0.49956  -0.49661  -0.49466
 Alpha  occ. eigenvalues --   -0.49293  -0.49253  -0.49138  -0.48957  -0.48951
 Alpha  occ. eigenvalues --   -0.48663  -0.48390  -0.48343  -0.48140  -0.48036
 Alpha  occ. eigenvalues --   -0.47849  -0.47769  -0.47532  -0.47328  -0.47324
 Alpha  occ. eigenvalues --   -0.47032  -0.46873  -0.46570  -0.46504  -0.46496
 Alpha  occ. eigenvalues --   -0.46371  -0.46163  -0.46018  -0.45572  -0.45534
 Alpha  occ. eigenvalues --   -0.45459  -0.45419  -0.45145  -0.45054  -0.44921
 Alpha  occ. eigenvalues --   -0.44888  -0.44582  -0.44369  -0.44264  -0.43954
 Alpha  occ. eigenvalues --   -0.43892  -0.43732  -0.43628  -0.43487  -0.43339
 Alpha  occ. eigenvalues --   -0.43234  -0.43086  -0.42749  -0.42673  -0.42612
 Alpha  occ. eigenvalues --   -0.42522  -0.42267  -0.42024  -0.41990  -0.41701
 Alpha  occ. eigenvalues --   -0.41582  -0.41564  -0.41504  -0.41367  -0.41316
 Alpha  occ. eigenvalues --   -0.41160  -0.41107  -0.40988  -0.40983  -0.40479
 Alpha  occ. eigenvalues --   -0.40148  -0.40012  -0.39193  -0.39070  -0.38879
 Alpha  occ. eigenvalues --   -0.38797  -0.38193  -0.37735  -0.37732  -0.37571
 Alpha  occ. eigenvalues --   -0.37184  -0.36531  -0.36389  -0.36351  -0.36177
 Alpha  occ. eigenvalues --   -0.35766  -0.35416  -0.34229  -0.34184  -0.33877
 Alpha  occ. eigenvalues --   -0.33807  -0.33127  -0.33111  -0.31913  -0.31442
 Alpha  occ. eigenvalues --   -0.31201  -0.30779  -0.30528  -0.30487  -0.30056
 Alpha  occ. eigenvalues --   -0.29933  -0.29762  -0.28312  -0.24119  -0.23738
 Alpha  occ. eigenvalues --   -0.21475  -0.21340
 Alpha virt. eigenvalues --   -0.09094  -0.08500  -0.02037  -0.01423  -0.00136
 Alpha virt. eigenvalues --    0.00491   0.02484   0.02708   0.02997   0.03173
 Alpha virt. eigenvalues --    0.04810   0.05644   0.05672   0.05755   0.06373

 Mulliken charges:
               1
     1  Mg  11.999994
     2  C    6.000018
     3  C    6.000011
     4  C    6.000003
     5  C    5.999971
     6  N    7.000006
     7  C    5.999973
     8  C    5.999992
     9  C    5.999981
    10  C    6.000013
    11  C    5.999995
    12  C    6.000008
    13  C    6.000005
    14  H    1.000009
    15  N    6.999983
    16  C    6.000014
    17  C    6.000013
    18  C    5.999995
    19  C    6.000025
    20  C    6.000001
    21  C    6.000036
    22  O    8.000018
    23  C    5.999993
    24  N    7.000004
    25  C    6.000022
    26  C    5.999983
    27  C    6.000023
    28  C    5.999989
    29  C    5.999990
    30  C    6.000008
    31  C    6.000000
    32  N    7.000009
    33  C    6.000020
    34  C    5.999954
    35  C    6.000037
    36  C    5.999998
    37  C    5.999990
    38  C    5.999949
    39  O    7.999966
    40  C    6.000011
    41  C    5.999976
    42  O    7.999972
    43  O    8.000017
    44  C    6.000004
    45  H    1.000014
    46  H    1.000012
    47  H    0.999991
    48  H    1.000016
    49  H    0.999988
    50  H    1.000027
    51  H    1.000030
    52  H    1.000004
    53  H    0.999976
    54  H    0.999993
    55  H    0.999978
    56  H    0.999979
    57  H    1.000008
    58  H    1.000048
    59  H    0.999998
    60  H    0.999991
    61  H    1.000024
    62  H    1.000033
    63  H    0.999980
    64  H    1.000024
    65  H    1.000031
    66  H    1.000032
    67  H    0.999994
    68  H    0.999976
    69  H    0.999977
    70  H    1.000028
    71  H    0.999977
    72  H    0.999991
    73  H    0.999998
    74  H    0.999972
    75  H    0.999945
    76  H    1.000019
    77  H    0.999991
    78  H    0.999967
    79  H    1.000013
    80  Mg  12.002650
    81  C    5.980346
    82  C    6.022102
    83  C    6.027026
    84  C    5.987469
    85  N    6.994036
    86  C    6.029284
    87  C    5.992223
    88  C    6.016977
    89  C    5.966299
    90  C    6.003307
    91  C    5.998874
    92  C    5.998519
    93  H    1.005193
    94  N    7.008871
    95  C    5.955031
    96  C    5.983043
    97  C    5.981488
    98  C    5.959250
    99  C    6.003829
   100  C    5.986250
   101  O    7.968150
   102  C    6.006313
   103  N    7.000677
   104  C    5.957688
   105  C    6.016914
   106  C    5.988973
   107  C    6.029589
   108  C    5.999376
   109  C    5.994448
   110  C    5.996792
   111  N    6.995711
   112  C    6.041278
   113  C    6.027425
   114  C    6.003348
   115  C    6.037697
   116  C    5.994176
   117  C    6.016436
   118  O    8.033267
   119  C    6.004108
   120  C    6.004292
   121  O    8.007263
   122  O    8.001143
   123  C    5.996744
   124  H    0.990571
   125  H    0.994374
   126  H    1.011329
   127  H    0.997680
   128  H    0.991482
   129  H    0.984761
   130  H    1.004012
   131  H    0.997924
   132  H    1.009349
   133  H    0.992666
   134  H    0.993565
   135  H    1.005244
   136  H    0.981393
   137  H    0.980094
   138  H    0.983559
   139  H    0.984201
   140  H    0.988597
   141  H    0.994430
   142  H    0.995688
   143  H    1.002197
   144  H    1.003739
   145  H    0.987627
   146  H    0.998574
   147  H    1.011298
   148  H    0.997638
   149  H    0.999512
   150  H    0.999614
   151  H    1.011378
   152  H    1.021368
   153  H    1.024133
   154  H    1.015177
   155  H    1.009610
   156  H    1.007974
   157  H    1.003627
   158  H    1.001743
 Sum of Mulliken charges = 624.00000

 Dipole moment (field-independent basis, Debye):
    X=             -5.8522    Y=              5.6956    Z=              7.8513  Tot=             11.3284
 Quadrupole moment (field-independent basis, Debye-Ang):
   XX=            289.4239   YY=             -7.8485   ZZ=             -2.8612
   XY=           -137.2535   XZ=           -192.3714   YZ=             -8.8303

 Normal termination of Gaussian 16 at Wed Sep 22 03:43:59 2021.
