 Gaussian 16, Revision A.03,
 Gaussian 16:  ES64L-G16RevA.03 25-Dec-2016

 ---------------------------------------------------
 #p cam-b3lyp/Def2SVP td=(nstates=5) density=(CIS=1)
 ---------------------------------------------------

 --------------------------------
 TDDFT excited states in gaussian
 --------------------------------
 Symbolic Z-matrix:
 Charge =  0 Multiplicity = 1

                         Standard orientation:
 ---------------------------------------------------------------------
 Center     Atomic      Atomic             Coordinates (Angstroms)
 Number     Number       Type             X           Y           Z
 ---------------------------------------------------------------------
      1         12           0        0.771985   -0.110679   -0.127053
      2          6           0       -2.818577    0.258651    0.155497
      3          6           0        0.269840   -3.270699    0.319609
      4          6           0        4.066643   -0.198475   -0.135390
      5          6           0        1.161942    3.487685    0.203636
      6          7           0       -1.136699   -1.372196    0.080992
      7          6           0       -2.477458   -1.063995    0.182112
      8          6           0       -3.276794   -2.298796    0.394722
      9          6           0       -2.235491   -3.317886    0.924599
     10          6           0       -0.937341   -2.614672    0.462766
     11          6           0       -2.245850   -3.501273    2.458078
     12          6           0       -3.838090   -2.802775   -0.969785
     13          6           0       -5.343809   -3.274294   -0.979026
     14          1           0       -6.140120   -3.350646   -2.342142
     15          7           0        2.029263   -1.648405    0.029942
     16          6           0        1.663250   -2.900690    0.097058
     17          6           0        2.855707   -3.724557    0.034039
     18          6           0        3.901862   -2.807027   -0.221668
     19          6           0        3.343110   -1.489119   -0.086879
     20          6           0        2.758500   -5.260799    0.056738
     21          6           0        5.337464   -3.149173   -0.508006
     22          8           0        6.139950   -2.280549   -0.677922
     23          6           0        5.725567   -4.581743   -0.678302
     24          7           0        2.399917    1.500353    0.307845
     25          6           0        3.648428    1.109610    0.060513
     26          6           0        4.571912    2.258754   -0.096789
     27          6           0        3.611135    3.447613    0.222472
     28          6           0        2.250034    2.804641    0.263853
     29          6           0        5.922522    2.232688    0.705348
     30          6           0        3.755358    4.599478   -0.847249
     31          6           0        4.491182    5.914948   -0.468383
     32          7           0       -0.431763    1.513388    0.119094
     33          6           0       -0.195167    2.905611    0.161371
     34          6           0       -1.485928    3.620747    0.236012
     35          6           0       -2.466997    2.638456    0.214954
     36          6           0       -1.836295    1.406063    0.192126
     37          6           0       -1.650652    5.143598    0.459339
     38          6           0       -3.955371    2.467918    0.240043
     39          8           0       -4.886916    3.237582    0.241634
     40          6           0       -4.244729    0.889895    0.377364
     41          6           0       -5.286981    0.468901   -0.485124
     42          8           0       -5.063524    0.036841   -1.624613
     43          8           0       -6.587530    0.602644   -0.009010
     44          6           0       -7.709645   -0.005640   -0.787672
     45          1           0        0.238631   -4.357495    0.415055
     46          1           0        5.156117   -0.225767   -0.202944
     47          1           0        1.261607    4.570437    0.294035
     48          1           0       -3.996586   -2.141144    1.198358
     49          1           0       -2.304218   -4.332208    0.531980
     50          1           0       -2.468872   -4.536660    2.717346
     51          1           0       -3.020175   -2.842359    2.849856
     52          1           0       -1.322694   -3.206512    2.957867
     53          1           0       -3.209944   -3.655636   -1.227659
     54          1           0       -3.645997   -2.001223   -1.682741
     55          1           0       -5.888386   -2.646628   -0.274159
     56          1           0       -5.269246   -4.280287   -0.564373
     57          1           0        3.092509   -5.640278   -0.909813
     58          1           0        1.785090   -5.673917    0.318903
     59          1           0        3.512005   -5.673849    0.726739
     60          1           0        5.225564   -5.051349   -1.524991
     61          1           0        5.435067   -5.267518    0.117500
     62          1           0        6.790372   -4.629905   -0.907639
     63          1           0        4.842781    2.319408   -1.150862
     64          1           0        3.785316    3.785770    1.244177
     65          1           0        5.976517    1.252044    1.176986
     66          1           0        6.110348    3.054496    1.397229
     67          1           0        6.743281    2.341826   -0.003757
     68          1           0        2.759862    4.924154   -1.151250
     69          1           0        4.070555    4.088894   -1.757217
     70          1           0        5.185505    6.191911   -1.261503
     71          1           0        5.012061    5.779370    0.479613
     72          1           0        3.781689    6.737341   -0.369230
     73          1           0       -0.809888    5.641105   -0.023275
     74          1           0       -1.540632    5.361495    1.521910
     75          1           0       -2.596555    5.516213    0.065558
     76          1           0       -4.533285    0.692989    1.409449
     77          1           0       -7.608918   -1.090700   -0.838637
     78          1           0       -7.898713    0.541130   -1.710687
     79          1           0       -8.591025    0.047653   -0.148713
 ---------------------------------------------------------------------

 SCF Done:  E(RCAM-B3LYP) =  -2034.87650715     A.U. after   19 cycles

 Excitation energies and oscillator strengths:

 Excited State   1:      Singlet-A      1.7381 eV  713.31 nm  f=0.0000  <S**2>=0.000
     155 ->158         0.16398
     156 ->157         0.68892
     155 <-158         0.10282
 This state for optimization and/or second-order correction.
 Total Energy, E(TD-HF/TD-DFT) =  -2034.81263145
 Copying the excited state density for this state as the 1-particle RhoCI density.

 Excited State   2:      Singlet-A      2.1720 eV  570.82 nm  f=0.0000  <S**2>=0.000
     155 ->157         0.67446
     156 ->158        -0.20194

 Excited State   3:      Singlet-A      3.4066 eV  363.95 nm  f=0.0000  <S**2>=0.000
     152 ->157        -0.12260
     153 ->157         0.17054
     154 ->157         0.66043

 Excited State   4:      Singlet-A      3.5695 eV  347.35 nm  f=0.0000  <S**2>=0.000
     151 ->157        -0.12810
     152 ->157         0.53618
     153 ->157        -0.34095
     154 ->157         0.17830
     156 ->158         0.13506

 Excited State   5:      Singlet-A      3.7430 eV  331.24 nm  f=0.0000  <S**2>=0.000
     150 ->157         0.43266
     150 ->159         0.17783
     150 ->161        -0.14089
     151 ->157        -0.34070
     151 ->159        -0.16434
     153 ->157         0.21019

 The electronic state is 1-A.
 Alpha  occ. eigenvalues --  -46.89452 -19.23982 -19.19652 -19.19270 -19.18540
 Alpha  occ. eigenvalues --  -14.41771 -14.40182 -14.39834 -14.39783 -10.38528
 Alpha  occ. eigenvalues --  -10.35967 -10.35142 -10.31629 -10.31150 -10.31033
 Alpha  occ. eigenvalues --  -10.30608 -10.30049 -10.30035 -10.29849 -10.29383
 Alpha  occ. eigenvalues --  -10.29326 -10.28956 -10.28722 -10.28256 -10.28198
 Alpha  occ. eigenvalues --  -10.28118 -10.28014 -10.27918 -10.27275 -10.27173
 Alpha  occ. eigenvalues --  -10.27151 -10.26815 -10.26534 -10.26366 -10.26303
 Alpha  occ. eigenvalues --  -10.26292 -10.26059 -10.25931 -10.25739 -10.25719
 Alpha  occ. eigenvalues --  -10.25543 -10.25452 -10.25112  -3.17975  -1.92862
 Alpha  occ. eigenvalues --   -1.92437  -1.92274  -1.14195  -1.12179  -1.10860
 Alpha  occ. eigenvalues --   -1.06420  -1.05666  -1.04967  -1.04894  -1.00996
 Alpha  occ. eigenvalues --   -0.91267  -0.89268  -0.88880  -0.88002  -0.87808
 Alpha  occ. eigenvalues --   -0.87648  -0.85204  -0.84354  -0.83067  -0.82151
 Alpha  occ. eigenvalues --   -0.82026  -0.80966  -0.80414  -0.78779  -0.77134
 Alpha  occ. eigenvalues --   -0.76709  -0.76232  -0.75416  -0.72785  -0.71112
 Alpha  occ. eigenvalues --   -0.69226  -0.68793  -0.67946  -0.67348  -0.66120
 Alpha  occ. eigenvalues --   -0.65633  -0.64984  -0.64233  -0.61448  -0.61053
 Alpha  occ. eigenvalues --   -0.60115  -0.59072  -0.58062  -0.57579  -0.57190
 Alpha  occ. eigenvalues --   -0.56560  -0.55754  -0.55517  -0.54019  -0.53883
 Alpha  occ. eigenvalues --   -0.53401  -0.53044  -0.52648  -0.52440  -0.51993
 Alpha  occ. eigenvalues --   -0.51860  -0.51324  -0.50559  -0.50249  -0.50096
 Alpha  occ. eigenvalues --   -0.49865  -0.49713  -0.49568  -0.49284  -0.48844
 Alpha  occ. eigenvalues --   -0.48750  -0.48317  -0.47950  -0.47786  -0.47564
 Alpha  occ. eigenvalues --   -0.47450  -0.46441  -0.46242  -0.45794  -0.45540
 Alpha  occ. eigenvalues --   -0.45412  -0.44930  -0.44789  -0.44561  -0.44474
 Alpha  occ. eigenvalues --   -0.44027  -0.43448  -0.43342  -0.43001  -0.42758
 Alpha  occ. eigenvalues --   -0.42674  -0.42226  -0.41885  -0.41309  -0.41051
 Alpha  occ. eigenvalues --   -0.40642  -0.40375  -0.40204  -0.39903  -0.39862
 Alpha  occ. eigenvalues --   -0.38335  -0.37672  -0.37047  -0.36530  -0.36069
 Alpha  occ. eigenvalues --   -0.35738  -0.33603  -0.33063  -0.32616  -0.31854
 Alpha  occ. eigenvalues --   -0.31536  -0.31108  -0.30751  -0.29689  -0.23543
 Alpha  occ. eigenvalues --   -0.21631
 Alpha virt. eigenvalues --   -0.09079  -0.00361   0.00929   0.02311   0.02652
 Alpha virt. eigenvalues --    0.04524   0.05146   0.06181   0.06740   0.07880
 Alpha virt. eigenvalues --    0.08692   0.09237   0.09602   0.09962   0.10063

 Mulliken charges:
               1
     1  Mg   0.826195
     2  C   -0.065417
     3  C   -0.103064
     4  C   -0.107736
     5  C   -0.130966
     6  N   -0.312678
     7  C    0.024099
     8  C   -0.023505
     9  C   -0.082747
    10  C    0.076415
    11  C    0.084126
    12  C    0.076163
    13  C   -0.042753
    14  H    0.034505
    15  N   -0.369493
    16  C    0.070319
    17  C   -0.166231
    18  C   -0.053570
    19  C    0.122343
    20  C    0.110508
    21  C   -0.005287
    22  O   -0.175565
    23  C    0.040266
    24  N   -0.259605
    25  C    0.017085
    26  C   -0.043752
    27  C    0.012289
    28  C    0.084455
    29  C    0.071917
    30  C    0.015262
    31  C    0.027363
    32  N   -0.399935
    33  C    0.186744
    34  C   -0.163252
    35  C   -0.005528
    36  C    0.205936
    37  C    0.120976
    38  C    0.080291
    39  O   -0.141007
    40  C   -0.008765
    41  C    0.198139
    42  O   -0.246701
    43  O   -0.357390
    44  C    0.195834
    45  H   -0.051139
    46  H   -0.004780
    47  H   -0.024908
    48  H   -0.001881
    49  H    0.010378
    50  H    0.019412
    51  H    0.005737
    52  H    0.023062
    53  H    0.000614
    54  H    0.050449
    55  H    0.026302
    56  H    0.014088
    57  H    0.024839
    58  H    0.029628
    59  H    0.018791
    60  H    0.028145
    61  H    0.022164
    62  H    0.029319
    63  H    0.024265
    64  H    0.009000
    65  H    0.028136
    66  H    0.015883
    67  H    0.009653
    68  H   -0.002530
    69  H   -0.008716
    70  H    0.017897
    71  H    0.014504
    72  H    0.016663
    73  H    0.009035
    74  H    0.032530
    75  H    0.038936
    76  H    0.050073
    77  H    0.028675
    78  H    0.055455
    79  H    0.024037
 Sum of Mulliken charges =  -0.00000

 Dipole moment (field-independent basis, Debye):
    X=             -1.1060    Y=             -0.0268    Z=              1.7186  Tot=              2.0439
 Quadrupole moment (field-independent basis, Debye-Ang):
   XX=           -271.7622   YY=           -226.7261   ZZ=           -259.4289
   XY=             26.2664   XZ=             -6.0000   YZ=             -2.7814

 Normal termination of Gaussian 16 at Fri Oct  8 19:00:56 2021.
