 Gaussian 16, Revision A.03,
 Gaussian 16:  ES64L-G16RevA.03 25-Dec-2016

 -----------------------------------
 #p cam-b3lyp/Def2SVP td=(nstates=5)
 -----------------------------------

 --------------------------------
 TDDFT excited states in gaussian
 --------------------------------
 Symbolic Z-matrix:
 Charge =  0 Multiplicity = 1

                         Standard orientation:
 ---------------------------------------------------------------------
 Center     Atomic      Atomic             Coordinates (Angstroms)
 Number     Number       Type             X           Y           Z
 ---------------------------------------------------------------------
      1         12           0       28.228591    0.563058    0.121092
      2          6           0       24.754984   -0.092405   -0.863813
      3          6           0       26.926714    1.056029    3.289969
      4          6           0       31.188001    0.093871    1.212709
      5          6           0       29.081662   -0.469518   -3.213249
      6          7           0       25.987881    0.331054    1.111125
      7          6           0       24.764922    0.077436    0.529480
      8          6           0       23.664478   -0.011795    1.649227
      9          6           0       24.321218    0.623503    2.887086
     10          6           0       25.824049    0.676806    2.415355
     11          6           0       23.854610    2.071045    3.334058
     12          6           0       23.109381   -1.460058    1.873472
     13          6           0       21.623378   -1.577825    2.135653
     14          1           0       21.187719   -1.800593    3.617927
     15          7           0       28.986667    0.690752    1.944913
     16          6           0       28.349832    1.003569    3.115003
     17          6           0       29.332148    1.028510    4.233138
     18          6           0       30.573395    0.720480    3.617764
     19          6           0       30.273698    0.444855    2.214855
     20          6           0       29.035370    1.251400    5.725103
     21          6           0       31.925922    0.449446    4.282851
     22          8           0       31.997225    0.614802    5.497627
     23          6           0       33.096492    0.057686    3.602057
     24          7           0       29.864352   -0.370190   -0.854740
     25          6           0       31.051051   -0.167799   -0.178507
     26          6           0       32.236822   -0.532578   -1.153286
     27          6           0       31.506917   -1.007021   -2.460792
     28          6           0       30.073944   -0.489524   -2.189333
     29          6           0       33.276228    0.594904   -1.401158
     30          6           0       31.557701   -2.538982   -2.851743
     31          6           0       32.829325   -3.068988   -3.536817
     32          7           0       27.219211   -0.102103   -1.735958
     33          6           0       27.707018   -0.346915   -3.004062
     34          6           0       26.645026   -0.502268   -3.968349
     35          6           0       25.450311   -0.392216   -3.162789
     36          6           0       25.796783   -0.202549   -1.779453
     37          6           0       26.862787   -0.804837   -5.418869
     38          6           0       24.060413   -0.487916   -3.220508
     39          8           0       23.315959   -0.848606   -4.122091
     40          6           0       23.542760   -0.433666   -1.753945
     41          6           0       22.548895    0.704282   -1.745110
     42          8           0       21.415703    0.612938   -1.266441
     43          8           0       23.064250    1.987273   -2.191606
     44          6           0       22.188330    3.098676   -1.824083
     45          1           0       26.537967    1.288384    4.283122
     46          1           0       32.263183    0.078397    1.402943
     47          1           0       29.496655   -0.684933   -4.199990
     48          1           0       22.876741    0.705789    1.415380
     49          1           0       24.313916   -0.052820    3.741852
     50          1           0       23.255145    1.901100    4.228159
     51          1           0       23.195724    2.519444    2.591044
     52          1           0       24.652903    2.797384    3.486222
     53          1           0       23.487764   -1.959110    2.765956
     54          1           0       23.294939   -2.076971    0.993954
     55          1           0       21.242545   -2.342510    1.458633
     56          1           0       21.162712   -0.635962    1.835991
     57          1           0       29.813787    1.874056    6.166888
     58          1           0       28.979075    0.241893    6.132155
     59          1           0       28.106017    1.802877    5.860856
     60          1           0       33.409770    0.886884    2.966915
     61          1           0       33.018901   -0.886047    3.062107
     62          1           0       33.751657   -0.173537    4.442634
     63          1           0       32.837767   -1.376354   -0.815816
     64          1           0       31.832468   -0.432403   -3.327594
     65          1           0       33.279672    0.745229   -2.480826
     66          1           0       34.251214    0.238554   -1.070180
     67          1           0       32.888834    1.429284   -0.815209
     68          1           0       30.712740   -2.651390   -3.531869
     69          1           0       31.484161   -3.170094   -1.965841
     70          1           0       33.393892   -2.143455   -3.653338
     71          1           0       32.620717   -3.400493   -4.555015
     72          1           0       33.411658   -3.814374   -2.995705
     73          1           0       27.446932   -1.724022   -5.434720
     74          1           0       27.501631   -0.080095   -5.923256
     75          1           0       25.944735   -1.081214   -5.937558
     76          1           0       23.001611   -1.362904   -1.576737
     77          1           0       22.973568    3.855597   -1.821077
     78          1           0       21.609013    2.886931   -0.925412
     79          1           0       21.568173    3.299197   -2.697839
     80         12           0      -27.388565   -0.898147    0.190588
     81          6           0      -28.360407    2.632842    0.032355
     82          6           0      -24.442461    0.058406   -1.446914
     83          6           0      -26.608300   -4.055803   -0.028451
     84          6           0      -30.255968   -1.572041    1.947231
     85          7           0      -26.609218    1.046906   -0.785625
     86          6           0      -27.099510    2.410199   -0.624540
     87          6           0      -26.219523    3.474261   -1.314910
     88          6           0      -25.069730    2.494925   -1.946873
     89          6           0      -25.361516    1.086634   -1.392672
     90          6           0      -24.997579    2.534122   -3.460996
     91          6           0      -25.758940    4.554833   -0.290336
     92          6           0      -24.667866    5.466643   -0.765358
     93          1           0      -24.761579    6.952520   -0.498791
     94          7           0      -25.747102   -1.912896   -0.650348
     95          6           0      -24.625862   -1.354561   -1.274581
     96          6           0      -23.693645   -2.415263   -1.652163
     97          6           0      -24.312658   -3.663542   -1.233169
     98          6           0      -25.625525   -3.278792   -0.594851
     99          6           0      -22.274377   -2.183854   -2.289042
    100          6           0      -23.881557   -5.077074   -1.391504
    101          8           0      -24.488332   -6.048285   -0.959853
    102          6           0      -22.580006   -5.386326   -2.006889
    103          7           0      -28.224136   -2.520783    0.919898
    104          6           0      -27.800077   -3.746150    0.605338
    105          6           0      -28.671538   -4.859378    1.232715
    106          6           0      -29.524728   -4.053795    2.190392
    107          6           0      -29.389980   -2.589654    1.617889
    108          6           0      -29.492468   -5.631726    0.206517
    109          6           0      -29.305231   -4.054022    3.681111
    110          6           0      -27.967990   -3.491837    4.113846
    111          7           0      -29.039745    0.224374    0.783296
    112          6           0      -30.102891   -0.200520    1.600388
    113          6           0      -30.983009    0.916817    1.838729
    114          6           0      -30.254157    2.004095    1.291771
    115          6           0      -29.088523    1.548512    0.646802
    116          6           0      -32.240196    0.961908    2.657261
    117          6           0      -30.317172    3.495138    1.192118
    118          8           0      -31.103691    4.317422    1.708623
    119          6           0      -29.110789    3.903670    0.349701
    120          6           0      -29.569901    4.715440   -0.863377
    121          8           0      -30.289012    4.377018   -1.849393
    122          8           0      -28.927953    5.916831   -0.800732
    123          6           0      -29.168954    6.834151   -1.937526
    124          1           0      -23.451665    0.383911   -1.767655
    125          1           0      -26.398938   -5.121006   -0.146213
    126          1           0      -31.198891   -1.716354    2.478978
    127          1           0      -26.885677    3.981697   -2.012593
    128          1           0      -24.111117    2.738240   -1.488614
    129          1           0      -23.992918    2.843061   -3.751056
    130          1           0      -25.712478    3.291217   -3.781257
    131          1           0      -25.423853    1.693613   -4.008232
    132          1           0      -25.554449    4.011086    0.632609
    133          1           0      -26.616715    5.178367   -0.037988
    134          1           0      -24.481981    5.498946   -1.838659
    135          1           0      -23.742533    5.215501   -0.247708
    136          1           0      -21.574921   -2.582682   -1.553763
    137          1           0      -22.040708   -1.132957   -2.458997
    138          1           0      -22.265548   -2.749935   -3.220565
    139          1           0      -22.364909   -4.801445   -2.901413
    140          1           0      -22.668535   -6.439452   -2.271378
    141          1           0      -21.857337   -5.033701   -1.271647
    142          1           0      -27.991544   -5.556600    1.722325
    143          1           0      -30.573449   -4.349896    2.152940
    144          1           0      -29.477809   -6.686805    0.477372
    145          1           0      -29.074759   -5.525793   -0.794114
    146          1           0      -30.546875   -5.366176    0.290809
    147          1           0      -29.490211   -5.064914    4.045442
    148          1           0      -29.985217   -3.360547    4.175618
    149          1           0      -27.482256   -4.120756    4.859017
    150          1           0      -28.057420   -2.523078    4.605893
    151          1           0      -27.243398   -3.383561    3.306689
    152          1           0      -32.173792    1.770939    3.384283
    153          1           0      -32.568028    0.090259    3.223648
    154          1           0      -33.056219    1.180855    1.968272
    155          1           0      -28.503810    4.590890    0.939804
    156          1           0      -28.327545    6.792087   -2.628853
    157          1           0      -29.306850    7.758415   -1.376419
    158          1           0      -30.130033    6.655068   -2.421264
 ---------------------------------------------------------------------

 SCF Done:  E(RCAM-B3LYP) =  -4069.76943219     A.U. after   19 cycles

 Excitation energies and oscillator strengths:

 Excited State   1:      Singlet-A      1.6631 eV  745.51 nm  f=0.3998  <S**2>=0.000
     310 -> 316        0.16581
     312 -> 313        0.68886
     310 <- 316        0.10533
 This state for optimization and/or second-order correction.
 Total Energy, E(TD-HF/TD-DFT) =  -4069.70831552
 Copying the excited state density for this state as the 1-particle RhoCI density.

 Excited State   2:      Singlet-A      1.7224 eV  719.83 nm  f=0.3536  <S**2>=0.000
     309 -> 315       -0.19689
     311 -> 314        0.67936
     309 <- 315       -0.11036

 Excited State   3:      Singlet-A      2.1713 eV  571.00 nm  f=0.1379  <S**2>=0.000
     310 -> 313        0.65260
     312 -> 316       -0.25471

 Excited State   4:      Singlet-A      2.2417 eV  553.08 nm  f=0.0694  <S**2>=0.000
     309 -> 314        0.61607
     311 -> 315        0.33057

 Excited State   5:      Singlet-A      3.1493 eV  393.69 nm  f=0.0000  <S**2>=0.000
     311 -> 313        0.70710

 The electronic state is 1-A.
 Alpha  occ. eigenvalues --  -46.90791 -46.87746 -19.25749 -19.23745 -19.20119
 Alpha  occ. eigenvalues --  -19.19624 -19.18817 -19.18754 -19.18458 -19.17897
 Alpha  occ. eigenvalues --  -14.42744 -14.42490 -14.42155 -14.42044 -14.40840
 Alpha  occ. eigenvalues --  -14.39948 -14.39169 -14.38853 -10.39944 -10.39420
 Alpha  occ. eigenvalues --  -10.34961 -10.34727 -10.34640 -10.33537 -10.32340
 Alpha  occ. eigenvalues --  -10.31964 -10.31914 -10.31900 -10.31617 -10.31556
 Alpha  occ. eigenvalues --  -10.31491 -10.31395 -10.31362 -10.31085 -10.31039
 Alpha  occ. eigenvalues --  -10.30812 -10.30683 -10.30607 -10.30460 -10.29683
 Alpha  occ. eigenvalues --  -10.29424 -10.29267 -10.29254 -10.28953 -10.28944
 Alpha  occ. eigenvalues --  -10.28944 -10.28943 -10.28869 -10.28865 -10.28809
 Alpha  occ. eigenvalues --  -10.28644 -10.28590 -10.28578 -10.28556 -10.28430
 Alpha  occ. eigenvalues --  -10.28354 -10.28354 -10.28244 -10.28242 -10.28090
 Alpha  occ. eigenvalues --  -10.27523 -10.27499 -10.27490 -10.27377 -10.27370
 Alpha  occ. eigenvalues --  -10.27009 -10.26999 -10.26960 -10.26881 -10.26876
 Alpha  occ. eigenvalues --  -10.26835 -10.26828 -10.26685 -10.26673 -10.26273
 Alpha  occ. eigenvalues --  -10.26265 -10.26211 -10.25889 -10.25871 -10.25814
 Alpha  occ. eigenvalues --  -10.25725 -10.25711 -10.25620 -10.25265 -10.24694
 Alpha  occ. eigenvalues --  -10.24553  -3.19202  -3.16487  -1.94047  -1.93709
 Alpha  occ. eigenvalues --   -1.93467  -1.91392  -1.90953  -1.90789  -1.15992
 Alpha  occ. eigenvalues --   -1.13976  -1.10486  -1.10374  -1.09012  -1.07794
 Alpha  occ. eigenvalues --   -1.06379  -1.05753  -1.05062  -1.05042  -1.03397
 Alpha  occ. eigenvalues --   -1.03372  -1.02815  -1.02261  -1.01113  -1.00597
 Alpha  occ. eigenvalues --   -0.92919  -0.92297  -0.89685  -0.89036  -0.88974
 Alpha  occ. eigenvalues --   -0.88852  -0.88688  -0.88539  -0.87313  -0.87024
 Alpha  occ. eigenvalues --   -0.86991  -0.86959  -0.85962  -0.85872  -0.85052
 Alpha  occ. eigenvalues --   -0.84762  -0.84044  -0.83901  -0.83727  -0.82933
 Alpha  occ. eigenvalues --   -0.82564  -0.82290  -0.81412  -0.81185  -0.80068
 Alpha  occ. eigenvalues --   -0.79914  -0.78512  -0.78288  -0.77390  -0.77264
 Alpha  occ. eigenvalues --   -0.77075  -0.76803  -0.75958  -0.75863  -0.75490
 Alpha  occ. eigenvalues --   -0.75306  -0.72872  -0.72754  -0.71957  -0.71944
 Alpha  occ. eigenvalues --   -0.70290  -0.69439  -0.69175  -0.68631  -0.67748
 Alpha  occ. eigenvalues --   -0.67626  -0.67134  -0.67047  -0.65604  -0.65409
 Alpha  occ. eigenvalues --   -0.65083  -0.65055  -0.64654  -0.64320  -0.64061
 Alpha  occ. eigenvalues --   -0.63815  -0.61939  -0.61933  -0.60417  -0.60220
 Alpha  occ. eigenvalues --   -0.59845  -0.59303  -0.59155  -0.59073  -0.58954
 Alpha  occ. eigenvalues --   -0.58314  -0.57711  -0.57393  -0.57198  -0.57032
 Alpha  occ. eigenvalues --   -0.56797  -0.56273  -0.55981  -0.55641  -0.55474
 Alpha  occ. eigenvalues --   -0.55293  -0.54820  -0.54797  -0.54365  -0.54282
 Alpha  occ. eigenvalues --   -0.53976  -0.53817  -0.53585  -0.53452  -0.53333
 Alpha  occ. eigenvalues --   -0.53065  -0.52924  -0.52720  -0.52519  -0.52490
 Alpha  occ. eigenvalues --   -0.52121  -0.52026  -0.51776  -0.51473  -0.51138
 Alpha  occ. eigenvalues --   -0.51055  -0.50824  -0.50723  -0.50653  -0.50378
 Alpha  occ. eigenvalues --   -0.50179  -0.49925  -0.49894  -0.49785  -0.49550
 Alpha  occ. eigenvalues --   -0.49512  -0.49157  -0.48988  -0.48834  -0.48804
 Alpha  occ. eigenvalues --   -0.48673  -0.48536  -0.48440  -0.48423  -0.48195
 Alpha  occ. eigenvalues --   -0.48069  -0.47995  -0.47772  -0.47710  -0.47558
 Alpha  occ. eigenvalues --   -0.47310  -0.47010  -0.46767  -0.46749  -0.46560
 Alpha  occ. eigenvalues --   -0.46513  -0.46178  -0.46146  -0.45991  -0.45936
 Alpha  occ. eigenvalues --   -0.45694  -0.45433  -0.45402  -0.45003  -0.44936
 Alpha  occ. eigenvalues --   -0.44720  -0.44525  -0.44507  -0.44365  -0.44346
 Alpha  occ. eigenvalues --   -0.44174  -0.44149  -0.43968  -0.43836  -0.43625
 Alpha  occ. eigenvalues --   -0.43481  -0.43223  -0.43174  -0.42626  -0.42595
 Alpha  occ. eigenvalues --   -0.42495  -0.42486  -0.42341  -0.42193  -0.42094
 Alpha  occ. eigenvalues --   -0.41968  -0.41843  -0.41747  -0.41524  -0.41382
 Alpha  occ. eigenvalues --   -0.41196  -0.40948  -0.40454  -0.40298  -0.40247
 Alpha  occ. eigenvalues --   -0.39993  -0.39945  -0.39342  -0.39221  -0.39098
 Alpha  occ. eigenvalues --   -0.38891  -0.38886  -0.37895  -0.37557  -0.37323
 Alpha  occ. eigenvalues --   -0.37200  -0.37121  -0.36758  -0.36513  -0.36371
 Alpha  occ. eigenvalues --   -0.36102  -0.35400  -0.34512  -0.34297  -0.34089
 Alpha  occ. eigenvalues --   -0.33891  -0.33230  -0.33061  -0.31781  -0.31505
 Alpha  occ. eigenvalues --   -0.31431  -0.31260  -0.31071  -0.30392  -0.30308
 Alpha  occ. eigenvalues --   -0.30188  -0.29165  -0.28773  -0.24500  -0.24242
 Alpha  occ. eigenvalues --   -0.21488  -0.21469
 Alpha virt. eigenvalues --   -0.09285  -0.08820  -0.02732  -0.01653  -0.00396
 Alpha virt. eigenvalues --    0.00339   0.00552   0.02138   0.02198   0.03376
 Alpha virt. eigenvalues --    0.04348   0.04517   0.04786   0.05168   0.05448

 Mulliken charges:
               1
     1  Mg   0.834465
     2  C   -0.008403
     3  C   -0.051077
     4  C   -0.074880
     5  C   -0.087874
     6  N   -0.224656
     7  C   -0.070895
     8  C    0.059342
     9  C   -0.071618
    10  C   -0.036576
    11  C    0.062115
    12  C    0.059728
    13  C   -0.072171
    14  H    0.007724
    15  N   -0.409459
    16  C    0.147843
    17  C   -0.174489
    18  C   -0.015318
    19  C    0.192170
    20  C    0.144601
    21  C   -0.033278
    22  O   -0.215693
    23  C    0.089243
    24  N   -0.319240
    25  C    0.023104
    26  C   -0.073002
    27  C   -0.047470
    28  C    0.019167
    29  C    0.084299
    30  C    0.042797
    31  C    0.012938
    32  N   -0.344556
    33  C    0.143196
    34  C   -0.151048
    35  C    0.030881
    36  C    0.129281
    37  C    0.139481
    38  C   -0.006516
    39  O   -0.179837
    40  C   -0.020515
    41  C    0.217705
    42  O   -0.226427
    43  O   -0.389993
    44  C    0.179636
    45  H   -0.026339
    46  H   -0.046903
    47  H   -0.027791
    48  H    0.012210
    49  H    0.017817
    50  H    0.026282
    51  H    0.015278
    52  H    0.028896
    53  H    0.025183
    54  H    0.019052
    55  H    0.034365
    56  H    0.030239
    57  H    0.044830
    58  H    0.045438
    59  H    0.008976
    60  H    0.054027
    61  H    0.041939
    62  H    0.028091
    63  H    0.008478
    64  H   -0.003893
    65  H    0.016889
    66  H    0.020087
    67  H    0.021284
    68  H    0.004885
    69  H    0.011215
    70  H   -0.004496
    71  H    0.017488
    72  H    0.028238
    73  H    0.012470
    74  H    0.025047
    75  H    0.037625
    76  H    0.040518
    77  H    0.031539
    78  H    0.052759
    79  H    0.033554
    80  Mg   0.833773
    81  C   -0.021274
    82  C   -0.080172
    83  C   -0.082744
    84  C   -0.070320
    85  N   -0.301396
    86  C   -0.047357
    87  C   -0.021586
    88  C   -0.058521
    89  C    0.064055
    90  C    0.100731
    91  C    0.032562
    92  C   -0.071171
    93  H    0.011791
    94  N   -0.386351
    95  C    0.147007
    96  C   -0.156149
    97  C   -0.010716
    98  C    0.125024
    99  C    0.113802
   100  C   -0.027313
   101  O   -0.211686
   102  C    0.063952
   103  N   -0.345429
   104  C    0.087670
   105  C   -0.030108
   106  C   -0.026318
   107  C    0.096079
   108  C    0.087958
   109  C    0.059810
   110  C   -0.013226
   111  N   -0.360274
   112  C    0.064907
   113  C   -0.139158
   114  C   -0.053508
   115  C    0.135954
   116  C    0.107480
   117  C    0.083440
   118  O   -0.200421
   119  C    0.008592
   120  C    0.216112
   121  O   -0.257651
   122  O   -0.336364
   123  C    0.163768
   124  H   -0.033220
   125  H   -0.005312
   126  H   -0.025221
   127  H    0.025810
   128  H    0.008754
   129  H    0.023494
   130  H    0.000237
   131  H    0.025556
   132  H    0.009580
   133  H    0.036920
   134  H    0.030381
   135  H    0.032717
   136  H    0.039173
   137  H    0.020318
   138  H    0.045799
   139  H    0.005853
   140  H    0.040889
   141  H    0.037731
   142  H    0.013768
   143  H   -0.013290
   144  H    0.012816
   145  H    0.026536
   146  H    0.015528
   147  H    0.009171
   148  H    0.003992
   149  H    0.005189
   150  H    0.012490
   151  H    0.021975
   152  H    0.039097
   153  H    0.005097
   154  H    0.032596
   155  H    0.049792
   156  H    0.048539
   157  H    0.042661
   158  H    0.059326
 Sum of Mulliken charges =  -0.00000

 Dipole moment (field-independent basis, Debye):
    X=             10.3283    Y=              1.0141    Z=             -0.0760  Tot=             10.3782
 Quadrupole moment (field-independent basis, Debye-Ang):
   XX=           -523.1869   YY=           -510.7670   ZZ=           -525.5505
   XY=             76.5246   XZ=             -4.8571   YZ=            -18.8573

 Normal termination of Gaussian 16 at Thu Sep 16 02:55:23 2021.
