 Gaussian 16, Revision A.03,
 Gaussian 16:  ES64L-G16RevA.03 25-Dec-2016

 -----------------------------------
 #p cam-b3lyp/Def2SVP td=(nstates=5)
 -----------------------------------

 --------------------------------
 TDDFT excited states in gaussian
 --------------------------------
 Symbolic Z-matrix:
 Charge =  0 Multiplicity = 1

                         Standard orientation:
 ---------------------------------------------------------------------
 Center     Atomic      Atomic             Coordinates (Angstroms)
 Number     Number       Type             X           Y           Z
 ---------------------------------------------------------------------
      1         12           0      -26.763250   -0.807039    0.105165
      2          6           0      -27.957944    2.565054   -0.012753
      3          6           0      -25.085717   -0.156683   -2.794143
      4          6           0      -26.065374   -3.896284   -0.056568
      5          6           0      -29.378741   -1.500799    2.301426
      6          7           0      -26.617003    1.012549   -1.147174
      7          6           0      -27.074894    2.256759   -1.049971
      8          6           0      -26.468315    3.222981   -2.111033
      9          6           0      -26.062664    2.153985   -3.222201
     10          6           0      -25.875654    0.937765   -2.332391
     11          6           0      -27.176062    1.863527   -4.223440
     12          6           0      -25.215243    3.989861   -1.569335
     13          6           0      -24.762104    5.182206   -2.416879
     14          1           0      -24.223079    6.354713   -1.744549
     15          7           0      -25.368642   -1.753198   -0.925710
     16          6           0      -24.786516   -1.333997   -2.074922
     17          6           0      -23.815446   -2.385315   -2.446987
     18          6           0      -24.015890   -3.537034   -1.524241
     19          6           0      -25.190686   -3.113252   -0.806160
     20          6           0      -22.802565   -2.220899   -3.538221
     21          6           0      -23.273607   -4.821175   -1.328977
     22          8           0      -23.750429   -5.783783   -0.635722
     23          6           0      -21.996637   -4.958391   -2.052552
     24          7           0      -27.722875   -2.518800    0.816944
     25          6           0      -27.177836   -3.730356    0.661863
     26          6           0      -27.890135   -4.759414    1.488669
     27          6           0      -28.890690   -3.951030    2.434797
     28          6           0      -28.621548   -2.523542    1.898038
     29          6           0      -28.674262   -5.821404    0.705513
     30          6           0      -28.772574   -4.200199    3.959389
     31          6           0      -27.452308   -3.664344    4.466199
     32          7           0      -28.285338    0.342185    1.141300
     33          6           0      -29.286017   -0.154864    1.988800
     34          6           0      -30.141409    0.986360    2.362940
     35          6           0      -29.585091    2.072084    1.689473
     36          6           0      -28.469614    1.631874    0.921217
     37          6           0      -31.305587    0.923105    3.178490
     38          6           0      -29.688374    3.497201    1.420714
     39          8           0      -30.379934    4.415316    1.863777
     40          6           0      -28.713407    3.851178    0.212424
     41          6           0      -27.924759    5.070095    0.606869
     42          8           0      -27.093392    5.021021    1.536271
     43          8           0      -28.096621    6.028686   -0.316228
     44          6           0      -27.317361    7.255496   -0.000247
     45          1           0      -24.709962   -0.141028   -3.819083
     46          1           0      -25.794346   -4.952423    0.003037
     47          1           0      -30.163087   -1.625565    3.050217
     48          1           0      -27.174030    3.942454   -2.526662
     49          1           0      -25.124352    2.412701   -3.712464
     50          1           0      -28.109858    2.343712   -3.931263
     51          1           0      -27.289949    0.779314   -4.225664
     52          1           0      -26.868822    2.134611   -5.233833
     53          1           0      -24.336094    3.352122   -1.661250
     54          1           0      -25.378369    4.318746   -0.542422
     55          1           0      -25.527341    5.472980   -3.137137
     56          1           0      -23.919236    4.864287   -3.030638
     57          1           0      -23.007111   -1.339736   -4.145063
     58          1           0      -22.933399   -3.058606   -4.222939
     59          1           0      -21.782449   -2.216065   -3.153941
     60          1           0      -22.176849   -4.857078   -3.122977
     61          1           0      -21.564101   -5.902339   -1.722817
     62          1           0      -21.341625   -4.132885   -1.772466
     63          1           0      -27.188577   -5.319090    2.105925
     64          1           0      -29.934434   -4.171252    2.209464
     65          1           0      -28.371748   -6.844222    0.931417
     66          1           0      -28.563771   -5.606536   -0.356990
     67          1           0      -29.756194   -5.771549    0.825326
     68          1           0      -28.787596   -5.268770    4.171231
     69          1           0      -29.574208   -3.736759    4.534591
     70          1           0      -26.760524   -4.477835    4.250564
     71          1           0      -27.506323   -3.471594    5.538179
     72          1           0      -27.126595   -2.798209    3.889826
     73          1           0      -31.249657    1.774632    3.856532
     74          1           0      -31.354271   -0.017381    3.726870
     75          1           0      -32.086383    1.006678    2.422692
     76          1           0      -29.344815    4.035513   -0.656177
     77          1           0      -28.022878    8.086035    0.025919
     78          1           0      -26.506347    7.303245   -0.727146
     79          1           0      -26.894637    7.312872    1.003423
     80         12           0       27.629347    0.312209    0.173252
     81          6           0       24.419477   -0.148653   -1.034171
     82          6           0       26.361939    0.530236    3.384155
     83          6           0       30.783045   -0.007310    1.333827
     84          6           0       28.733250   -0.278969   -3.123648
     85          7           0       25.628020   -0.084666    1.098165
     86          6           0       24.507313   -0.052525    0.371666
     87          6           0       23.263487   -0.203535    1.301064
     88          6           0       23.866785    0.292771    2.698976
     89          6           0       25.410962    0.328706    2.382945
     90          6           0       23.218190    1.604155    3.204055
     91          6           0       22.847960   -1.654031    1.394951
     92          6           0       21.348747   -1.908495    1.380190
     93          1           0       20.665140   -3.030229    2.249399
     94          7           0       28.443434    0.448872    2.142348
     95          6           0       27.797544    0.460411    3.321099
     96          6           0       28.782292    0.551998    4.349712
     97          6           0       30.088470    0.577417    3.773398
     98          6           0       29.836928    0.370324    2.341865
     99          6           0       28.408935    0.800107    5.764407
    100          6           0       31.349456    0.578391    4.562277
    101          8           0       31.311784    0.662371    5.778603
    102          6           0       32.714743    0.546238    3.885861
    103          7           0       29.572727   -0.018488   -0.836902
    104          6           0       30.684648   -0.173168   -0.064914
    105          6           0       31.827422   -0.682086   -0.882028
    106          6           0       31.141313   -0.771732   -2.326528
    107          6           0       29.728335   -0.270191   -2.160004
    108          6           0       33.108151    0.169720   -0.802916
    109          6           0       31.207401   -2.192643   -3.043176
    110          6           0       31.740106   -2.319391   -4.489820
    111          7           0       26.806394   -0.093451   -1.681182
    112          6           0       27.362561   -0.232333   -2.913919
    113          6           0       26.381643   -0.109301   -3.898903
    114          6           0       25.162943   -0.046568   -3.237649
    115          6           0       25.467163   -0.114924   -1.901178
    116          6           0       26.653389   -0.186180   -5.429926
    117          6           0       23.786590    0.062795   -3.376038
    118          8           0       23.125633    0.025031   -4.407960
    119          6           0       23.128896   -0.038050   -1.916117
    120          6           0       22.460489    1.158634   -1.551300
    121          8           0       22.901040    2.247917   -1.176502
    122          8           0       21.100742    0.890394   -1.675371
    123          6           0       20.110761    1.911425   -1.378239
    124          1           0       25.962232    0.755486    4.374857
    125          1           0       31.845843   -0.125235    1.557285
    126          1           0       29.185867   -0.365092   -4.113795
    127          1           0       22.459477    0.401096    0.882353
    128          1           0       23.830297   -0.456289    3.489309
    129          1           0       22.533282    2.026205    2.468875
    130          1           0       23.998650    2.327654    3.441856
    131          1           0       22.712495    1.378009    4.142512
    132          1           0       23.249602   -2.242465    2.220142
    133          1           0       23.367111   -2.136557    0.566869
    134          1           0       21.066917   -2.021308    0.333453
    135          1           0       20.970081   -0.938894    1.703543
    136          1           0       28.546126    1.876935    5.861222
    137          1           0       29.042791    0.238015    6.450517
    138          1           0       27.378069    0.527587    5.990828
    139          1           0       32.884895   -0.496755    3.618381
    140          1           0       33.437327    0.746712    4.676549
    141          1           0       32.741560    1.227496    3.035507
    142          1           0       31.964489   -1.660369   -0.422429
    143          1           0       31.672132   -0.165220   -3.060360
    144          1           0       33.806683   -0.400834   -0.189960
    145          1           0       32.931955    1.165749   -0.395422
    146          1           0       33.549750    0.249320   -1.795974
    147          1           0       30.199929   -2.607697   -3.068142
    148          1           0       31.853213   -2.899976   -2.522413
    149          1           0       30.805758   -2.189486   -5.035760
    150          1           0       32.113346   -3.326820   -4.669268
    151          1           0       32.351001   -1.526280   -4.920757
    152          1           0       26.858317   -1.223635   -5.691005
    153          1           0       27.535559    0.344686   -5.788303
    154          1           0       25.783467    0.146611   -5.996809
    155          1           0       22.491426   -0.921990   -1.941002
    156          1           0       19.256000    1.722470   -2.026955
    157          1           0       20.476976    2.937845   -1.412234
    158          1           0       19.726674    1.712127   -0.377710
 ---------------------------------------------------------------------

 SCF Done:  E(RCAM-B3LYP) =  -4069.79163214     A.U. after   18 cycles

 Excitation energies and oscillator strengths:

 Excited State   1:      Singlet-A      1.6799 eV  738.06 nm  f=0.3869  <S**2>=0.000
     310 -> 316       -0.17553
     312 -> 314        0.68562
     310 <- 316       -0.10512
 This state for optimization and/or second-order correction.
 Total Energy, E(TD-HF/TD-DFT) =  -4069.72989834
 Copying the excited state density for this state as the 1-particle RhoCI density.

 Excited State   2:      Singlet-A      1.6990 eV  729.75 nm  f=0.4040  <S**2>=0.000
     309 -> 315       -0.18509
     311 -> 313        0.68479
     309 <- 315       -0.10997

 Excited State   3:      Singlet-A      2.1925 eV  565.48 nm  f=0.0987  <S**2>=0.000
     310 -> 314        0.64071
     312 -> 316        0.27830

 Excited State   4:      Singlet-A      2.2279 eV  556.51 nm  f=0.1005  <S**2>=0.000
     309 -> 313        0.63673
     311 -> 315        0.29383

 Excited State   5:      Singlet-A      3.0653 eV  404.48 nm  f=0.0000  <S**2>=0.000
     312 -> 313        0.70711

 The electronic state is 1-A.
 Alpha  occ. eigenvalues --  -46.89711 -46.87773 -19.26261 -19.24664 -19.20216
 Alpha  occ. eigenvalues --  -19.19269 -19.18996 -19.18791 -19.18375 -19.18147
 Alpha  occ. eigenvalues --  -14.42427 -14.42373 -14.42042 -14.41427 -14.39828
 Alpha  occ. eigenvalues --  -14.39380 -14.39223 -14.38564 -10.39646 -10.39056
 Alpha  occ. eigenvalues --  -10.35425 -10.35253 -10.34643 -10.34367 -10.31655
 Alpha  occ. eigenvalues --  -10.31608 -10.31567 -10.31417 -10.31382 -10.31331
 Alpha  occ. eigenvalues --  -10.31165 -10.30927 -10.30885 -10.30547 -10.30485
 Alpha  occ. eigenvalues --  -10.30184 -10.29898 -10.29798 -10.29608 -10.29461
 Alpha  occ. eigenvalues --  -10.29231 -10.28855 -10.28742 -10.28725 -10.28524
 Alpha  occ. eigenvalues --  -10.28513 -10.28359 -10.28351 -10.28342 -10.28336
 Alpha  occ. eigenvalues --  -10.28199 -10.28198 -10.28093 -10.27835 -10.27820
 Alpha  occ. eigenvalues --  -10.27783 -10.27770 -10.27704 -10.27561 -10.27479
 Alpha  occ. eigenvalues --  -10.27457 -10.27428 -10.27394 -10.27380 -10.27135
 Alpha  occ. eigenvalues --  -10.27062 -10.26878 -10.26817 -10.26680 -10.26627
 Alpha  occ. eigenvalues --  -10.26553 -10.26386 -10.26212 -10.26162 -10.26090
 Alpha  occ. eigenvalues --  -10.26051 -10.25997 -10.25920 -10.25875 -10.25822
 Alpha  occ. eigenvalues --  -10.25414 -10.24928 -10.24873 -10.24810 -10.24765
 Alpha  occ. eigenvalues --  -10.24664  -3.18034  -3.16516  -1.92947  -1.92484
 Alpha  occ. eigenvalues --   -1.92327  -1.91398  -1.90984  -1.90826  -1.16609
 Alpha  occ. eigenvalues --   -1.15772  -1.10056  -1.10010  -1.08605  -1.07548
 Alpha  occ. eigenvalues --   -1.07193  -1.06619  -1.05534  -1.04558  -1.04108
 Alpha  occ. eigenvalues --   -1.03885  -1.03737  -1.03211  -1.02635  -1.02388
 Alpha  occ. eigenvalues --   -0.93923  -0.91949  -0.89502  -0.89497  -0.89179
 Alpha  occ. eigenvalues --   -0.89164  -0.88427  -0.88264  -0.87919  -0.87848
 Alpha  occ. eigenvalues --   -0.87650  -0.87250  -0.86903  -0.86218  -0.85451
 Alpha  occ. eigenvalues --   -0.84958  -0.84667  -0.83914  -0.83076  -0.82944
 Alpha  occ. eigenvalues --   -0.82625  -0.82281  -0.81562  -0.81508  -0.80824
 Alpha  occ. eigenvalues --   -0.80573  -0.78774  -0.78207  -0.77640  -0.77195
 Alpha  occ. eigenvalues --   -0.76911  -0.76592  -0.76536  -0.75900  -0.75204
 Alpha  occ. eigenvalues --   -0.74876  -0.73539  -0.72751  -0.72417  -0.71649
 Alpha  occ. eigenvalues --   -0.69885  -0.69850  -0.69286  -0.68850  -0.68151
 Alpha  occ. eigenvalues --   -0.67618  -0.67448  -0.67196  -0.66209  -0.65942
 Alpha  occ. eigenvalues --   -0.65513  -0.65263  -0.64889  -0.64831  -0.64597
 Alpha  occ. eigenvalues --   -0.64247  -0.62734  -0.62274  -0.60528  -0.60419
 Alpha  occ. eigenvalues --   -0.59917  -0.59781  -0.59155  -0.59129  -0.58964
 Alpha  occ. eigenvalues --   -0.58481  -0.58212  -0.58023  -0.57561  -0.57286
 Alpha  occ. eigenvalues --   -0.56382  -0.56287  -0.56182  -0.55955  -0.55497
 Alpha  occ. eigenvalues --   -0.55487  -0.55317  -0.54903  -0.54501  -0.54403
 Alpha  occ. eigenvalues --   -0.53871  -0.53569  -0.53427  -0.53276  -0.53198
 Alpha  occ. eigenvalues --   -0.52891  -0.52732  -0.52681  -0.52416  -0.52363
 Alpha  occ. eigenvalues --   -0.52115  -0.52108  -0.51893  -0.51860  -0.51593
 Alpha  occ. eigenvalues --   -0.51531  -0.51343  -0.51173  -0.50548  -0.50407
 Alpha  occ. eigenvalues --   -0.50166  -0.50043  -0.50009  -0.49895  -0.49619
 Alpha  occ. eigenvalues --   -0.49491  -0.49467  -0.49191  -0.49073  -0.49054
 Alpha  occ. eigenvalues --   -0.49016  -0.48570  -0.48439  -0.48422  -0.48415
 Alpha  occ. eigenvalues --   -0.48322  -0.47671  -0.47560  -0.47274  -0.46911
 Alpha  occ. eigenvalues --   -0.46781  -0.46774  -0.46735  -0.46638  -0.46531
 Alpha  occ. eigenvalues --   -0.46336  -0.46155  -0.46140  -0.45991  -0.45847
 Alpha  occ. eigenvalues --   -0.45799  -0.45505  -0.45325  -0.45179  -0.45105
 Alpha  occ. eigenvalues --   -0.44730  -0.44555  -0.44546  -0.44483  -0.44122
 Alpha  occ. eigenvalues --   -0.44065  -0.43996  -0.43932  -0.43638  -0.43472
 Alpha  occ. eigenvalues --   -0.43419  -0.43362  -0.43192  -0.43004  -0.42898
 Alpha  occ. eigenvalues --   -0.42676  -0.42632  -0.42215  -0.42082  -0.41986
 Alpha  occ. eigenvalues --   -0.41951  -0.41863  -0.41681  -0.41510  -0.41469
 Alpha  occ. eigenvalues --   -0.41118  -0.41096  -0.40846  -0.40799  -0.40549
 Alpha  occ. eigenvalues --   -0.40273  -0.40210  -0.39757  -0.39418  -0.38446
 Alpha  occ. eigenvalues --   -0.38318  -0.38241  -0.37995  -0.37724  -0.37402
 Alpha  occ. eigenvalues --   -0.37298  -0.37296  -0.37240  -0.36690  -0.36302
 Alpha  occ. eigenvalues --   -0.36169  -0.35699  -0.34946  -0.34389  -0.34263
 Alpha  occ. eigenvalues --   -0.33747  -0.33644  -0.33163  -0.31854  -0.31321
 Alpha  occ. eigenvalues --   -0.31230  -0.31012  -0.30740  -0.30523  -0.30006
 Alpha  occ. eigenvalues --   -0.29470  -0.29426  -0.29299  -0.24577  -0.24057
 Alpha  occ. eigenvalues --   -0.21571  -0.21105
 Alpha virt. eigenvalues --   -0.09209  -0.08751  -0.02298  -0.01727  -0.00203
 Alpha virt. eigenvalues --   -0.00035   0.02223   0.02311   0.02491   0.03146
 Alpha virt. eigenvalues --    0.04025   0.04614   0.04741   0.05122   0.05479

 Mulliken charges:
               1
     1  Mg   0.838736
     2  C   -0.002963
     3  C   -0.094091
     4  C   -0.045878
     5  C   -0.063949
     6  N   -0.256788
     7  C   -0.052449
     8  C   -0.014001
     9  C   -0.087006
    10  C    0.046328
    11  C    0.104815
    12  C    0.053450
    13  C   -0.071819
    14  H    0.036162
    15  N   -0.433124
    16  C    0.168421
    17  C   -0.177152
    18  C   -0.004000
    19  C    0.148721
    20  C    0.110180
    21  C    0.012303
    22  O   -0.249631
    23  C    0.062466
    24  N   -0.341138
    25  C    0.041244
    26  C   -0.028173
    27  C   -0.023967
    28  C    0.074806
    29  C    0.076182
    30  C    0.035139
    31  C   -0.004506
    32  N   -0.310453
    33  C    0.080395
    34  C   -0.169711
    35  C    0.008344
    36  C    0.082986
    37  C    0.127312
    38  C    0.046117
    39  O   -0.188462
    40  C   -0.005349
    41  C    0.212886
    42  O   -0.257087
    43  O   -0.304806
    44  C    0.157693
    45  H   -0.017599
    46  H   -0.016843
    47  H   -0.041513
    48  H    0.000925
    49  H   -0.004014
    50  H    0.025461
    51  H    0.016437
    52  H    0.016657
    53  H    0.011227
    54  H    0.044136
    55  H    0.017854
    56  H    0.017967
    57  H    0.005883
    58  H    0.026819
    59  H    0.039589
    60  H    0.037342
    61  H    0.035658
    62  H    0.031535
    63  H    0.016560
    64  H    0.009438
    65  H    0.023203
    66  H    0.012540
    67  H    0.004732
    68  H    0.006347
    69  H    0.004715
    70  H    0.008787
    71  H    0.018147
    72  H    0.029000
    73  H    0.047563
    74  H    0.009101
    75  H    0.045985
    76  H    0.035137
    77  H    0.042929
    78  H    0.046413
    79  H    0.053700
    80  Mg   0.803410
    81  C   -0.053521
    82  C   -0.077645
    83  C   -0.031488
    84  C   -0.113885
    85  N   -0.266398
    86  C   -0.028592
    87  C   -0.077947
    88  C   -0.056777
    89  C    0.065549
    90  C    0.083056
    91  C    0.065148
    92  C   -0.060417
    93  H    0.028839
    94  N   -0.375685
    95  C    0.137242
    96  C   -0.161472
    97  C   -0.018952
    98  C    0.178084
    99  C    0.123845
   100  C   -0.042892
   101  O   -0.205012
   102  C    0.068023
   103  N   -0.281929
   104  C   -0.040122
   105  C   -0.032403
   106  C   -0.000397
   107  C    0.029913
   108  C    0.073844
   109  C   -0.008471
   110  C   -0.012549
   111  N   -0.343833
   112  C    0.184287
   113  C   -0.180484
   114  C    0.103180
   115  C    0.131981
   116  C    0.117898
   117  C   -0.022213
   118  O   -0.171218
   119  C   -0.002513
   120  C    0.227945
   121  O   -0.227798
   122  O   -0.357581
   123  C    0.177863
   124  H   -0.025137
   125  H   -0.050640
   126  H   -0.029531
   127  H    0.016099
   128  H    0.020250
   129  H    0.026939
   130  H    0.012907
   131  H    0.013834
   132  H    0.013077
   133  H    0.002782
   134  H    0.032682
   135  H    0.023566
   136  H    0.036665
   137  H    0.042139
   138  H    0.002282
   139  H    0.036917
   140  H    0.025018
   141  H    0.043449
   142  H    0.026543
   143  H   -0.001265
   144  H    0.020702
   145  H    0.031764
   146  H    0.017651
   147  H    0.019560
   148  H    0.006270
   149  H    0.003060
   150  H    0.024540
   151  H    0.019082
   152  H    0.024505
   153  H    0.016652
   154  H    0.037789
   155  H    0.052363
   156  H    0.038603
   157  H    0.051828
   158  H    0.019141
 Sum of Mulliken charges =  -0.00000

 Dipole moment (field-independent basis, Debye):
    X=              3.7378    Y=             -2.0891    Z=             -4.9580  Tot=              6.5511
 Quadrupole moment (field-independent basis, Debye-Ang):
   XX=           -476.6763   YY=           -525.5597   ZZ=           -523.8575
   XY=             12.4298   XZ=             37.1521   YZ=            -20.5204

 Normal termination of Gaussian 16 at Wed Sep 15 09:07:01 2021.
