 Gaussian 16, Revision A.03,
 Gaussian 16:  ES64L-G16RevA.03 25-Dec-2016

 ----------------------------------------------------------
 #p cam-b3lyp/Def2SVP td=(nstates=5) density=(transition=1)
 ----------------------------------------------------------

 --------------------------------
 TDDFT excited states in gaussian
 --------------------------------
 Symbolic Z-matrix:
 Charge =  0 Multiplicity = 1

                         Standard orientation:
 ---------------------------------------------------------------------
 Center     Atomic      Atomic             Coordinates (Angstroms)
 Number     Number       Type             X           Y           Z
 ---------------------------------------------------------------------
      1         12           0      -16.860444    0.533605    0.278722
      2          6           0      -15.626987   -1.880692   -2.015613
      3          6           0      -14.141169    2.545963   -0.754708
      4          6           0      -17.660390    2.688480    2.594091
      5          6           0      -19.263406   -1.757286    1.315149
      6          7           0      -15.043412    0.345302   -1.239990
      7          6           0      -14.877237   -0.714637   -2.097317
      8          6           0      -13.761434   -0.499023   -3.105694
      9          6           0      -13.220722    0.897900   -2.576088
     10          6           0      -14.208098    1.324443   -1.478900
     11          6           0      -11.745581    0.805210   -2.197165
     12          6           0      -14.326235   -0.436558   -4.541878
     13          6           0      -13.471198   -1.049740   -5.715522
     14          1           0      -11.954189   -1.246675   -5.485936
     15          7           0      -16.070161    2.410703    0.803828
     16          6           0      -14.909822    3.008761    0.311440
     17          6           0      -14.740783    4.303351    0.990244
     18          6           0      -15.835644    4.395913    1.910249
     19          6           0      -16.586201    3.136894    1.741262
     20          6           0      -13.621618    5.172026    0.763611
     21          6           0      -16.167352    5.524490    2.881351
     22          8           0      -17.101998    5.417692    3.691154
     23          6           0      -15.502071    6.839666    2.767198
     24          7           0      -18.200762    0.430625    1.818940
     25          6           0      -18.418214    1.502700    2.585271
     26          6           0      -19.510012    1.209620    3.665067
     27          6           0      -20.133286   -0.115378    3.122071
     28          6           0      -19.177844   -0.541823    2.052033
     29          6           0      -18.967282    1.165772    5.138831
     30          6           0      -21.525728    0.303420    2.513032
     31          6           0      -21.651072    0.649201    0.989190
     32          7           0      -17.445953   -1.367335   -0.275459
     33          6           0      -18.455058   -2.182798    0.268079
     34          6           0      -18.406151   -3.499477   -0.414810
     35          6           0      -17.295707   -3.415753   -1.246630
     36          6           0      -16.745435   -2.152562   -1.194223
     37          6           0      -19.200187   -4.611625    0.078198
     38          6           0      -16.454269   -4.248685   -2.102348
     39          8           0      -16.578913   -5.443121   -2.348286
     40          6           0      -15.292051   -3.286090   -2.635715
     41          6           0      -13.952799   -3.806985   -2.268563
     42          8           0      -13.301124   -3.495548   -1.275866
     43          8           0      -13.526875   -4.713387   -3.257859
     44          6           0      -12.276409   -5.428724   -3.139764
     45          1           0      -13.494802    3.318369   -1.177608
     46          1           0      -17.993303    3.373775    3.376874
     47          1           0      -20.085476   -2.368030    1.693384
     48          1           0      -12.995106   -1.273025   -3.056389
     49          1           0      -13.209841    1.559026   -3.442199
     50          1           0      -11.096938    1.525044   -2.695131
     51          1           0      -11.274312   -0.168077   -2.334184
     52          1           0      -11.680890    1.088607   -1.145799
     53          1           0      -14.557751    0.590785   -4.822808
     54          1           0      -15.268827   -0.967438   -4.404055
     55          1           0      -13.486820   -0.387465   -6.580469
     56          1           0      -14.054933   -1.896606   -6.076285
     57          1           0      -14.039719    6.151919    0.532262
     58          1           0      -12.893259    4.705382    0.101111
     59          1           0      -13.133740    5.110390    1.736890
     60          1           0      -14.462342    6.831989    3.095708
     61          1           0      -16.009224    7.557533    3.411557
     62          1           0      -15.441183    7.086422    1.707635
     63          1           0      -20.108377    2.109535    3.522709
     64          1           0      -20.316557   -0.835259    3.920141
     65          1           0      -19.122682    2.130369    5.622234
     66          1           0      -17.933113    0.827961    5.080207
     67          1           0      -19.552394    0.399861    5.647601
     68          1           0      -22.006125    1.022052    3.177329
     69          1           0      -22.069881   -0.641088    2.484978
     70          1           0      -22.276235    1.541630    0.987302
     71          1           0      -22.165102   -0.124010    0.416756
     72          1           0      -20.724862    0.908250    0.477372
     73          1           0      -19.066422   -4.680492    1.157012
     74          1           0      -18.782360   -5.511917   -0.373491
     75          1           0      -20.215964   -4.571662   -0.314187
     76          1           0      -15.410304   -3.331303   -3.718782
     77          1           0      -12.388180   -6.429955   -2.724369
     78          1           0      -11.489425   -4.790304   -2.738011
     79          1           0      -11.969198   -5.467205   -4.185258
     80         12           0       16.382608    0.466112   -0.827714
     81          6           0       16.226764   -2.692818    0.783288
     82          6           0       12.900890    0.373270   -1.017814
     83          6           0       16.503042    3.737149   -1.176936
     84          6           0       19.982442    0.367111   -0.167893
     85          7           0       14.713670   -0.947351    0.068153
     86          6           0       14.935200   -2.239767    0.414128
     87          6           0       13.612736   -2.984640    0.447502
     88          6           0       12.759831   -2.273615   -0.603316
     89          6           0       13.459830   -0.824763   -0.485710
     90          6           0       12.829177   -2.760618   -2.051888
     91          6           0       13.053430   -3.012271    1.936546
     92          6           0       12.548894   -4.346739    2.323285
     93          1           0       11.238449   -4.407323    3.132009
     94          7           0       14.889722    1.940402   -1.028076
     95          6           0       13.504346    1.676390   -1.166003
     96          6           0       12.870081    2.948570   -1.403562
     97          6           0       13.855434    3.960377   -1.552415
     98          6           0       15.157212    3.272730   -1.234004
     99          6           0       11.352658    3.051223   -1.521146
    100          6           0       13.604508    5.394222   -1.806739
    101          8           0       12.447458    5.779777   -1.919479
    102          6           0       14.617533    6.490439   -1.858087
    103          7           0       18.092953    1.886387   -0.579903
    104          6           0       17.818118    3.137118   -1.000503
    105          6           0       19.109460    3.966394   -1.121241
    106          6           0       20.287156    2.851532   -0.947193
    107          6           0       19.440217    1.604600   -0.583357
    108          6           0       19.184744    4.890977   -2.418565
    109          6           0       21.402888    3.207024    0.084726
    110          6           0       21.293456    2.587335    1.519600
    111          7           0       17.790699   -0.807424    0.064046
    112          6           0       19.207200   -0.727039    0.186206
    113          6           0       19.731517   -2.084593    0.650870
    114          6           0       18.574486   -2.798814    0.918079
    115          6           0       17.445203   -1.992125    0.530640
    116          6           0       21.154390   -2.629336    0.880893
    117          6           0       18.075477   -4.064754    1.352801
    118          8           0       18.674873   -5.098465    1.653235
    119          6           0       16.596724   -3.916020    1.401889
    120          6           0       16.302209   -3.878519    2.918942
    121          8           0       16.444605   -2.925073    3.681592
    122          8           0       15.900262   -5.188699    3.300442
    123          6           0       15.689030   -5.449203    4.666407
    124          1           0       11.823100    0.368938   -1.194077
    125          1           0       16.451852    4.786201   -1.475088
    126          1           0       21.054720    0.186478   -0.074790
    127          1           0       13.685653   -4.009443    0.083718
    128          1           0       11.680764   -2.193319   -0.477021
    129          1           0       13.220468   -3.772029   -2.157759
    130          1           0       13.255272   -2.003364   -2.710455
    131          1           0       11.774181   -2.833585   -2.318548
    132          1           0       12.211063   -2.323653    2.003188
    133          1           0       13.726127   -2.576966    2.675600
    134          1           0       13.395117   -4.745791    2.881391
    135          1           0       12.391020   -4.927778    1.414800
    136          1           0       11.014694    3.188924   -2.548053
    137          1           0       11.003180    3.832176   -0.847394
    138          1           0       10.883802    2.129856   -1.175361
    139          1           0       15.231373    6.344098   -2.747181
    140          1           0       15.269146    6.577803   -0.987816
    141          1           0       14.162440    7.444759   -2.120366
    142          1           0       19.094236    4.570556   -0.214375
    143          1           0       20.703948    2.633651   -1.929931
    144          1           0       18.187897    5.124388   -2.792365
    145          1           0       19.846360    4.604109   -3.236782
    146          1           0       19.767633    5.742202   -2.063306
    147          1           0       21.532625    4.282586    0.202100
    148          1           0       22.288833    2.780590   -0.385135
    149          1           0       21.762358    3.426639    2.033749
    150          1           0       21.853559    1.675963    1.729994
    151          1           0       20.233983    2.516053    1.766499
    152          1           0       21.338362   -3.512324    0.269851
    153          1           0       20.982154   -3.007610    1.888085
    154          1           0       21.839021   -1.782016    0.850000
    155          1           0       16.128256   -4.801751    0.972649
    156          1           0       15.395099   -6.474654    4.893791
    157          1           0       14.888143   -4.791566    5.001972
    158          1           0       16.642412   -5.223148    5.144807
 ---------------------------------------------------------------------

 SCF Done:  E(RCAM-B3LYP) =  -4069.76167624     A.U. after   17 cycles

 Excitation energies and oscillator strengths:

 Excited State   1:      Singlet-A      1.6842 eV  736.15 nm  f=0.3531  <S**2>=0.000
     309 -> 315        0.19721
     311 -> 313        0.68013
     309 <- 315        0.11211
 This state for optimization and/or second-order correction.
 Total Energy, E(TD-HF/TD-DFT) =  -4069.69978205
 Copying the excited state density for this state as the 1-particle RhoCI density.

 Excited State   2:      Singlet-A      1.7493 eV  708.76 nm  f=0.3753  <S**2>=0.000
     310 -> 316        0.18981
     312 -> 314        0.68123
     310 <- 316        0.10801

 Excited State   3:      Singlet-A      2.1915 eV  565.75 nm  f=0.0565  <S**2>=0.000
     309 -> 313        0.61455
     311 -> 315       -0.33938

 Excited State   4:      Singlet-A      2.2729 eV  545.48 nm  f=0.0725  <S**2>=0.000
     310 -> 314        0.62311
     312 -> 316       -0.32199

 Excited State   5:      Singlet-A      3.0344 eV  408.59 nm  f=0.0000  <S**2>=0.000
     312 -> 313        0.70709

 The electronic state is 1-A.
 Alpha  occ. eigenvalues --  -46.91335 -46.88482 -19.24738 -19.23963 -19.21431
 Alpha  occ. eigenvalues --  -19.19865 -19.19299 -19.18944 -19.18710 -19.17613
 Alpha  occ. eigenvalues --  -14.42441 -14.42102 -14.41976 -14.41262 -14.40277
 Alpha  occ. eigenvalues --  -14.39796 -14.39661 -14.38895 -10.40622 -10.39464
 Alpha  occ. eigenvalues --  -10.35355 -10.35259 -10.34593 -10.34166 -10.31864
 Alpha  occ. eigenvalues --  -10.31463 -10.31436 -10.31341 -10.31170 -10.31078
 Alpha  occ. eigenvalues --  -10.31009 -10.30986 -10.30865 -10.30746 -10.30428
 Alpha  occ. eigenvalues --  -10.30366 -10.30292 -10.30192 -10.30115 -10.29501
 Alpha  occ. eigenvalues --  -10.29426 -10.29215 -10.29164 -10.29004 -10.28851
 Alpha  occ. eigenvalues --  -10.28814 -10.28554 -10.28446 -10.28405 -10.28229
 Alpha  occ. eigenvalues --  -10.28213 -10.28182 -10.28018 -10.27938 -10.27698
 Alpha  occ. eigenvalues --  -10.27641 -10.27590 -10.27559 -10.27532 -10.27417
 Alpha  occ. eigenvalues --  -10.27388 -10.27370 -10.27259 -10.27215 -10.27194
 Alpha  occ. eigenvalues --  -10.27139 -10.27130 -10.27118 -10.27019 -10.26815
 Alpha  occ. eigenvalues --  -10.26789 -10.26477 -10.26407 -10.26396 -10.26349
 Alpha  occ. eigenvalues --  -10.26265 -10.25810 -10.25728 -10.25699 -10.25314
 Alpha  occ. eigenvalues --  -10.25313 -10.25287 -10.25258 -10.25074 -10.25010
 Alpha  occ. eigenvalues --  -10.24674  -3.19535  -3.17026  -1.94376  -1.94042
 Alpha  occ. eigenvalues --   -1.93791  -1.91933  -1.91493  -1.91313  -1.15848
 Alpha  occ. eigenvalues --   -1.14637  -1.09638  -1.09632  -1.09397  -1.09177
 Alpha  occ. eigenvalues --   -1.08680  -1.07228  -1.04736  -1.04235  -1.04017
 Alpha  occ. eigenvalues --   -1.03483  -1.03069  -1.02871  -1.01351  -1.01310
 Alpha  occ. eigenvalues --   -0.94411  -0.91957  -0.89856  -0.89203  -0.88755
 Alpha  occ. eigenvalues --   -0.88635  -0.88362  -0.87833  -0.87309  -0.87300
 Alpha  occ. eigenvalues --   -0.86882  -0.86711  -0.86160  -0.85607  -0.84812
 Alpha  occ. eigenvalues --   -0.84108  -0.83694  -0.83276  -0.82736  -0.82616
 Alpha  occ. eigenvalues --   -0.81970  -0.81676  -0.80889  -0.80808  -0.80416
 Alpha  occ. eigenvalues --   -0.80305  -0.78918  -0.78069  -0.77303  -0.77081
 Alpha  occ. eigenvalues --   -0.76913  -0.76832  -0.76034  -0.75763  -0.75239
 Alpha  occ. eigenvalues --   -0.74754  -0.72780  -0.72102  -0.71873  -0.71277
 Alpha  occ. eigenvalues --   -0.69949  -0.69211  -0.68885  -0.68747  -0.67815
 Alpha  occ. eigenvalues --   -0.67348  -0.66900  -0.66679  -0.65374  -0.65002
 Alpha  occ. eigenvalues --   -0.64977  -0.64744  -0.64654  -0.64576  -0.64433
 Alpha  occ. eigenvalues --   -0.64159  -0.62242  -0.61511  -0.60301  -0.59963
 Alpha  occ. eigenvalues --   -0.59800  -0.59337  -0.59304  -0.59017  -0.58930
 Alpha  occ. eigenvalues --   -0.58295  -0.58037  -0.57847  -0.57140  -0.57070
 Alpha  occ. eigenvalues --   -0.56249  -0.56229  -0.55991  -0.55671  -0.55463
 Alpha  occ. eigenvalues --   -0.55306  -0.54979  -0.54587  -0.54251  -0.53925
 Alpha  occ. eigenvalues --   -0.53826  -0.53708  -0.53422  -0.53295  -0.53124
 Alpha  occ. eigenvalues --   -0.53065  -0.52743  -0.52671  -0.52300  -0.52210
 Alpha  occ. eigenvalues --   -0.51999  -0.51782  -0.51701  -0.51473  -0.51423
 Alpha  occ. eigenvalues --   -0.51335  -0.51280  -0.50730  -0.50586  -0.50581
 Alpha  occ. eigenvalues --   -0.50215  -0.49996  -0.49872  -0.49759  -0.49529
 Alpha  occ. eigenvalues --   -0.49432  -0.49264  -0.48997  -0.48983  -0.48879
 Alpha  occ. eigenvalues --   -0.48512  -0.48496  -0.48357  -0.48296  -0.48051
 Alpha  occ. eigenvalues --   -0.47789  -0.47566  -0.47500  -0.47334  -0.47198
 Alpha  occ. eigenvalues --   -0.46922  -0.46881  -0.46648  -0.46125  -0.46076
 Alpha  occ. eigenvalues --   -0.45980  -0.45964  -0.45931  -0.45900  -0.45467
 Alpha  occ. eigenvalues --   -0.45363  -0.45334  -0.45174  -0.44992  -0.44600
 Alpha  occ. eigenvalues --   -0.44585  -0.44479  -0.44226  -0.44204  -0.44168
 Alpha  occ. eigenvalues --   -0.44018  -0.43903  -0.43822  -0.43636  -0.43507
 Alpha  occ. eigenvalues --   -0.43390  -0.43340  -0.43288  -0.43033  -0.42929
 Alpha  occ. eigenvalues --   -0.42525  -0.42362  -0.42075  -0.41923  -0.41664
 Alpha  occ. eigenvalues --   -0.41631  -0.41335  -0.41271  -0.41036  -0.41007
 Alpha  occ. eigenvalues --   -0.40992  -0.40641  -0.40457  -0.40316  -0.40115
 Alpha  occ. eigenvalues --   -0.39825  -0.39342  -0.39202  -0.38588  -0.38551
 Alpha  occ. eigenvalues --   -0.38298  -0.37954  -0.37720  -0.37667  -0.37394
 Alpha  occ. eigenvalues --   -0.37083  -0.36606  -0.36544  -0.36354  -0.36098
 Alpha  occ. eigenvalues --   -0.35799  -0.35653  -0.35243  -0.34248  -0.34150
 Alpha  occ. eigenvalues --   -0.34008  -0.33378  -0.33265  -0.31494  -0.31163
 Alpha  occ. eigenvalues --   -0.30931  -0.30840  -0.30796  -0.30599  -0.30252
 Alpha  occ. eigenvalues --   -0.30124  -0.29512  -0.29314  -0.24081  -0.23850
 Alpha  occ. eigenvalues --   -0.21070  -0.20754
 Alpha virt. eigenvalues --   -0.08563  -0.08113  -0.02647  -0.01676  -0.00636
 Alpha virt. eigenvalues --    0.00103   0.00266   0.02136   0.02214   0.03359
 Alpha virt. eigenvalues --    0.04679   0.04855   0.05115   0.05136   0.05762

 Mulliken charges:
               1
     1  Mg  11.999940
     2  C    6.000523
     3  C    5.999977
     4  C    5.999315
     5  C    6.000126
     6  N    7.000200
     7  C    5.999447
     8  C    6.000273
     9  C    5.999726
    10  C    6.000469
    11  C    5.999898
    12  C    6.000022
    13  C    5.999938
    14  H    1.000165
    15  N    6.999778
    16  C    6.000749
    17  C    6.000331
    18  C    6.000284
    19  C    6.000570
    20  C    5.999834
    21  C    6.000207
    22  O    8.000402
    23  C    5.999889
    24  N    6.999806
    25  C    6.000681
    26  C    5.999941
    27  C    6.000206
    28  C    5.999531
    29  C    5.999973
    30  C    6.000064
    31  C    6.000158
    32  N    7.000120
    33  C    5.999414
    34  C    5.999307
    35  C    6.000071
    36  C    5.999306
    37  C    6.000158
    38  C    5.999677
    39  O    7.999525
    40  C    5.999984
    41  C    5.999966
    42  O    7.999918
    43  O    7.999974
    44  C    6.000018
    45  H    1.000395
    46  H    0.999979
    47  H    0.999672
    48  H    1.000031
    49  H    1.000192
    50  H    1.000311
    51  H    1.000298
    52  H    0.999988
    53  H    0.999860
    54  H    1.000025
    55  H    0.999992
    56  H    0.999967
    57  H    1.000343
    58  H    1.000425
    59  H    1.000405
    60  H    1.000249
    61  H    1.000181
    62  H    1.000099
    63  H    0.999885
    64  H    0.999837
    65  H    0.999910
    66  H    1.000036
    67  H    1.000051
    68  H    0.999734
    69  H    0.999925
    70  H    0.999781
    71  H    0.999975
    72  H    0.999991
    73  H    0.999613
    74  H    0.999666
    75  H    0.999550
    76  H    0.999884
    77  H    0.999876
    78  H    1.000045
    79  H    0.999969
    80  Mg  11.998315
    81  C    5.975526
    82  C    6.020100
    83  C    6.020801
    84  C    5.976633
    85  N    6.996274
    86  C    6.028731
    87  C    5.996928
    88  C    6.001653
    89  C    5.969417
    90  C    6.001566
    91  C    5.994504
    92  C    5.999116
    93  H    1.006666
    94  N    7.014635
    95  C    5.947552
    96  C    5.983579
    97  C    5.986435
    98  C    5.959650
    99  C    6.006253
   100  C    5.991032
   101  O    7.977302
   102  C    6.003338
   103  N    6.995883
   104  C    5.966325
   105  C    6.012831
   106  C    5.985011
   107  C    6.040785
   108  C    6.003325
   109  C    6.001097
   110  C    5.990827
   111  N    6.992287
   112  C    6.054615
   113  C    6.025789
   114  C    6.003825
   115  C    6.032902
   116  C    6.000253
   117  C    6.017192
   118  O    8.031524
   119  C    5.998113
   120  C    6.002107
   121  O    8.004832
   122  O    8.001430
   123  C    5.997631
   124  H    0.991077
   125  H    0.997253
   126  H    1.009911
   127  H    0.998886
   128  H    0.999238
   129  H    0.985136
   130  H    1.002241
   131  H    0.998034
   132  H    1.013302
   133  H    0.997398
   134  H    0.994194
   135  H    1.003004
   136  H    0.979396
   137  H    0.983091
   138  H    0.981172
   139  H    0.988697
   140  H    0.988175
   141  H    0.987867
   142  H    0.999199
   143  H    1.005614
   144  H    1.008873
   145  H    0.993488
   146  H    0.995005
   147  H    1.010958
   148  H    1.000580
   149  H    1.009465
   150  H    0.996383
   151  H    1.002008
   152  H    1.017619
   153  H    1.013523
   154  H    1.016156
   155  H    1.008916
   156  H    1.004472
   157  H    1.005953
   158  H    0.999123
 Sum of Mulliken charges = 624.00000

 Dipole moment (field-independent basis, Debye):
    X=              7.6181    Y=             -6.5523    Z=              3.1003  Tot=             10.5157
 Quadrupole moment (field-independent basis, Debye-Ang):
   XX=            242.5028   YY=             -6.8499   ZZ=             -0.7633
   XY=           -106.4219   XZ=             45.5104   YZ=              2.2736

 Normal termination of Gaussian 16 at Wed Sep 22 07:06:06 2021.
