 Gaussian 16, Revision A.03,
 Gaussian 16:  ES64L-G16RevA.03 25-Dec-2016

 ----------------------------------------------------------
 #p cam-b3lyp/Def2SVP td=(nstates=5) density=(transition=1)
 ----------------------------------------------------------

 --------------------------------
 TDDFT excited states in gaussian
 --------------------------------
 Symbolic Z-matrix:
 Charge =  0 Multiplicity = 1

                         Standard orientation:
 ---------------------------------------------------------------------
 Center     Atomic      Atomic             Coordinates (Angstroms)
 Number     Number       Type             X           Y           Z
 ---------------------------------------------------------------------
      1         12           0       26.488773    0.306391    0.580592
      2          6           0       24.952088   -2.357148   -1.280241
      3          6           0       26.846024    1.972912   -2.528421
      4          6           0       28.128985    2.949210    2.168524
      5          6           0       26.456274   -1.516425    3.379983
      6          7           0       26.104384   -0.305292   -1.729923
      7          6           0       25.381545   -1.359780   -2.164508
      8          6           0       25.288502   -1.335065   -3.732601
      9          6           0       26.105235   -0.030739   -4.046170
     10          6           0       26.317398    0.662487   -2.680754
     11          6           0       27.439852   -0.332700   -4.813103
     12          6           0       23.853098   -1.274933   -4.254396
     13          6           0       23.530387   -2.172028   -5.404040
     14          1           0       22.081997   -2.232573   -5.910398
     15          7           0       27.172690    2.249220   -0.004063
     16          6           0       27.231386    2.709187   -1.315406
     17          6           0       27.754909    4.060665   -1.294901
     18          6           0       28.035127    4.413362    0.014851
     19          6           0       27.854585    3.146696    0.801203
     20          6           0       28.080138    4.870557   -2.516953
     21          6           0       28.639344    5.741067    0.630914
     22          8           0       28.861293    5.980245    1.792656
     23          6           0       28.827410    6.937985   -0.275874
     24          7           0       27.319040    0.630583    2.398730
     25          6           0       27.942058    1.747933    2.890429
     26          6           0       28.549683    1.509139    4.292434
     27          6           0       27.807401    0.189254    4.770235
     28          6           0       27.117404   -0.247715    3.422044
     29          6           0       30.110104    1.435464    4.277643
     30          6           0       26.786753    0.403853    5.929050
     31          6           0       25.540818    1.211612    5.572707
     32          7           0       25.897659   -1.523360    1.027284
     33          6           0       25.871589   -2.174744    2.291923
     34          6           0       25.296550   -3.512422    2.168766
     35          6           0       24.887794   -3.586779    0.825081
     36          6           0       25.248017   -2.379972    0.169046
     37          6           0       25.138398   -4.482838    3.245471
     38          6           0       24.240393   -4.494126   -0.116882
     39          8           0       23.741053   -5.589394    0.079410
     40          6           0       24.328377   -3.773090   -1.567715
     41          6           0       22.851283   -3.820729   -1.965982
     42          8           0       21.905677   -3.153310   -1.509358
     43          8           0       22.686229   -4.767304   -2.873478
     44          6           0       21.379951   -4.836332   -3.646004
     45          1           0       26.883007    2.506994   -3.479859
     46          1           0       28.642538    3.720248    2.748152
     47          1           0       26.411119   -2.025756    4.344558
     48          1           0       25.698043   -2.297261   -4.038258
     49          1           0       25.523350    0.675954   -4.639377
     50          1           0       27.578582    0.195204   -5.756591
     51          1           0       27.672801   -1.394245   -4.898627
     52          1           0       28.354264    0.037968   -4.349355
     53          1           0       23.878027   -0.342004   -4.817811
     54          1           0       23.107537   -1.239970   -3.459264
     55          1           0       23.835469   -3.219448   -5.380265
     56          1           0       24.102490   -1.732960   -6.221439
     57          1           0       27.707411    4.391404   -3.421899
     58          1           0       29.141427    5.070656   -2.672361
     59          1           0       27.625555    5.860396   -2.561018
     60          1           0       27.891333    7.270391   -0.724482
     61          1           0       29.565496    6.558417   -0.982526
     62          1           0       29.360424    7.646448    0.358248
     63          1           0       28.323482    2.430881    4.829617
     64          1           0       28.412944   -0.708086    4.899418
     65          1           0       30.575786    2.288128    4.771746
     66          1           0       30.608284    1.261152    3.324593
     67          1           0       30.276373    0.517893    4.842306
     68          1           0       27.356407    0.672093    6.818903
     69          1           0       26.398170   -0.577190    6.201759
     70          1           0       25.530153    1.657221    4.578676
     71          1           0       25.513668    2.033092    6.288190
     72          1           0       24.611112    0.647006    5.512343
     73          1           0       24.692104   -5.432250    2.948908
     74          1           0       24.509689   -3.983925    3.982869
     75          1           0       26.121193   -4.638381    3.692723
     76          1           0       24.825308   -4.396790   -2.310767
     77          1           0       21.589585   -5.449650   -4.522635
     78          1           0       21.066409   -3.868690   -4.036568
     79          1           0       20.543765   -5.209985   -3.053867
     80         12           0      -26.634399   -0.046662    0.129681
     81          6           0      -23.754616    1.472911   -0.980101
     82          6           0      -25.025795   -3.043407    0.528828
     83          6           0      -29.530940   -1.517334    1.440628
     84          6           0      -28.114988    3.040616    0.579992
     85          7           0      -24.537204   -0.578500   -0.012470
     86          6           0      -23.516420    0.122910   -0.659860
     87          6           0      -22.211079   -0.676524   -0.676096
     88          6           0      -22.773246   -2.085600   -0.359095
     89          6           0      -24.208256   -1.915376    0.180255
     90          6           0      -22.618912   -3.077781   -1.532485
     91          6           0      -21.196241   -0.158543    0.362249
     92          6           0      -19.699105   -0.070813   -0.094511
     93          1           0      -18.682089   -0.283234    0.957859
     94          7           0      -27.183809   -1.980363    0.809128
     95          6           0      -26.415679   -3.093824    0.810734
     96          6           0      -27.164212   -4.288810    1.061962
     97          6           0      -28.506981   -3.899742    1.197652
     98          6           0      -28.468301   -2.380519    1.124209
     99          6           0      -26.581691   -5.702370    1.002446
    100          6           0      -29.745307   -4.835195    1.446099
    101          8           0      -29.540112   -6.062865    1.626162
    102          6           0      -31.253005   -4.334844    1.399994
    103          7           0      -28.445037    0.687921    1.182661
    104          6           0      -29.505285   -0.105279    1.471479
    105          6           0      -30.750196    0.676183    1.804733
    106          6           0      -30.313480    2.140787    1.585654
    107          6           0      -28.891071    1.966780    1.047267
    108          6           0      -32.028482    0.236823    1.016450
    109          6           0      -30.487618    3.055472    2.890144
    110          6           0      -31.674535    4.024427    2.838321
    111          7           0      -26.111314    1.876095   -0.183493
    112          6           0      -26.814109    3.086229    0.006812
    113          6           0      -26.068633    4.183268   -0.624307
    114          6           0      -24.914331    3.560122   -1.077758
    115          6           0      -24.959563    2.217356   -0.668099
    116          6           0      -26.404801    5.626567   -0.744803
    117          6           0      -23.637426    3.806451   -1.762830
    118          8           0      -23.226938    4.774061   -2.424556
    119          6           0      -22.842319    2.439604   -1.768066
    120          6           0      -22.577621    1.956840   -3.187847
    121          8           0      -23.371388    1.923379   -4.133469
    122          8           0      -21.250927    1.643500   -3.174169
    123          6           0      -20.649693    1.310316   -4.454655
    124          1           0      -24.525646   -4.005846    0.654662
    125          1           0      -30.513450   -1.863517    1.768342
    126          1           0      -28.528617    4.045548    0.685512
    127          1           0      -21.746574   -0.597040   -1.659520
    128          1           0      -22.129391   -2.433906    0.448456
    129          1           0      -21.874318   -2.884810   -2.304752
    130          1           0      -23.568878   -3.046382   -2.065827
    131          1           0      -22.413999   -4.091907   -1.190272
    132          1           0      -21.248680   -0.694546    1.309515
    133          1           0      -21.587676    0.809707    0.675220
    134          1           0      -19.524229    0.906050   -0.545269
    135          1           0      -19.514225   -0.863450   -0.820872
    136          1           0      -27.180633   -6.233406    0.262947
    137          1           0      -26.474471   -6.098355    2.012371
    138          1           0      -25.597320   -5.568973    0.553847
    139          1           0      -31.469916   -3.942845    2.392976
    140          1           0      -31.859225   -5.220174    1.209615
    141          1           0      -31.341792   -3.719180    0.504501
    142          1           0      -30.975017    0.513455    2.858887
    143          1           0      -30.760722    2.658383    0.737347
    144          1           0      -32.574143    1.095642    0.626540
    145          1           0      -32.719415   -0.343512    1.627671
    146          1           0      -31.738518   -0.458777    0.230028
    147          1           0      -29.632385    3.710208    3.056966
    148          1           0      -30.524316    2.429911    3.781944
    149          1           0      -32.147480    4.078119    3.819062
    150          1           0      -32.404308    3.673024    2.109224
    151          1           0      -31.405572    5.037939    2.541312
    152          1           0      -27.414843    5.758838   -0.356908
    153          1           0      -26.143244    5.987630   -1.739647
    154          1           0      -25.780844    6.138987   -0.011759
    155          1           0      -21.907618    2.500246   -1.209976
    156          1           0      -21.252316    0.635656   -5.064078
    157          1           0      -19.643162    0.892437   -4.436331
    158          1           0      -20.506253    2.219199   -5.039560
 ---------------------------------------------------------------------

 SCF Done:  E(RCAM-B3LYP) =  -4069.81280929     A.U. after   19 cycles

 Excitation energies and oscillator strengths:

 Excited State   1:      Singlet-A      1.6510 eV  750.98 nm  f=0.3666  <S**2>=0.000
     310 -> 315        0.18398
     312 -> 313        0.68517
     310 <- 315        0.11254
 This state for optimization and/or second-order correction.
 Total Energy, E(TD-HF/TD-DFT) =  -4069.75213711
 Copying the excited state density for this state as the 1-particle RhoCI density.

 Excited State   2:      Singlet-A      1.7088 eV  725.55 nm  f=0.3651  <S**2>=0.000
     309 -> 316        0.17446
     311 -> 314        0.68609
     309 <- 316        0.10518

 Excited State   3:      Singlet-A      2.2173 eV  559.17 nm  f=0.0913  <S**2>=0.000
     310 -> 313        0.62570
     312 -> 315       -0.32048

 Excited State   4:      Singlet-A      2.2476 eV  551.64 nm  f=0.0932  <S**2>=0.000
     309 -> 314        0.62548
     311 -> 316       -0.31550

 Excited State   5:      Singlet-A      3.1927 eV  388.34 nm  f=0.0000  <S**2>=0.000
     312 -> 314        0.70711

 The electronic state is 1-A.
 Alpha  occ. eigenvalues --  -46.89168 -46.88288 -19.26355 -19.24935 -19.20258
 Alpha  occ. eigenvalues --  -19.19679 -19.19510 -19.19359 -19.18440 -19.17995
 Alpha  occ. eigenvalues --  -14.42454 -14.42401 -14.42167 -14.41545 -14.40222
 Alpha  occ. eigenvalues --  -14.40098 -14.39673 -14.39103 -10.39949 -10.38459
 Alpha  occ. eigenvalues --  -10.36671 -10.35585 -10.35386 -10.34746 -10.32199
 Alpha  occ. eigenvalues --  -10.32193 -10.32043 -10.31587 -10.31398 -10.31365
 Alpha  occ. eigenvalues --  -10.31233 -10.31179 -10.31087 -10.31082 -10.31034
 Alpha  occ. eigenvalues --  -10.30623 -10.30474 -10.30394 -10.29996 -10.29907
 Alpha  occ. eigenvalues --  -10.29669 -10.28863 -10.28804 -10.28771 -10.28736
 Alpha  occ. eigenvalues --  -10.28592 -10.28487 -10.28472 -10.28409 -10.28406
 Alpha  occ. eigenvalues --  -10.28362 -10.28353 -10.28344 -10.28283 -10.28153
 Alpha  occ. eigenvalues --  -10.28133 -10.28015 -10.28009 -10.27965 -10.27907
 Alpha  occ. eigenvalues --  -10.27737 -10.27704 -10.27605 -10.27527 -10.27466
 Alpha  occ. eigenvalues --  -10.27289 -10.27280 -10.26983 -10.26909 -10.26884
 Alpha  occ. eigenvalues --  -10.26828 -10.26731 -10.26610 -10.26562 -10.26274
 Alpha  occ. eigenvalues --  -10.26217 -10.26090 -10.26065 -10.26047 -10.26013
 Alpha  occ. eigenvalues --  -10.25967 -10.25758 -10.25704 -10.25415 -10.25396
 Alpha  occ. eigenvalues --  -10.24581  -3.17701  -3.16979  -1.92567  -1.92143
 Alpha  occ. eigenvalues --   -1.92031  -1.91864  -1.91451  -1.91284  -1.16830
 Alpha  occ. eigenvalues --   -1.15937  -1.11448  -1.10030  -1.08612  -1.08353
 Alpha  occ. eigenvalues --   -1.07746  -1.05279  -1.04669  -1.03998  -1.03784
 Alpha  occ. eigenvalues --   -1.03514  -1.03121  -1.02211  -1.02144  -1.01697
 Alpha  occ. eigenvalues --   -0.91413  -0.90858  -0.89249  -0.88871  -0.88831
 Alpha  occ. eigenvalues --   -0.88744  -0.88687  -0.87991  -0.87349  -0.87273
 Alpha  occ. eigenvalues --   -0.86981  -0.86949  -0.86443  -0.86386  -0.84307
 Alpha  occ. eigenvalues --   -0.84115  -0.83890  -0.83577  -0.82501  -0.82360
 Alpha  occ. eigenvalues --   -0.81632  -0.81502  -0.81115  -0.81024  -0.80184
 Alpha  occ. eigenvalues --   -0.80161  -0.78129  -0.77932  -0.77471  -0.77299
 Alpha  occ. eigenvalues --   -0.76950  -0.76738  -0.75973  -0.75882  -0.75287
 Alpha  occ. eigenvalues --   -0.75120  -0.72700  -0.72589  -0.71718  -0.71642
 Alpha  occ. eigenvalues --   -0.70062  -0.69191  -0.68962  -0.68746  -0.67878
 Alpha  occ. eigenvalues --   -0.67531  -0.67245  -0.66272  -0.66124  -0.65475
 Alpha  occ. eigenvalues --   -0.65114  -0.65071  -0.64986  -0.64564  -0.64550
 Alpha  occ. eigenvalues --   -0.64052  -0.62680  -0.61773  -0.59940  -0.59589
 Alpha  occ. eigenvalues --   -0.59589  -0.59273  -0.58935  -0.58916  -0.58600
 Alpha  occ. eigenvalues --   -0.57722  -0.57699  -0.57358  -0.57228  -0.56235
 Alpha  occ. eigenvalues --   -0.55960  -0.55751  -0.55638  -0.55485  -0.55338
 Alpha  occ. eigenvalues --   -0.55020  -0.55010  -0.54661  -0.53960  -0.53760
 Alpha  occ. eigenvalues --   -0.53363  -0.53326  -0.53209  -0.53133  -0.52889
 Alpha  occ. eigenvalues --   -0.52789  -0.52714  -0.52591  -0.52421  -0.52114
 Alpha  occ. eigenvalues --   -0.52008  -0.51579  -0.51514  -0.51349  -0.51174
 Alpha  occ. eigenvalues --   -0.51092  -0.50961  -0.50888  -0.50864  -0.50107
 Alpha  occ. eigenvalues --   -0.49937  -0.49794  -0.49601  -0.49456  -0.49322
 Alpha  occ. eigenvalues --   -0.49283  -0.49222  -0.49049  -0.48947  -0.48648
 Alpha  occ. eigenvalues --   -0.48504  -0.48433  -0.48260  -0.48139  -0.48127
 Alpha  occ. eigenvalues --   -0.47839  -0.47677  -0.47517  -0.47469  -0.47446
 Alpha  occ. eigenvalues --   -0.47173  -0.46856  -0.46720  -0.46649  -0.46570
 Alpha  occ. eigenvalues --   -0.46379  -0.46335  -0.46179  -0.45998  -0.45825
 Alpha  occ. eigenvalues --   -0.45562  -0.45497  -0.45245  -0.45233  -0.44906
 Alpha  occ. eigenvalues --   -0.44767  -0.44426  -0.44407  -0.44155  -0.44113
 Alpha  occ. eigenvalues --   -0.43962  -0.43784  -0.43763  -0.43636  -0.43524
 Alpha  occ. eigenvalues --   -0.43474  -0.43273  -0.43151  -0.42985  -0.42962
 Alpha  occ. eigenvalues --   -0.42937  -0.42492  -0.42465  -0.42447  -0.42141
 Alpha  occ. eigenvalues --   -0.42113  -0.41951  -0.41809  -0.41572  -0.41403
 Alpha  occ. eigenvalues --   -0.41142  -0.40906  -0.40791  -0.40598  -0.40361
 Alpha  occ. eigenvalues --   -0.40182  -0.39708  -0.39575  -0.39354  -0.39195
 Alpha  occ. eigenvalues --   -0.38672  -0.38628  -0.38377  -0.38148  -0.38043
 Alpha  occ. eigenvalues --   -0.37515  -0.37374  -0.36846  -0.36617  -0.36409
 Alpha  occ. eigenvalues --   -0.36051  -0.35631  -0.34863  -0.34788  -0.33900
 Alpha  occ. eigenvalues --   -0.33121  -0.33026  -0.32722  -0.31576  -0.31434
 Alpha  occ. eigenvalues --   -0.31192  -0.30980  -0.30793  -0.30487  -0.30446
 Alpha  occ. eigenvalues --   -0.30350  -0.29976  -0.29829  -0.24193  -0.24102
 Alpha  occ. eigenvalues --   -0.21076  -0.20951
 Alpha virt. eigenvalues --   -0.08694  -0.08575  -0.02027  -0.02016   0.00178
 Alpha virt. eigenvalues --    0.00661   0.01644   0.01985   0.02397   0.03417
 Alpha virt. eigenvalues --    0.04994   0.05054   0.05161   0.05272   0.06294

 Mulliken charges:
               1
     1  Mg  12.000690
     2  C    5.977872
     3  C    6.023487
     4  C    6.028344
     5  C    5.992608
     6  N    6.990769
     7  C    6.029307
     8  C    5.995185
     9  C    6.006231
    10  C    5.966844
    11  C    6.002559
    12  C    5.994233
    13  C    5.998058
    14  H    1.000593
    15  N    7.009849
    16  C    5.948228
    17  C    5.985542
    18  C    5.981404
    19  C    5.956297
    20  C    6.006972
    21  C    5.987778
    22  O    7.973495
    23  C    6.003663
    24  N    7.012239
    25  C    5.957535
    26  C    6.007216
    27  C    5.995856
    28  C    6.033722
    29  C    6.005420
    30  C    5.994457
    31  C    5.993062
    32  N    6.994285
    33  C    6.040994
    34  C    6.028489
    35  C    6.004163
    36  C    6.036175
    37  C    5.997903
    38  C    6.014448
    39  O    8.028225
    40  C    6.002937
    41  C    6.003525
    42  O    8.004954
    43  O    8.000120
    44  C    5.997595
    45  H    0.989777
    46  H    0.993880
    47  H    1.012730
    48  H    0.996372
    49  H    1.001213
    50  H    0.997118
    51  H    0.987012
    52  H    1.002359
    53  H    1.009732
    54  H    0.996324
    55  H    0.996652
    56  H    1.005877
    57  H    0.981588
    58  H    0.979347
    59  H    0.980437
    60  H    0.992263
    61  H    0.995021
    62  H    0.985524
    63  H    1.002496
    64  H    0.997555
    65  H    1.000081
    66  H    1.001223
    67  H    0.986109
    68  H    1.010555
    69  H    0.995895
    70  H    1.011764
    71  H    1.008732
    72  H    0.995793
    73  H    1.015449
    74  H    1.018650
    75  H    1.018757
    76  H    1.008846
    77  H    1.004624
    78  H    1.005311
    79  H    1.001606
    80  Mg  12.000013
    81  C    5.999980
    82  C    6.000021
    83  C    6.000043
    84  C    6.000015
    85  N    6.999957
    86  C    6.000045
    87  C    5.999990
    88  C    6.000020
    89  C    5.999934
    90  C    6.000022
    91  C    6.000009
    92  C    6.000008
    93  H    0.999960
    94  N    6.999988
    95  C    5.999874
    96  C    5.999943
    97  C    5.999950
    98  C    5.999889
    99  C    6.000026
   100  C    5.999967
   101  O    7.999928
   102  C    6.000000
   103  N    7.000031
   104  C    5.999930
   105  C    6.000028
   106  C    5.999981
   107  C    6.000066
   108  C    6.000001
   109  C    5.999981
   110  C    5.999990
   111  N    7.000010
   112  C    6.000139
   113  C    6.000068
   114  C    6.000026
   115  C    6.000070
   116  C    5.999971
   117  C    6.000057
   118  O    8.000114
   119  C    5.999985
   120  C    6.000024
   121  O    8.000015
   122  O    7.999996
   123  C    5.999989
   124  H    0.999934
   125  H    1.000002
   126  H    1.000059
   127  H    0.999989
   128  H    0.999951
   129  H    0.999939
   130  H    1.000011
   131  H    0.999970
   132  H    1.000011
   133  H    0.999992
   134  H    1.000004
   135  H    0.999993
   136  H    0.999948
   137  H    0.999922
   138  H    0.999932
   139  H    0.999970
   140  H    0.999971
   141  H    0.999983
   142  H    0.999995
   143  H    1.000003
   144  H    0.999987
   145  H    1.000010
   146  H    1.000008
   147  H    0.999992
   148  H    1.000036
   149  H    1.000028
   150  H    1.000027
   151  H    1.000012
   152  H    1.000068
   153  H    1.000074
   154  H    1.000077
   155  H    1.000013
   156  H    1.000014
   157  H    0.999991
   158  H    1.000025
 Sum of Mulliken charges = 624.00000

 Dipole moment (field-independent basis, Debye):
    X=             -3.8537    Y=             -9.5574    Z=              3.3056  Tot=             10.8223
 Quadrupole moment (field-independent basis, Debye-Ang):
   XX=           -203.8414   YY=             -7.8430   ZZ=              4.7905
   XY=           -256.4476   XZ=             87.5772   YZ=             -2.9861

 Normal termination of Gaussian 16 at Wed Sep 22 12:36:47 2021.
