 Gaussian 16, Revision A.03,
 Gaussian 16:  ES64L-G16RevA.03 25-Dec-2016

 ----------------------------------------------------------
 #p cam-b3lyp/Def2SVP td=(nstates=5) density=(transition=1)
 ----------------------------------------------------------

 --------------------------------
 TDDFT excited states in gaussian
 --------------------------------
 Symbolic Z-matrix:
 Charge =  0 Multiplicity = 1

                         Standard orientation:
 ---------------------------------------------------------------------
 Center     Atomic      Atomic             Coordinates (Angstroms)
 Number     Number       Type             X           Y           Z
 ---------------------------------------------------------------------
      1         12           0       20.214783    0.286664    0.491108
      2          6           0       17.834183   -1.465561   -1.379215
      3          6           0       21.163726    1.913169   -2.196592
      4          6           0       22.989224    1.390982    2.190153
      5          6           0       19.544285   -1.817891    3.245522
      6          7           0       19.480739    0.266832   -1.484270
      7          6           0       18.465371   -0.454721   -2.072583
      8          6           0       18.166165    0.036727   -3.482960
      9          6           0       19.401488    0.951266   -3.763542
     10          6           0       19.986175    1.140986   -2.407251
     11          6           0       20.390653    0.564287   -4.841650
     12          6           0       16.765107    0.703667   -3.663145
     13          6           0       16.445403    1.176132   -5.085585
     14          1           0       15.123701    0.696224   -5.667212
     15          7           0       21.965668    1.499498    0.006494
     16          6           0       22.068314    2.194603   -1.145466
     17          6           0       23.206784    3.067683   -1.070794
     18          6           0       23.816905    2.842174    0.175168
     19          6           0       22.919428    1.861101    0.843667
     20          6           0       23.645819    3.980050   -2.196585
     21          6           0       25.014087    3.494018    0.785755
     22          8           0       25.591958    3.143322    1.849209
     23          6           0       25.624519    4.731235    0.138730
     24          7           0       21.126556   -0.170090    2.392317
     25          6           0       22.292375    0.371745    2.815313
     26          6           0       22.544253   -0.025891    4.368300
     27          6           0       21.167021   -0.663052    4.767355
     28          6           0       20.516869   -0.850744    3.434221
     29          6           0       23.786132   -0.996640    4.456135
     30          6           0       20.284057    0.366846    5.562465
     31          6           0       20.050758    1.752777    4.981497
     32          7           0       18.880928   -1.331952    0.933217
     33          6           0       18.758707   -2.043409    2.095097
     34          6           0       17.753232   -2.980384    1.894160
     35          6           0       17.317149   -2.869500    0.542476
     36          6           0       18.040384   -1.843890   -0.007311
     37          6           0       17.252793   -4.030634    2.821989
     38          6           0       16.434810   -3.383109   -0.529750
     39          8           0       15.639388   -4.313346   -0.595419
     40          6           0       16.678108   -2.402308   -1.803861
     41          6           0       16.837848   -3.196614   -3.050994
     42          8           0       17.413038   -4.323092   -3.122716
     43          8           0       16.127522   -2.586845   -3.990361
     44          6           0       15.786338   -3.433929   -5.117178
     45          1           0       21.445385    2.563827   -3.027261
     46          1           0       23.847059    1.759800    2.757498
     47          1           0       19.276557   -2.359706    4.153974
     48          1           0       18.099963   -0.878533   -4.071500
     49          1           0       19.122562    1.962828   -4.060569
     50          1           0       20.046262   -0.145317   -5.593926
     51          1           0       21.301756    0.192919   -4.371758
     52          1           0       20.799454    1.491882   -5.242827
     53          1           0       16.661200    1.531929   -2.961756
     54          1           0       15.994486   -0.005650   -3.363067
     55          1           0       17.033458    0.633141   -5.825273
     56          1           0       16.571167    2.254885   -5.182771
     57          1           0       23.107138    3.842892   -3.134119
     58          1           0       24.650082    3.807603   -2.582879
     59          1           0       23.580940    5.039580   -1.947113
     60          1           0       26.084410    4.423524   -0.799963
     61          1           0       26.521252    5.064293    0.660774
     62          1           0       24.929786    5.569181    0.070894
     63          1           0       22.802735    0.867775    4.936343
     64          1           0       21.424011   -1.615591    5.230694
     65          1           0       24.379641   -1.027795    3.542250
     66          1           0       23.525997   -2.037568    4.648918
     67          1           0       24.519564   -0.699228    5.204240
     68          1           0       20.867655    0.412532    6.481993
     69          1           0       19.290679    0.005966    5.827334
     70          1           0       20.723876    1.925453    4.141463
     71          1           0       20.062394    2.582946    5.686908
     72          1           0       19.001631    1.706936    4.689276
     73          1           0       16.929501   -3.655186    3.793201
     74          1           0       18.110545   -4.678475    3.000395
     75          1           0       16.460190   -4.635009    2.382037
     76          1           0       15.745096   -1.844231   -1.877843
     77          1           0       14.746141   -3.273353   -5.403310
     78          1           0       15.864215   -4.508687   -4.954819
     79          1           0       16.434838   -3.116900   -5.934556
     80         12           0      -20.076333   -0.600712   -0.447203
     81          6           0      -19.794746    2.908413   -0.635153
     82          6           0      -16.699546   -0.720920   -0.011288
     83          6           0      -20.434315   -3.868825    0.487001
     84          6           0      -23.604045   -0.097817   -0.398658
     85          7           0      -18.427297    0.966980   -0.192567
     86          6           0      -18.477113    2.306891   -0.450652
     87          6           0      -17.128367    3.000794   -0.193228
     88          6           0      -16.197602    1.705036   -0.386125
     89          6           0      -17.168469    0.567787   -0.186932
     90          6           0      -15.471024    1.594901   -1.753415
     91          6           0      -16.966924    3.616296    1.269123
     92          6           0      -15.978914    4.752409    1.484040
     93          1           0      -14.676455    4.567606    2.291488
     94          7           0      -18.762944   -2.196442    0.146302
     95          6           0      -17.408622   -2.032067    0.114479
     96          6           0      -16.750411   -3.253435    0.267891
     97          6           0      -17.807060   -4.232152    0.393532
     98          6           0      -19.090670   -3.475087    0.381372
     99          6           0      -15.238054   -3.440893    0.261254
    100          6           0      -17.531990   -5.711927    0.537304
    101          8           0      -16.343661   -6.124937    0.540726
    102          6           0      -18.655584   -6.806871    0.574122
    103          7           0      -21.772631   -1.735928   -0.042949
    104          6           0      -21.657469   -3.110635    0.298714
    105          6           0      -22.997331   -3.782231    0.180271
    106          6           0      -24.014649   -2.622508    0.246368
    107          6           0      -23.127862   -1.409840   -0.160936
    108          6           0      -23.333153   -4.612407   -1.079261
    109          6           0      -24.601784   -2.403185    1.738767
    110          6           0      -25.777470   -3.256918    2.189487
    111          7           0      -21.413037    1.068992   -0.691888
    112          6           0      -22.798738    1.113689   -0.659382
    113          6           0      -23.270708    2.408831   -0.760472
    114          6           0      -22.103676    3.190242   -0.811910
    115          6           0      -21.001924    2.321070   -0.741495
    116          6           0      -24.713998    2.801380   -0.796694
    117          6           0      -21.634383    4.460051   -1.001051
    118          8           0      -22.229982    5.482468   -1.278037
    119          6           0      -20.138619    4.355727   -0.636045
    120          6           0      -20.017481    5.042101    0.691734
    121          8           0      -20.624025    4.722684    1.666491
    122          8           0      -19.161380    6.140165    0.590798
    123          6           0      -19.144305    6.921878    1.778067
    124          1           0      -15.614493   -0.827440   -0.076460
    125          1           0      -20.605052   -4.943756    0.580476
    126          1           0      -24.687827   -0.039399   -0.517025
    127          1           0      -16.847896    3.678665   -0.998717
    128          1           0      -15.414046    1.776826    0.367676
    129          1           0      -14.475336    1.973257   -1.520302
    130          1           0      -15.914976    2.240544   -2.511050
    131          1           0      -15.390545    0.558933   -2.083058
    132          1           0      -16.624018    2.852073    1.966669
    133          1           0      -17.970975    3.877025    1.604496
    134          1           0      -16.576743    5.530723    1.960522
    135          1           0      -15.705965    5.130263    0.498866
    136          1           0      -14.806308   -4.335182   -0.189378
    137          1           0      -15.069359   -3.337223    1.332866
    138          1           0      -14.770996   -2.666776   -0.347635
    139          1           0      -19.202515   -6.796279   -0.368281
    140          1           0      -19.243680   -6.503165    1.439929
    141          1           0      -18.336913   -7.814048    0.842389
    142          1           0      -23.116482   -4.384485    1.080349
    143          1           0      -24.850274   -2.765282   -0.438891
    144          1           0      -24.112723   -4.194169   -1.715768
    145          1           0      -23.275725   -5.682025   -0.876400
    146          1           0      -22.451000   -4.493153   -1.708095
    147          1           0      -24.878678   -1.351098    1.674450
    148          1           0      -23.817362   -2.526659    2.485690
    149          1           0      -25.531293   -3.729815    3.139823
    150          1           0      -25.968797   -4.027451    1.442128
    151          1           0      -26.663382   -2.648370    2.372792
    152          1           0      -24.824847    3.597215   -0.060745
    153          1           0      -25.376607    1.999103   -0.469690
    154          1           0      -25.024272    3.188366   -1.767451
    155          1           0      -19.569503    4.891882   -1.394701
    156          1           0      -19.882936    7.719287    1.701138
    157          1           0      -18.229176    7.501868    1.903366
    158          1           0      -19.357081    6.331540    2.667683
 ---------------------------------------------------------------------

 SCF Done:  E(RCAM-B3LYP) =  -4069.79539959     A.U. after   19 cycles

 Excitation energies and oscillator strengths:

 Excited State   1:      Singlet-A      1.7066 eV  726.49 nm  f=0.3822  <S**2>=0.000
     309 -> 315       -0.18453
     311 -> 313        0.67939
     309 <- 315       -0.10772
 This state for optimization and/or second-order correction.
 Total Energy, E(TD-HF/TD-DFT) =  -4069.73268283
 Copying the excited state density for this state as the 1-particle RhoCI density.

 Excited State   2:      Singlet-A      1.7145 eV  723.16 nm  f=0.4130  <S**2>=0.000
     310 -> 316       -0.16524
     312 -> 314        0.68598
     310 <- 316       -0.10265

 Excited State   3:      Singlet-A      2.1434 eV  578.46 nm  f=0.1389  <S**2>=0.000
     309 -> 313        0.64886
     311 -> 315        0.25958

 Excited State   4:      Singlet-A      2.1453 eV  577.93 nm  f=0.1608  <S**2>=0.000
     310 -> 314        0.66189
     312 -> 316        0.22629

 Excited State   5:      Singlet-A      3.0824 eV  402.23 nm  f=0.0000  <S**2>=0.000
     312 -> 313        0.70710

 The electronic state is 1-A.
 Alpha  occ. eigenvalues --  -46.90322 -46.89396 -19.26676 -19.25405 -19.20935
 Alpha  occ. eigenvalues --  -19.19126 -19.19064 -19.18468 -19.18104 -19.17889
 Alpha  occ. eigenvalues --  -14.43185 -14.42918 -14.42679 -14.41840 -14.39829
 Alpha  occ. eigenvalues --  -14.39778 -14.39215 -14.38040 -10.39711 -10.39254
 Alpha  occ. eigenvalues --  -10.35773 -10.35030 -10.34841 -10.33366 -10.32410
 Alpha  occ. eigenvalues --  -10.32335 -10.32134 -10.32034 -10.31644 -10.31105
 Alpha  occ. eigenvalues --  -10.31031 -10.31002 -10.30949 -10.30798 -10.30725
 Alpha  occ. eigenvalues --  -10.30643 -10.30236 -10.30112 -10.29955 -10.29780
 Alpha  occ. eigenvalues --  -10.29270 -10.29244 -10.29110 -10.28541 -10.28333
 Alpha  occ. eigenvalues --  -10.28328 -10.28321 -10.28312 -10.28265 -10.28233
 Alpha  occ. eigenvalues --  -10.28218 -10.28188 -10.28070 -10.28062 -10.27966
 Alpha  occ. eigenvalues --  -10.27898 -10.27880 -10.27872 -10.27848 -10.27805
 Alpha  occ. eigenvalues --  -10.27780 -10.27719 -10.27676 -10.27558 -10.27462
 Alpha  occ. eigenvalues --  -10.27419 -10.27349 -10.27087 -10.26600 -10.26517
 Alpha  occ. eigenvalues --  -10.26501 -10.26499 -10.26495 -10.26488 -10.26487
 Alpha  occ. eigenvalues --  -10.26370 -10.26161 -10.26142 -10.26093 -10.25847
 Alpha  occ. eigenvalues --  -10.25682 -10.25668 -10.25433 -10.24901 -10.24289
 Alpha  occ. eigenvalues --  -10.24175  -3.18614  -3.17784  -1.93512  -1.93062
 Alpha  occ. eigenvalues --   -1.92911  -1.92693  -1.92209  -1.92099  -1.18113
 Alpha  occ. eigenvalues --   -1.17653  -1.10058  -1.09519  -1.08811  -1.08387
 Alpha  occ. eigenvalues --   -1.07325  -1.05936  -1.05766  -1.05428  -1.04659
 Alpha  occ. eigenvalues --   -1.04378  -1.03931  -1.03354  -1.02475  -1.01925
 Alpha  occ. eigenvalues --   -0.94352  -0.91871  -0.89616  -0.89300  -0.88977
 Alpha  occ. eigenvalues --   -0.88733  -0.88691  -0.88421  -0.88003  -0.87576
 Alpha  occ. eigenvalues --   -0.87155  -0.87112  -0.85920  -0.85697  -0.84820
 Alpha  occ. eigenvalues --   -0.84397  -0.83779  -0.83648  -0.82928  -0.82926
 Alpha  occ. eigenvalues --   -0.81900  -0.81875  -0.81352  -0.80703  -0.80687
 Alpha  occ. eigenvalues --   -0.80360  -0.78899  -0.78084  -0.77602  -0.77401
 Alpha  occ. eigenvalues --   -0.77374  -0.76960  -0.76141  -0.75981  -0.75704
 Alpha  occ. eigenvalues --   -0.75251  -0.73624  -0.72766  -0.72268  -0.71765
 Alpha  occ. eigenvalues --   -0.69927  -0.69500  -0.69197  -0.68490  -0.68448
 Alpha  occ. eigenvalues --   -0.68368  -0.67700  -0.67177  -0.66325  -0.65548
 Alpha  occ. eigenvalues --   -0.65378  -0.65218  -0.64762  -0.64694  -0.64579
 Alpha  occ. eigenvalues --   -0.64234  -0.62829  -0.62756  -0.61034  -0.60539
 Alpha  occ. eigenvalues --   -0.60166  -0.59795  -0.59627  -0.59264  -0.59200
 Alpha  occ. eigenvalues --   -0.59039  -0.58550  -0.58075  -0.57628  -0.57244
 Alpha  occ. eigenvalues --   -0.56517  -0.56225  -0.56051  -0.55817  -0.55799
 Alpha  occ. eigenvalues --   -0.55480  -0.55335  -0.55327  -0.55094  -0.54413
 Alpha  occ. eigenvalues --   -0.53860  -0.53566  -0.53291  -0.53211  -0.53156
 Alpha  occ. eigenvalues --   -0.52944  -0.52808  -0.52618  -0.52552  -0.52289
 Alpha  occ. eigenvalues --   -0.51845  -0.51734  -0.51592  -0.51458  -0.51233
 Alpha  occ. eigenvalues --   -0.50994  -0.50832  -0.50618  -0.50581  -0.50467
 Alpha  occ. eigenvalues --   -0.50164  -0.50129  -0.49844  -0.49758  -0.49542
 Alpha  occ. eigenvalues --   -0.49365  -0.49124  -0.49009  -0.48871  -0.48827
 Alpha  occ. eigenvalues --   -0.48596  -0.48506  -0.48447  -0.48375  -0.48120
 Alpha  occ. eigenvalues --   -0.47954  -0.47359  -0.47257  -0.47239  -0.47217
 Alpha  occ. eigenvalues --   -0.47020  -0.46782  -0.46613  -0.46511  -0.46410
 Alpha  occ. eigenvalues --   -0.46400  -0.46359  -0.46034  -0.45977  -0.45871
 Alpha  occ. eigenvalues --   -0.45795  -0.45459  -0.45297  -0.45197  -0.45090
 Alpha  occ. eigenvalues --   -0.44748  -0.44731  -0.44607  -0.44472  -0.44299
 Alpha  occ. eigenvalues --   -0.43878  -0.43862  -0.43781  -0.43742  -0.43435
 Alpha  occ. eigenvalues --   -0.43346  -0.43264  -0.43223  -0.42954  -0.42894
 Alpha  occ. eigenvalues --   -0.42601  -0.42601  -0.42514  -0.42371  -0.42196
 Alpha  occ. eigenvalues --   -0.42089  -0.41785  -0.41560  -0.41455  -0.41334
 Alpha  occ. eigenvalues --   -0.41252  -0.41197  -0.41027  -0.40883  -0.40516
 Alpha  occ. eigenvalues --   -0.40515  -0.40316  -0.39626  -0.39411  -0.39268
 Alpha  occ. eigenvalues --   -0.38687  -0.38500  -0.37914  -0.37817  -0.37655
 Alpha  occ. eigenvalues --   -0.37325  -0.37150  -0.36968  -0.36936  -0.36595
 Alpha  occ. eigenvalues --   -0.36594  -0.36315  -0.35512  -0.35063  -0.34096
 Alpha  occ. eigenvalues --   -0.33967  -0.33420  -0.32922  -0.31967  -0.31454
 Alpha  occ. eigenvalues --   -0.31171  -0.30808  -0.30457  -0.30120  -0.30038
 Alpha  occ. eigenvalues --   -0.29932  -0.29524  -0.28525  -0.24331  -0.24085
 Alpha  occ. eigenvalues --   -0.22045  -0.21788
 Alpha virt. eigenvalues --   -0.09599  -0.09389  -0.02488  -0.01306  -0.00086
 Alpha virt. eigenvalues --   -0.00046   0.01416   0.01778   0.02486   0.02591
 Alpha virt. eigenvalues --    0.04290   0.04426   0.04639   0.05143   0.05495

 Mulliken charges:
               1
     1  Mg  11.999438
     2  C    6.002458
     3  C    5.998923
     4  C    5.997415
     5  C    6.000503
     6  N    7.001604
     7  C    5.996420
     8  C    6.000894
     9  C    5.999078
    10  C    6.003547
    11  C    5.999836
    12  C    6.000279
    13  C    5.999762
    14  H    1.000183
    15  N    6.999041
    16  C    6.004158
    17  C    6.001529
    18  C    6.001977
    19  C    6.003411
    20  C    5.999402
    21  C    6.000964
    22  O    8.003246
    23  C    5.999365
    24  N    6.999262
    25  C    6.002972
    26  C    5.999565
    27  C    6.001189
    28  C    5.997163
    29  C    5.999806
    30  C    6.000994
    31  C    6.000258
    32  N    7.000464
    33  C    5.996615
    34  C    5.997063
    35  C    6.000033
    36  C    5.996347
    37  C    6.000211
    38  C    5.998644
    39  O    7.997384
    40  C    5.999457
    41  C    5.999426
    42  O    7.999857
    43  O    7.999801
    44  C    6.000239
    45  H    1.000994
    46  H    1.000208
    47  H    0.998582
    48  H    1.000182
    49  H    1.000308
    50  H    1.001444
    51  H    0.999981
    52  H    0.999962
    53  H    0.999436
    54  H    1.000637
    55  H    0.999730
    56  H    0.999518
    57  H    1.001707
    58  H    1.001891
    59  H    1.001893
    60  H    1.000727
    61  H    1.001493
    62  H    1.000862
    63  H    0.999858
    64  H    0.999706
    65  H    0.999395
    66  H    1.001021
    67  H    1.000047
    68  H    0.998895
    69  H    1.000190
    70  H    0.998462
    71  H    0.999495
    72  H    1.000471
    73  H    0.997937
    74  H    0.997964
    75  H    0.998384
    76  H    0.999504
    77  H    0.999621
    78  H    0.999889
    79  H    0.999418
    80  Mg  12.000007
    81  C    6.001205
    82  C    5.967337
    83  C    5.986959
    84  C    6.035932
    85  N    6.988034
    86  C    5.967389
    87  C    6.011767
    88  C    5.987616
    89  C    6.040516
    90  C    5.996444
    91  C    6.001935
    92  C    6.002111
    93  H    0.987940
    94  N    6.989819
    95  C    6.050496
    96  C    6.016672
    97  C    6.014569
    98  C    6.041514
    99  C    5.998403
   100  C    6.009633
   101  O    8.025362
   102  C    5.998870
   103  N    7.015216
   104  C    6.029479
   105  C    5.988411
   106  C    6.007772
   107  C    5.956943
   108  C    6.002935
   109  C    6.001639
   110  C    5.999624
   111  N    7.001813
   112  C    5.955884
   113  C    5.978803
   114  C    5.990503
   115  C    5.977816
   116  C    6.003921
   117  C    5.982836
   118  O    7.964490
   119  C    6.005819
   120  C    5.995062
   121  O    7.996422
   122  O    7.996832
   123  C    6.004104
   124  H    1.003545
   125  H    1.011118
   126  H    0.996328
   127  H    0.998362
   128  H    1.001862
   129  H    1.004090
   130  H    1.012442
   131  H    0.992414
   132  H    0.987161
   133  H    1.006331
   134  H    1.001884
   135  H    0.998399
   136  H    1.015026
   137  H    1.017410
   138  H    1.020611
   139  H    1.009915
   140  H    1.008181
   141  H    1.014297
   142  H    1.001924
   143  H    1.000089
   144  H    1.014203
   145  H    1.001098
   146  H    0.997468
   147  H    1.007561
   148  H    0.989347
   149  H    0.995647
   150  H    0.995645
   151  H    1.002536
   152  H    0.984526
   153  H    0.979300
   154  H    0.981398
   155  H    0.988171
   156  H    0.997013
   157  H    0.992600
   158  H    0.995243
 Sum of Mulliken charges = 624.00000

 Dipole moment (field-independent basis, Debye):
    X=              6.2618    Y=             -8.8425    Z=              0.8379  Tot=             10.8675
 Quadrupole moment (field-independent basis, Debye-Ang):
   XX=           -191.6772   YY=              6.6028   ZZ=             -1.8494
   XY=            200.9497   XZ=            -30.5209   YZ=              0.6362

 Normal termination of Gaussian 16 at Wed Sep 22 04:29:26 2021.
