 Gaussian 16, Revision A.03,
 Gaussian 16:  ES64L-G16RevA.03 25-Dec-2016

 -----------------------------------
 #p cam-b3lyp/Def2SVP td=(nstates=5)
 -----------------------------------

 --------------------------------
 TDDFT excited states in gaussian
 --------------------------------
 Symbolic Z-matrix:
 Charge =  0 Multiplicity = 1

                         Standard orientation:
 ---------------------------------------------------------------------
 Center     Atomic      Atomic             Coordinates (Angstroms)
 Number     Number       Type             X           Y           Z
 ---------------------------------------------------------------------
      1         12           0       29.789222    0.472770    0.525065
      2          6           0       30.207226   -2.296349   -1.536652
      3          6           0       27.809796    1.904513   -1.878027
      4          6           0       29.681228    3.283184    2.449679
      5          6           0       32.069277   -1.098316    2.753600
      6          7           0       29.120179   -0.107172   -1.481027
      7          6           0       29.330289   -1.340099   -2.040066
      8          6           0       28.542149   -1.360804   -3.352086
      9          6           0       28.057778    0.062348   -3.564916
     10          6           0       28.318737    0.656192   -2.185342
     11          6           0       28.622816    0.886425   -4.690578
     12          6           0       27.394721   -2.475227   -3.450655
     13          6           0       26.443026   -2.366813   -4.685228
     14          1           0       26.813026   -3.141189   -5.977322
     15          7           0       28.748580    2.260652    0.359639
     16          6           0       28.019186    2.677542   -0.705130
     17          6           0       27.573949    4.012874   -0.402280
     18          6           0       28.127248    4.405288    0.851945
     19          6           0       28.907655    3.329855    1.272370
     20          6           0       26.689584    4.752078   -1.358447
     21          6           0       28.015687    5.811652    1.509483
     22          8           0       28.781573    6.173388    2.384775
     23          6           0       27.087693    6.837538    1.061980
     24          7           0       30.690708    0.960123    2.237123
     25          6           0       30.477764    2.165879    2.904609
     26          6           0       31.235220    2.241089    4.241702
     27          6           0       31.721989    0.761768    4.411621
     28          6           0       31.429336    0.155937    3.048834
     29          6           0       32.180983    3.358289    4.403876
     30          6           0       31.160668   -0.125685    5.655595
     31          6           0       32.124058   -0.716017    6.689634
     32          7           0       31.003102   -1.355468    0.603033
     33          6           0       31.864815   -1.805752    1.563517
     34          6           0       32.421622   -3.066941    1.206389
     35          6           0       31.722849   -3.364191   -0.025609
     36          6           0       30.937159   -2.231517   -0.379030
     37          6           0       33.374987   -3.827549    2.047006
     38          6           0       31.505548   -4.398812   -1.010471
     39          8           0       31.883116   -5.548149   -1.126990
     40          6           0       30.473596   -3.694975   -2.073245
     41          6           0       30.963550   -3.816801   -3.469993
     42          8           0       31.957811   -3.262677   -3.884868
     43          8           0       30.173680   -4.598640   -4.226745
     44          6           0       30.421017   -4.593726   -5.719714
     45          1           0       27.135176    2.343161   -2.616595
     46          1           0       29.634953    4.198081    3.043758
     47          1           0       32.719801   -1.419714    3.569897
     48          1           0       29.342862   -1.620045   -4.044590
     49          1           0       26.991932    0.049216   -3.791363
     50          1           0       29.249615    1.562713   -4.110135
     51          1           0       27.848893    1.365472   -5.290467
     52          1           0       29.317591    0.321017   -5.311998
     53          1           0       26.838454   -2.295016   -2.530524
     54          1           0       27.842969   -3.468087   -3.446727
     55          1           0       26.346696   -1.337987   -5.029852
     56          1           0       25.450143   -2.686264   -4.368657
     57          1           0       26.326472    4.223763   -2.240550
     58          1           0       27.304875    5.555779   -1.761544
     59          1           0       25.849563    5.245917   -0.869592
     60          1           0       27.010240    7.079019    0.002389
     61          1           0       27.156696    7.792048    1.583591
     62          1           0       26.134834    6.446302    1.417870
     63          1           0       30.368817    2.398884    4.884580
     64          1           0       32.796891    0.940950    4.429602
     65          1           0       31.953710    4.090719    5.178940
     66          1           0       32.231035    3.884016    3.449994
     67          1           0       33.191804    3.050396    4.671057
     68          1           0       30.616322   -0.969357    5.231751
     69          1           0       30.415362    0.334915    6.305139
     70          1           0       32.314535   -1.784217    6.582644
     71          1           0       31.913851   -0.438795    7.722232
     72          1           0       33.112725   -0.308096    6.478856
     73          1           0       34.140036   -3.140708    2.408240
     74          1           0       33.798857   -4.687676    1.529418
     75          1           0       32.867567   -4.053819    2.985336
     76          1           0       29.557455   -4.281734   -2.014502
     77          1           0       29.947100   -5.525061   -6.028925
     78          1           0       31.496720   -4.585061   -5.894306
     79          1           0       29.876484   -3.739537   -6.122407
     80         12           0      -30.419289   -0.585640   -0.300168
     81          6           0      -27.827221    1.723523   -0.409665
     82          6           0      -28.420209   -2.619617    1.803442
     83          6           0      -33.152454   -2.194078    0.751920
     84          6           0      -32.479310    1.845690   -1.808019
     85          7           0      -28.417452   -0.269462    0.901818
     86          6           0      -27.494144    0.638094    0.441189
     87          6           0      -26.159572    0.440157    1.088734
     88          6           0      -26.266822   -1.074848    1.584352
     89          6           0      -27.802300   -1.379124    1.468136
     90          6           0      -25.372216   -2.145610    0.778235
     91          6           0      -25.885164    1.588631    2.190164
     92          6           0      -24.489995    1.863032    2.443983
     93          1           0      -24.095041    1.735450    3.930537
     94          7           0      -30.746994   -2.278987    0.925021
     95          6           0      -29.786249   -2.982398    1.704252
     96          6           0      -30.470381   -4.094727    2.341732
     97          6           0      -31.852176   -4.018911    2.041270
     98          6           0      -31.963138   -2.833824    1.125862
     99          6           0      -29.779391   -5.005748    3.286552
    100          6           0      -32.952036   -4.991816    2.640520
    101          8           0      -32.558055   -5.875913    3.399561
    102          6           0      -34.367815   -5.056162    2.077933
    103          7           0      -32.479735   -0.131826   -0.438887
    104          6           0      -33.382002   -1.051991   -0.013363
    105          6           0      -34.945155   -0.551613   -0.207284
    106          6           0      -34.715177    0.657695   -1.235038
    107          6           0      -33.163385    0.830378   -1.217971
    108          6           0      -35.936918   -1.615469   -0.813289
    109          6           0      -35.427094    1.945650   -0.816980
    110          6           0      -36.467082    2.615105   -1.747081
    111          7           0      -30.148616    1.242131   -1.222028
    112          6           0      -31.057086    2.073902   -1.809591
    113          6           0      -30.362218    3.176498   -2.414806
    114          6           0      -29.054056    3.078274   -1.807397
    115          6           0      -29.025491    1.889194   -1.058928
    116          6           0      -30.978247    4.298607   -3.199427
    117          6           0      -27.799683    3.783128   -1.644442
    118          8           0      -27.372635    4.733856   -2.225935
    119          6           0      -26.855028    2.898595   -0.740835
    120          6           0      -25.604004    2.347476   -1.459891
    121          8           0      -25.620257    1.770197   -2.525747
    122          8           0      -24.447171    2.708263   -0.738692
    123          6           0      -23.187247    2.425969   -1.357453
    124          1           0      -27.731805   -3.234003    2.386127
    125          1           0      -34.068493   -2.525088    1.245295
    126          1           0      -33.152011    2.560218   -2.285910
    127          1           0      -25.354660    0.340935    0.359732
    128          1           0      -25.978347   -1.105458    2.635660
    129          1           0      -24.708150   -2.580080    1.525356
    130          1           0      -24.808391   -1.697532   -0.039367
    131          1           0      -26.064197   -2.903952    0.410788
    132          1           0      -26.333529    1.178444    3.094893
    133          1           0      -26.511778    2.394768    1.807635
    134          1           0      -24.316953    2.881894    2.099541
    135          1           0      -23.864999    1.146531    1.911038
    136          1           0      -28.696518   -4.894772    3.233109
    137          1           0      -29.954238   -6.042559    2.998150
    138          1           0      -30.073427   -4.805059    4.317046
    139          1           0      -34.947900   -4.147573    2.242434
    140          1           0      -34.861077   -5.914773    2.534722
    141          1           0      -34.281702   -5.266706    1.011872
    142          1           0      -35.206117   -0.169287    0.779162
    143          1           0      -34.914144    0.417068   -2.279589
    144          1           0      -36.675102   -1.898353   -0.063413
    145          1           0      -35.378562   -2.503924   -1.110653
    146          1           0      -36.416857   -1.140358   -1.669550
    147          1           0      -34.719747    2.707959   -0.491201
    148          1           0      -35.954778    1.885839    0.134762
    149          1           0      -36.194937    3.566627   -2.204665
    150          1           0      -37.314588    2.841450   -1.099637
    151          1           0      -36.753612    1.950629   -2.563121
    152          1           0      -30.172694    4.773315   -3.760187
    153          1           0      -31.233130    5.183929   -2.617748
    154          1           0      -31.850006    4.023060   -3.792314
    155          1           0      -26.530023    3.600674    0.027502
    156          1           0      -22.559547    2.318874   -0.472197
    157          1           0      -22.777890    3.297675   -1.867698
    158          1           0      -23.267632    1.576824   -2.034941
 ---------------------------------------------------------------------

 SCF Done:  E(RCAM-B3LYP) =  -4069.78503324     A.U. after   18 cycles

 Excitation energies and oscillator strengths:

 Excited State   1:      Singlet-A      1.6846 eV  736.00 nm  f=0.3819  <S**2>=0.000
     309 -> 316        0.17409
     311 -> 313        0.68811
     309 <- 316        0.10834
 This state for optimization and/or second-order correction.
 Total Energy, E(TD-HF/TD-DFT) =  -4069.72312649
 Copying the excited state density for this state as the 1-particle RhoCI density.

 Excited State   2:      Singlet-A      1.6981 eV  730.13 nm  f=0.4054  <S**2>=0.000
     310 -> 315       -0.17920
     312 -> 314        0.68573
     310 <- 315       -0.10835

 Excited State   3:      Singlet-A      2.2224 eV  557.87 nm  f=0.0945  <S**2>=0.000
     310 -> 314        0.63226
     312 -> 315        0.30141

 Excited State   4:      Singlet-A      2.2457 eV  552.10 nm  f=0.1074  <S**2>=0.000
     309 -> 313        0.63690
     311 -> 316       -0.29190

 Excited State   5:      Singlet-A      3.1975 eV  387.75 nm  f=0.0000  <S**2>=0.000
     312 -> 313        0.70711

 The electronic state is 1-A.
 Alpha  occ. eigenvalues --  -46.89821 -46.87875 -19.25155 -19.24417 -19.20766
 Alpha  occ. eigenvalues --  -19.19716 -19.19078 -19.18658 -19.18280 -19.18255
 Alpha  occ. eigenvalues --  -14.42712 -14.42333 -14.42040 -14.42032 -14.40218
 Alpha  occ. eigenvalues --  -14.39102 -14.39046 -14.38436 -10.40105 -10.37963
 Alpha  occ. eigenvalues --  -10.36399 -10.35582 -10.34645 -10.34041 -10.32105
 Alpha  occ. eigenvalues --  -10.31832 -10.31641 -10.31596 -10.31482 -10.31208
 Alpha  occ. eigenvalues --  -10.31125 -10.31112 -10.30990 -10.30581 -10.30495
 Alpha  occ. eigenvalues --  -10.30440 -10.29803 -10.29695 -10.29674 -10.29607
 Alpha  occ. eigenvalues --  -10.29300 -10.28992 -10.28668 -10.28530 -10.28529
 Alpha  occ. eigenvalues --  -10.28501 -10.28294 -10.28242 -10.28187 -10.28155
 Alpha  occ. eigenvalues --  -10.28137 -10.28136 -10.28109 -10.28070 -10.27831
 Alpha  occ. eigenvalues --  -10.27671 -10.27641 -10.27532 -10.27529 -10.27521
 Alpha  occ. eigenvalues --  -10.27259 -10.27213 -10.27138 -10.27060 -10.27055
 Alpha  occ. eigenvalues --  -10.27030 -10.26950 -10.26940 -10.26884 -10.26861
 Alpha  occ. eigenvalues --  -10.26855 -10.26718 -10.26459 -10.26450 -10.26417
 Alpha  occ. eigenvalues --  -10.26313 -10.26250 -10.26153 -10.25878 -10.25746
 Alpha  occ. eigenvalues --  -10.25717 -10.25589 -10.25489 -10.25480 -10.25239
 Alpha  occ. eigenvalues --  -10.24652  -3.18239  -3.16535  -1.93088  -1.92748
 Alpha  occ. eigenvalues --   -1.92506  -1.91451  -1.90992  -1.90838  -1.16104
 Alpha  occ. eigenvalues --   -1.15844  -1.10981  -1.10817  -1.10311  -1.09488
 Alpha  occ. eigenvalues --   -1.08759  -1.06730  -1.05239  -1.04933  -1.04108
 Alpha  occ. eigenvalues --   -1.03314  -1.02936  -1.02405  -1.02350  -1.01617
 Alpha  occ. eigenvalues --   -0.92432  -0.92266  -0.89236  -0.89212  -0.88708
 Alpha  occ. eigenvalues --   -0.88393  -0.88331  -0.88206  -0.87569  -0.86972
 Alpha  occ. eigenvalues --   -0.86895  -0.86701  -0.86450  -0.85835  -0.84640
 Alpha  occ. eigenvalues --   -0.84113  -0.83704  -0.83390  -0.82721  -0.82639
 Alpha  occ. eigenvalues --   -0.82470  -0.82253  -0.81409  -0.81171  -0.80741
 Alpha  occ. eigenvalues --   -0.80276  -0.78792  -0.77857  -0.77794  -0.77353
 Alpha  occ. eigenvalues --   -0.77281  -0.76786  -0.76147  -0.75891  -0.75147
 Alpha  occ. eigenvalues --   -0.74957  -0.72777  -0.72684  -0.71814  -0.71367
 Alpha  occ. eigenvalues --   -0.69387  -0.69262  -0.68944  -0.68459  -0.68225
 Alpha  occ. eigenvalues --   -0.67477  -0.66916  -0.66529  -0.65940  -0.65546
 Alpha  occ. eigenvalues --   -0.65423  -0.64836  -0.64677  -0.64527  -0.64203
 Alpha  occ. eigenvalues --   -0.64117  -0.62846  -0.61422  -0.60528  -0.59752
 Alpha  occ. eigenvalues --   -0.59672  -0.59501  -0.59016  -0.58952  -0.58827
 Alpha  occ. eigenvalues --   -0.58589  -0.58030  -0.57957  -0.57487  -0.57298
 Alpha  occ. eigenvalues --   -0.56360  -0.56352  -0.55752  -0.55407  -0.55356
 Alpha  occ. eigenvalues --   -0.54989  -0.54857  -0.54782  -0.54573  -0.54028
 Alpha  occ. eigenvalues --   -0.53803  -0.53268  -0.53156  -0.52965  -0.52744
 Alpha  occ. eigenvalues --   -0.52622  -0.52590  -0.52470  -0.52343  -0.52114
 Alpha  occ. eigenvalues --   -0.52074  -0.51758  -0.51664  -0.51312  -0.51062
 Alpha  occ. eigenvalues --   -0.50989  -0.50841  -0.50821  -0.50491  -0.50300
 Alpha  occ. eigenvalues --   -0.50223  -0.50107  -0.49929  -0.49726  -0.49636
 Alpha  occ. eigenvalues --   -0.49435  -0.49344  -0.49239  -0.49170  -0.49137
 Alpha  occ. eigenvalues --   -0.48990  -0.48784  -0.48622  -0.48473  -0.48227
 Alpha  occ. eigenvalues --   -0.48036  -0.47913  -0.47719  -0.47447  -0.47329
 Alpha  occ. eigenvalues --   -0.47101  -0.47048  -0.46973  -0.46835  -0.46589
 Alpha  occ. eigenvalues --   -0.46536  -0.46444  -0.46249  -0.46193  -0.46063
 Alpha  occ. eigenvalues --   -0.45945  -0.45698  -0.45261  -0.45149  -0.45110
 Alpha  occ. eigenvalues --   -0.44980  -0.44797  -0.44786  -0.44533  -0.44404
 Alpha  occ. eigenvalues --   -0.44238  -0.44097  -0.44009  -0.43988  -0.43681
 Alpha  occ. eigenvalues --   -0.43554  -0.43404  -0.43368  -0.43132  -0.42807
 Alpha  occ. eigenvalues --   -0.42733  -0.42703  -0.42701  -0.42518  -0.42216
 Alpha  occ. eigenvalues --   -0.41955  -0.41823  -0.41507  -0.41448  -0.41281
 Alpha  occ. eigenvalues --   -0.41097  -0.40998  -0.40961  -0.40485  -0.40377
 Alpha  occ. eigenvalues --   -0.40196  -0.39824  -0.39503  -0.39274  -0.38786
 Alpha  occ. eigenvalues --   -0.38674  -0.38207  -0.37770  -0.37750  -0.37259
 Alpha  occ. eigenvalues --   -0.37090  -0.36883  -0.36718  -0.36287  -0.36252
 Alpha  occ. eigenvalues --   -0.36050  -0.35629  -0.34810  -0.34284  -0.34066
 Alpha  occ. eigenvalues --   -0.33981  -0.33302  -0.32981  -0.31605  -0.31305
 Alpha  occ. eigenvalues --   -0.31274  -0.30965  -0.30240  -0.30206  -0.29991
 Alpha  occ. eigenvalues --   -0.29716  -0.29195  -0.29045  -0.24338  -0.24203
 Alpha  occ. eigenvalues --   -0.21191  -0.21125
 Alpha virt. eigenvalues --   -0.08805  -0.08794  -0.01872  -0.01670   0.00370
 Alpha virt. eigenvalues --    0.00618   0.01312   0.02142   0.02733   0.03380
 Alpha virt. eigenvalues --    0.04548   0.04647   0.04702   0.05246   0.05808

 Mulliken charges:
               1
     1  Mg   0.828863
     2  C    0.048428
     3  C   -0.079081
     4  C   -0.067469
     5  C   -0.103353
     6  N   -0.255740
     7  C   -0.052018
     8  C   -0.000610
     9  C   -0.103471
    10  C    0.035603
    11  C    0.099461
    12  C    0.042550
    13  C   -0.062447
    14  H    0.013880
    15  N   -0.403930
    16  C    0.147248
    17  C   -0.142791
    18  C   -0.017885
    19  C    0.106299
    20  C    0.100440
    21  C    0.025243
    22  O   -0.202184
    23  C    0.059499
    24  N   -0.343364
    25  C    0.041672
    26  C   -0.041099
    27  C   -0.002489
    28  C    0.022953
    29  C    0.094409
    30  C    0.043912
    31  C   -0.014166
    32  N   -0.286882
    33  C    0.152986
    34  C   -0.160750
    35  C   -0.026706
    36  C    0.074277
    37  C    0.149295
    38  C    0.065576
    39  O   -0.154843
    40  C   -0.074523
    41  C    0.174471
    42  O   -0.224078
    43  O   -0.340815
    44  C    0.172985
    45  H   -0.041509
    46  H    0.001676
    47  H   -0.024254
    48  H    0.009395
    49  H   -0.002360
    50  H    0.017508
    51  H    0.021537
    52  H    0.015320
    53  H    0.009121
    54  H    0.039090
    55  H    0.023336
    56  H    0.035812
    57  H    0.015666
    58  H    0.027310
    59  H    0.025104
    60  H    0.036038
    61  H    0.023051
    62  H    0.027285
    63  H    0.010703
    64  H    0.008015
    65  H    0.017740
    66  H    0.025454
    67  H    0.006145
    68  H    0.012073
    69  H    0.010595
    70  H    0.018372
    71  H    0.023288
    72  H   -0.001760
    73  H    0.012727
    74  H    0.047931
    75  H    0.021403
    76  H    0.037234
    77  H    0.044534
    78  H    0.065041
    79  H    0.042022
    80  Mg   0.828028
    81  C   -0.072407
    82  C   -0.057815
    83  C   -0.081630
    84  C   -0.081433
    85  N   -0.265431
    86  C   -0.081293
    87  C   -0.050699
    88  C   -0.081860
    89  C    0.007729
    90  C    0.060794
    91  C    0.092484
    92  C   -0.035245
    93  H    0.002924
    94  N   -0.385524
    95  C    0.158093
    96  C   -0.142466
    97  C   -0.067427
    98  C    0.178886
    99  C    0.144045
   100  C    0.031880
   101  O   -0.206482
   102  C    0.035032
   103  N   -0.335712
   104  C    0.049469
   105  C   -0.075288
   106  C    0.031372
   107  C    0.005888
   108  C    0.071050
   109  C    0.013950
   110  C   -0.000426
   111  N   -0.323369
   112  C    0.132928
   113  C   -0.155252
   114  C   -0.032979
   115  C    0.194936
   116  C    0.109646
   117  C    0.027405
   118  O   -0.144012
   119  C   -0.010123
   120  C    0.212573
   121  O   -0.191225
   122  O   -0.358193
   123  C    0.169363
   124  H   -0.013836
   125  H   -0.041819
   126  H   -0.032952
   127  H    0.008070
   128  H    0.010248
   129  H    0.021945
   130  H    0.030831
   131  H    0.021838
   132  H    0.012243
   133  H    0.014213
   134  H    0.040364
   135  H    0.028141
   136  H   -0.012265
   137  H    0.032711
   138  H    0.042227
   139  H    0.049858
   140  H    0.031295
   141  H    0.045632
   142  H    0.029959
   143  H    0.018161
   144  H    0.017716
   145  H    0.025638
   146  H    0.023982
   147  H    0.007629
   148  H   -0.005471
   149  H    0.018756
   150  H    0.012251
   151  H    0.011903
   152  H    0.026175
   153  H    0.020814
   154  H    0.022587
   155  H    0.044389
   156  H    0.028332
   157  H    0.035813
   158  H    0.050434
 Sum of Mulliken charges =  -0.00000

 Dipole moment (field-independent basis, Debye):
    X=             -6.7412    Y=              1.7032    Z=              0.8724  Tot=              7.0075
 Quadrupole moment (field-independent basis, Debye-Ang):
   XX=           -576.7607   YY=           -563.5049   ZZ=           -499.1892
   XY=            124.1598   XZ=             36.0357   YZ=              7.2382

 Normal termination of Gaussian 16 at Wed Sep 15 23:59:32 2021.
