 Gaussian 16, Revision A.03,
 Gaussian 16:  ES64L-G16RevA.03 25-Dec-2016

 ----------------------------------------------------------
 #p cam-b3lyp/Def2SVP td=(nstates=5) density=(transition=1)
 ----------------------------------------------------------

 --------------------------------
 TDDFT excited states in gaussian
 --------------------------------
 Symbolic Z-matrix:
 Charge =  0 Multiplicity = 1

                         Standard orientation:
 ---------------------------------------------------------------------
 Center     Atomic      Atomic             Coordinates (Angstroms)
 Number     Number       Type             X           Y           Z
 ---------------------------------------------------------------------
      1         12           0      -25.139334   -0.429056   -0.069370
      2          6           0      -23.975798    2.748699   -1.049652
      3          6           0      -25.666452    0.778854    3.060134
      4          6           0      -26.135911   -3.528418    0.847546
      5          6           0      -24.149820   -1.672151   -3.157107
      6          7           0      -24.769455    1.475584    0.910355
      7          6           0      -24.396156    2.670296    0.288683
      8          6           0      -24.534285    3.801738    1.262508
      9          6           0      -24.588749    3.066089    2.622517
     10          6           0      -25.046749    1.656776    2.166378
     11          6           0      -23.259417    2.948818    3.433017
     12          6           0      -25.761734    4.761502    1.031906
     13          6           0      -25.427207    6.218215    1.085606
     14          1           0      -26.383325    7.114254    1.894889
     15          7           0      -25.886945   -1.193400    1.643408
     16          6           0      -26.128653   -0.508688    2.846027
     17          6           0      -26.724847   -1.374782    3.783251
     18          6           0      -26.894770   -2.697083    3.154782
     19          6           0      -26.323503   -2.515212    1.850895
     20          6           0      -27.001084   -1.053807    5.223040
     21          6           0      -27.443809   -4.086005    3.700987
     22          8           0      -27.509805   -5.053559    2.980443
     23          6           0      -27.996629   -4.209164    5.113712
     24          7           0      -25.036978   -2.353899   -0.991305
     25          6           0      -25.505747   -3.471303   -0.377983
     26          6           0      -25.282666   -4.751709   -1.316682
     27          6           0      -24.921853   -4.101423   -2.723472
     28          6           0      -24.676246   -2.596418   -2.280484
     29          6           0      -24.200017   -5.765316   -0.853445
     30          6           0      -26.051535   -4.236585   -3.805691
     31          6           0      -25.534773   -4.827243   -5.049786
     32          7           0      -24.203870    0.337286   -1.748719
     33          6           0      -23.963033   -0.268832   -2.980790
     34          6           0      -23.413249    0.691717   -3.898254
     35          6           0      -23.376311    1.868376   -3.178197
     36          6           0      -23.870595    1.638597   -1.933025
     37          6           0      -23.082501    0.342608   -5.372799
     38          6           0      -22.990733    3.266845   -3.224464
     39          8           0      -22.395882    3.847760   -4.105353
     40          6           0      -23.354368    3.907054   -1.793953
     41          6           0      -22.122805    4.436651   -1.180238
     42          8           0      -21.095645    3.750712   -0.936252
     43          8           0      -22.287353    5.774742   -0.972260
     44          6           0      -21.022882    6.515521   -0.720509
     45          1           0      -25.769351    1.225076    4.051435
     46          1           0      -26.419537   -4.560034    1.065366
     47          1           0      -23.779669   -2.092031   -4.094195
     48          1           0      -23.642860    4.424197    1.348953
     49          1           0      -25.293087    3.507199    3.328015
     50          1           0      -22.595368    3.806778    3.320070
     51          1           0      -22.771106    2.029952    3.107430
     52          1           0      -23.370357    2.753821    4.499375
     53          1           0      -26.490728    4.471148    1.788214
     54          1           0      -26.270277    4.543562    0.092311
     55          1           0      -25.414272    6.466572    0.024239
     56          1           0      -24.468189    6.354313    1.585298
     57          1           0      -28.049591   -0.903063    5.480907
     58          1           0      -26.551417   -0.091923    5.466056
     59          1           0      -26.637547   -1.741846    5.985814
     60          1           0      -28.428828   -5.207371    5.171911
     61          1           0      -28.657590   -3.377923    5.360950
     62          1           0      -27.212170   -3.982340    5.836300
     63          1           0      -26.181921   -5.367885   -1.322498
     64          1           0      -23.991602   -4.548133   -3.077598
     65          1           0      -23.623306   -5.490450    0.030317
     66          1           0      -23.452028   -5.971972   -1.619296
     67          1           0      -24.719171   -6.701223   -0.645194
     68          1           0      -26.405655   -3.237612   -4.062870
     69          1           0      -26.890061   -4.867101   -3.510730
     70          1           0      -25.796888   -5.885471   -5.065382
     71          1           0      -24.482578   -4.698951   -5.301332
     72          1           0      -25.982761   -4.318129   -5.903209
     73          1           0      -23.591711   -0.584028   -5.638731
     74          1           0      -22.007975    0.369844   -5.559484
     75          1           0      -23.565074    1.133679   -5.945551
     76          1           0      -24.094252    4.702562   -1.886049
     77          1           0      -21.211614    7.588710   -0.698789
     78          1           0      -20.424869    6.360679   -1.618828
     79          1           0      -20.581387    6.085241    0.178838
     80         12           0       24.270893   -0.794853    0.234093
     81          6           0       26.032059    2.324044   -0.294257
     82          6           0       23.026504    0.598669    2.869804
     83          6           0       22.980757   -3.793729    0.686679
     84          6           0       26.377449   -2.399006   -2.255639
     85          7           0       24.436443    1.325573    1.102523
     86          6           0       25.185857    2.435666    0.772488
     87          6           0       24.953864    3.526371    1.755043
     88          6           0       24.387182    2.784608    2.992898
     89          6           0       23.951058    1.463324    2.316881
     90          6           0       25.424054    2.516764    4.105755
     91          6           0       23.872819    4.506732    1.206260
     92          6           0       24.167273    6.046914    1.381587
     93          1           0       23.413969    7.103671    0.479465
     94          7           0       23.057789   -1.484168    1.656492
     95          6           0       22.545896   -0.754201    2.611375
     96          6           0       21.592537   -1.568228    3.341544
     97          6           0       21.523065   -2.772985    2.603018
     98          6           0       22.567698   -2.718442    1.616599
     99          6           0       20.788550   -0.983097    4.516803
    100          6           0       20.582032   -3.918496    2.852550
    101          8           0       20.640124   -4.902129    2.176935
    102          6           0       19.511096   -3.770953    3.883671
    103          7           0       24.881618   -2.912416   -0.525948
    104          6           0       24.012475   -3.878639   -0.236748
    105          6           0       24.191082   -5.067735   -1.104071
    106          6           0       25.450975   -4.642037   -1.922518
    107          6           0       25.633028   -3.190069   -1.567033
    108          6           0       24.264139   -6.477433   -0.414387
    109          6           0       25.247686   -4.914914   -3.463981
    110          6           0       25.986402   -6.103556   -4.139900
    111          7           0       25.810579   -0.271533   -0.991752
    112          6           0       26.530059   -0.952169   -1.999290
    113          6           0       27.468198   -0.014868   -2.650762
    114          6           0       27.272231    1.212002   -2.030906
    115          6           0       26.331237    1.038813   -1.030089
    116          6           0       28.545042   -0.408887   -3.690591
    117          6           0       27.753549    2.630583   -2.061406
    118          8           0       28.533384    3.235884   -2.758278
    119          6           0       27.083136    3.380808   -0.804247
    120          6           0       26.600351    4.665971   -1.154513
    121          8           0       25.431873    4.851863   -1.522135
    122          8           0       27.514973    5.713512   -1.108427
    123          6           0       27.019677    7.114723   -1.271991
    124          1           0       22.502430    0.960624    3.756114
    125          1           0       22.507134   -4.771716    0.793849
    126          1           0       27.011198   -2.863445   -3.012683
    127          1           0       25.906618    3.960126    2.059842
    128          1           0       23.556271    3.264740    3.509406
    129          1           0       25.121853    3.002311    5.034143
    130          1           0       26.372034    2.927821    3.759919
    131          1           0       25.612516    1.461994    4.307824
    132          1           0       22.970546    4.263860    1.767825
    133          1           0       23.720243    4.225588    0.164450
    134          1           0       25.243495    6.188076    1.285743
    135          1           0       23.884967    6.215098    2.421556
    136          1           0       19.736008   -0.954014    4.232029
    137          1           0       21.116998   -0.011061    4.883124
    138          1           0       20.771661   -1.688588    5.347031
    139          1           0       18.809626   -2.971999    3.644870
    140          1           0       19.826499   -3.455280    4.878080
    141          1           0       18.915298   -4.683887    3.901069
    142          1           0       23.343007   -5.104817   -1.787818
    143          1           0       26.330803   -5.137040   -1.510881
    144          1           0       24.045877   -6.311128    0.639997
    145          1           0       25.164544   -7.070117   -0.579745
    146          1           0       23.492395   -7.111767   -0.850755
    147          1           0       25.576940   -4.038582   -4.022977
    148          1           0       24.170930   -4.838240   -3.614991
    149          1           0       25.293496   -6.657869   -4.772714
    150          1           0       26.417355   -6.746717   -3.372426
    151          1           0       26.784656   -5.741062   -4.788691
    152          1           0       28.150194   -1.238000   -4.277089
    153          1           0       29.412069   -0.814683   -3.168830
    154          1           0       28.815988    0.425959   -4.337320
    155          1           0       27.845534    3.483398   -0.032585
    156          1           0       26.338721    7.386992   -0.464360
    157          1           0       26.712289    7.313274   -2.298027
    158          1           0       27.852850    7.767274   -1.011332
 ---------------------------------------------------------------------

 SCF Done:  E(RCAM-B3LYP) =  -4069.80381758     A.U. after   18 cycles

 Excitation energies and oscillator strengths:

 Excited State   1:      Singlet-A      1.7382 eV  713.31 nm  f=0.3718  <S**2>=0.000
     310 -> 316        0.16386
     311 -> 313        0.68889
     310 <- 316        0.10277
 This state for optimization and/or second-order correction.
 Total Energy, E(TD-HF/TD-DFT) =  -4069.73994125
 Copying the excited state density for this state as the 1-particle RhoCI density.

 Excited State   2:      Singlet-A      1.7437 eV  711.02 nm  f=0.4031  <S**2>=0.000
     309 -> 315        0.17836
     312 -> 314        0.68459
     309 <- 315        0.10695

 Excited State   3:      Singlet-A      2.1720 eV  570.83 nm  f=0.2246  <S**2>=0.000
     310 -> 313        0.67444
     311 -> 316       -0.20200

 Excited State   4:      Singlet-A      2.2018 eV  563.09 nm  f=0.1606  <S**2>=0.000
     309 -> 314        0.65399
     312 -> 315       -0.24979

 Excited State   5:      Singlet-A      3.2042 eV  386.94 nm  f=0.0000  <S**2>=0.000
     312 -> 313        0.70711

 The electronic state is 1-A.
 Alpha  occ. eigenvalues --  -46.89439 -46.87194 -19.25676 -19.23970 -19.19900
 Alpha  occ. eigenvalues --  -19.19640 -19.19530 -19.19257 -19.19051 -19.18528
 Alpha  occ. eigenvalues --  -14.42076 -14.41759 -14.41516 -14.40170 -14.39821
 Alpha  occ. eigenvalues --  -14.39771 -14.39302 -14.38568 -10.39445 -10.38516
 Alpha  occ. eigenvalues --  -10.36355 -10.35955 -10.35129 -10.35052 -10.32196
 Alpha  occ. eigenvalues --  -10.31618 -10.31138 -10.31062 -10.31021 -10.30642
 Alpha  occ. eigenvalues --  -10.30634 -10.30633 -10.30595 -10.30451 -10.30037
 Alpha  occ. eigenvalues --  -10.30023 -10.29933 -10.29837 -10.29371 -10.29314
 Alpha  occ. eigenvalues --  -10.29111 -10.28954 -10.28944 -10.28710 -10.28682
 Alpha  occ. eigenvalues --  -10.28244 -10.28186 -10.28150 -10.28106 -10.28075
 Alpha  occ. eigenvalues --  -10.28001 -10.27915 -10.27906 -10.27877 -10.27780
 Alpha  occ. eigenvalues --  -10.27772 -10.27655 -10.27625 -10.27423 -10.27262
 Alpha  occ. eigenvalues --  -10.27233 -10.27161 -10.27139 -10.26963 -10.26802
 Alpha  occ. eigenvalues --  -10.26740 -10.26522 -10.26516 -10.26365 -10.26353
 Alpha  occ. eigenvalues --  -10.26291 -10.26280 -10.26135 -10.26101 -10.26047
 Alpha  occ. eigenvalues --  -10.25919 -10.25806 -10.25727 -10.25724 -10.25707
 Alpha  occ. eigenvalues --  -10.25531 -10.25440 -10.25350 -10.25100 -10.24667
 Alpha  occ. eigenvalues --  -10.24369  -3.17962  -3.15922  -1.92849  -1.92425
 Alpha  occ. eigenvalues --   -1.92262  -1.90827  -1.90367  -1.90247  -1.15774
 Alpha  occ. eigenvalues --   -1.14183  -1.12166  -1.11721  -1.10848  -1.10338
 Alpha  occ. eigenvalues --   -1.06408  -1.06350  -1.05654  -1.04956  -1.04955
 Alpha  occ. eigenvalues --   -1.04881  -1.03356  -1.02567  -1.01440  -1.00984
 Alpha  occ. eigenvalues --   -0.92595  -0.91255  -0.89257  -0.89222  -0.88868
 Alpha  occ. eigenvalues --   -0.88676  -0.88044  -0.87990  -0.87795  -0.87636
 Alpha  occ. eigenvalues --   -0.87043  -0.86429  -0.85840  -0.85192  -0.84342
 Alpha  occ. eigenvalues --   -0.84328  -0.83844  -0.83054  -0.82922  -0.82138
 Alpha  occ. eigenvalues --   -0.82124  -0.82014  -0.81207  -0.80953  -0.80678
 Alpha  occ. eigenvalues --   -0.80402  -0.78767  -0.78249  -0.77337  -0.77122
 Alpha  occ. eigenvalues --   -0.76790  -0.76697  -0.76220  -0.75749  -0.75404
 Alpha  occ. eigenvalues --   -0.74898  -0.72897  -0.72773  -0.71099  -0.70944
 Alpha  occ. eigenvalues --   -0.69214  -0.68781  -0.68624  -0.68130  -0.67934
 Alpha  occ. eigenvalues --   -0.67605  -0.67336  -0.66558  -0.66108  -0.65620
 Alpha  occ. eigenvalues --   -0.65530  -0.65193  -0.64972  -0.64585  -0.64221
 Alpha  occ. eigenvalues --   -0.64057  -0.61960  -0.61435  -0.61041  -0.60336
 Alpha  occ. eigenvalues --   -0.60132  -0.60103  -0.59264  -0.59060  -0.58223
 Alpha  occ. eigenvalues --   -0.58050  -0.57704  -0.57636  -0.57566  -0.57178
 Alpha  occ. eigenvalues --   -0.56547  -0.56174  -0.55742  -0.55696  -0.55521
 Alpha  occ. eigenvalues --   -0.55504  -0.55009  -0.54006  -0.53871  -0.53856
 Alpha  occ. eigenvalues --   -0.53572  -0.53450  -0.53389  -0.53032  -0.52640
 Alpha  occ. eigenvalues --   -0.52636  -0.52598  -0.52428  -0.51980  -0.51900
 Alpha  occ. eigenvalues --   -0.51848  -0.51837  -0.51570  -0.51311  -0.51044
 Alpha  occ. eigenvalues --   -0.50909  -0.50546  -0.50474  -0.50236  -0.50123
 Alpha  occ. eigenvalues --   -0.50084  -0.49853  -0.49818  -0.49700  -0.49556
 Alpha  occ. eigenvalues --   -0.49467  -0.49424  -0.49271  -0.49122  -0.48832
 Alpha  occ. eigenvalues --   -0.48737  -0.48732  -0.48305  -0.47965  -0.47937
 Alpha  occ. eigenvalues --   -0.47774  -0.47690  -0.47552  -0.47438  -0.47272
 Alpha  occ. eigenvalues --   -0.46801  -0.46660  -0.46472  -0.46428  -0.46230
 Alpha  occ. eigenvalues --   -0.46160  -0.45861  -0.45788  -0.45782  -0.45527
 Alpha  occ. eigenvalues --   -0.45420  -0.45400  -0.45097  -0.44917  -0.44776
 Alpha  occ. eigenvalues --   -0.44759  -0.44689  -0.44548  -0.44469  -0.44462
 Alpha  occ. eigenvalues --   -0.44349  -0.44015  -0.43436  -0.43413  -0.43369
 Alpha  occ. eigenvalues --   -0.43330  -0.42989  -0.42933  -0.42889  -0.42745
 Alpha  occ. eigenvalues --   -0.42662  -0.42628  -0.42293  -0.42213  -0.41954
 Alpha  occ. eigenvalues --   -0.41894  -0.41873  -0.41297  -0.41238  -0.41039
 Alpha  occ. eigenvalues --   -0.40963  -0.40630  -0.40495  -0.40363  -0.40192
 Alpha  occ. eigenvalues --   -0.40088  -0.39891  -0.39850  -0.39168  -0.38855
 Alpha  occ. eigenvalues --   -0.38368  -0.38322  -0.37861  -0.37843  -0.37659
 Alpha  occ. eigenvalues --   -0.37035  -0.36772  -0.36518  -0.36346  -0.36057
 Alpha  occ. eigenvalues --   -0.36003  -0.35726  -0.34259  -0.34156  -0.33591
 Alpha  occ. eigenvalues --   -0.33169  -0.33051  -0.32604  -0.31841  -0.31776
 Alpha  occ. eigenvalues --   -0.31523  -0.31286  -0.31095  -0.30872  -0.30739
 Alpha  occ. eigenvalues --   -0.29998  -0.29676  -0.29575  -0.23983  -0.23531
 Alpha  occ. eigenvalues --   -0.21619  -0.21542
 Alpha virt. eigenvalues --   -0.09067  -0.09025  -0.01282  -0.00349   0.00725
 Alpha virt. eigenvalues --    0.00942   0.02324   0.02664   0.02780   0.03438
 Alpha virt. eigenvalues --    0.04493   0.04536   0.05158   0.05392   0.06118

 Mulliken charges:
               1
     1  Mg  11.999998
     2  C    5.999615
     3  C    5.999991
     4  C    6.000384
     5  C    5.999980
     6  N    6.999802
     7  C    6.000456
     8  C    5.999852
     9  C    6.000080
    10  C    5.999758
    11  C    6.000061
    12  C    5.999952
    13  C    5.999967
    14  H    1.000120
    15  N    7.000012
    16  C    5.999644
    17  C    5.999734
    18  C    5.999787
    19  C    5.999601
    20  C    6.000138
    21  C    5.999822
    22  O    7.999696
    23  C    6.000042
    24  N    7.000125
    25  C    5.999601
    26  C    6.000087
    27  C    5.999939
    28  C    6.000233
    29  C    6.000007
    30  C    5.999941
    31  C    5.999981
    32  N    7.000041
    33  C    6.000369
    34  C    6.000407
    35  C    5.999973
    36  C    6.000412
    37  C    5.999943
    38  C    6.000194
    39  O    8.000317
    40  C    6.000068
    41  C    6.000041
    42  O    7.999997
    43  O    8.000047
    44  C    5.999991
    45  H    0.999798
    46  H    0.999946
    47  H    1.000168
    48  H    1.000013
    49  H    0.999994
    50  H    0.999794
    51  H    0.999941
    52  H    0.999995
    53  H    1.000178
    54  H    0.999982
    55  H    0.999959
    56  H    0.999998
    57  H    0.999737
    58  H    0.999768
    59  H    0.999715
    60  H    0.999840
    61  H    0.999962
    62  H    0.999897
    63  H    1.000042
    64  H    1.000009
    65  H    1.000003
    66  H    0.999866
    67  H    1.000021
    68  H    0.999981
    69  H    1.000170
    70  H    1.000093
    71  H    0.999957
    72  H    1.000032
    73  H    1.000224
    74  H    1.000244
    75  H    1.000262
    76  H    1.000119
    77  H    1.000074
    78  H    0.999983
    79  H    1.000030
    80  Mg  11.996444
    81  C    6.024079
    82  C    5.994100
    83  C    5.977611
    84  C    6.011592
    85  N    7.016416
    86  C    5.969977
    87  C    6.006409
    88  C    5.993240
    89  C    6.025362
    90  C    5.994696
    91  C    6.003640
    92  C    6.001991
    93  H    0.998662
    94  N    6.985199
    95  C    6.039810
    96  C    6.023084
    97  C    6.010786
    98  C    6.041281
    99  C    5.995475
   100  C    6.012937
   101  O    8.024652
   102  C    5.993381
   103  N    6.999323
   104  C    6.034547
   105  C    5.986049
   106  C    6.010901
   107  C    5.978376
   108  C    6.000209
   109  C    6.001602
   110  C    5.999733
   111  N    6.999331
   112  C    5.956755
   113  C    5.966529
   114  C    6.000385
   115  C    5.960239
   116  C    6.000593
   117  C    5.985670
   118  O    7.974959
   119  C    5.994805
   120  C    5.996371
   121  O    7.991697
   122  O    8.000156
   123  C    6.002885
   124  H    1.011639
   125  H    1.006004
   126  H    0.988899
   127  H    1.001441
   128  H    1.001354
   129  H    1.002938
   130  H    1.015477
   131  H    0.997838
   132  H    0.985024
   133  H    1.004437
   134  H    1.003689
   135  H    0.993763
   136  H    1.020051
   137  H    1.018776
   138  H    1.019409
   139  H    1.007559
   140  H    1.005898
   141  H    1.015111
   142  H    1.002177
   143  H    0.997454
   144  H    0.993514
   145  H    1.009165
   146  H    1.002035
   147  H    1.008453
   148  H    0.992053
   149  H    0.995312
   150  H    0.995620
   151  H    1.003397
   152  H    0.981118
   153  H    0.976644
   154  H    0.982246
   155  H    0.991705
   156  H    0.993973
   157  H    0.998075
   158  H    0.995820
 Sum of Mulliken charges = 624.00000

 Dipole moment (field-independent basis, Debye):
    X=             -7.2661    Y=             -3.3950    Z=              6.9630  Tot=             10.6210
 Quadrupole moment (field-independent basis, Debye-Ang):
   XX=           -359.7980   YY=              1.8907   ZZ=              5.0811
   XY=            -78.2073   XZ=            174.3891   YZ=             -6.1062

 Normal termination of Gaussian 16 at Tue Sep 21 22:05:19 2021.
