 Gaussian 16, Revision A.03,
 Gaussian 16:  ES64L-G16RevA.03 25-Dec-2016

 -----------------------------------
 #p cam-b3lyp/Def2SVP td=(nstates=5)
 -----------------------------------

 --------------------------------
 TDDFT excited states in gaussian
 --------------------------------
 Symbolic Z-matrix:
 Charge =  0 Multiplicity = 1

                         Standard orientation:
 ---------------------------------------------------------------------
 Center     Atomic      Atomic             Coordinates (Angstroms)
 Number     Number       Type             X           Y           Z
 ---------------------------------------------------------------------
      1         12           0      -28.116334    0.432731    0.136928
      2          6           0      -25.227702   -1.548043    0.379045
      3          6           0      -26.117981    3.179693    0.081142
      4          6           0      -30.847640    2.105274   -0.525613
      5          6           0      -29.816111   -2.648493   -0.626760
      6          7           0      -25.959131    0.742158    0.288947
      7          6           0      -24.966288   -0.193824    0.359897
      8          6           0      -23.624823    0.509287    0.104059
      9          6           0      -23.922053    1.929647    0.571951
     10          6           0      -25.416302    1.972649    0.198710
     11          6           0      -23.705267    2.120818    2.090863
     12          6           0      -23.226195    0.450675   -1.416971
     13          6           0      -21.935284   -0.410238   -1.835985
     14          1           0      -22.109859   -1.600526   -2.794530
     15          7           0      -28.435098    2.366117   -0.236169
     16          6           0      -27.484552    3.359994   -0.191612
     17          6           0      -28.149941    4.618512   -0.321326
     18          6           0      -29.565743    4.398515   -0.383680
     19          6           0      -29.695185    2.912495   -0.391958
     20          6           0      -27.396369    5.992439   -0.340269
     21          6           0      -30.652125    5.534189   -0.408321
     22          8           0      -30.327735    6.674412   -0.278856
     23          6           0      -32.054833    5.149922   -0.308027
     24          7           0      -29.988820   -0.169089   -0.799396
     25          6           0      -30.996877    0.706243   -0.572234
     26          6           0      -32.353506    0.035418   -0.436298
     27          6           0      -32.069779   -1.404278   -0.836790
     28          6           0      -30.503591   -1.431662   -0.760961
     29          6           0      -32.948289    0.142206    1.016525
     30          6           0      -32.621879   -1.959539   -2.233223
     31          6           0      -33.760309   -2.941426   -2.307012
     32          7           0      -27.719466   -1.659589    0.112407
     33          6           0      -28.491018   -2.783384   -0.210165
     34          6           0      -27.706385   -3.998523   -0.172647
     35          6           0      -26.432640   -3.553242    0.082450
     36          6           0      -26.442413   -2.127076    0.229954
     37          6           0      -28.213035   -5.353107   -0.447097
     38          6           0      -25.057209   -3.989939    0.267339
     39          8           0      -24.594017   -5.136097    0.317444
     40          6           0      -24.253795   -2.742853    0.570848
     41          6           0      -23.677061   -2.906544    1.972857
     42          8           0      -24.413356   -3.081347    2.941100
     43          8           0      -22.274725   -2.960999    1.951995
     44          6           0      -21.663980   -3.149164    3.240755
     45          1           0      -25.463070    4.041420    0.223781
     46          1           0      -31.756649    2.699167   -0.418518
     47          1           0      -30.362005   -3.586460   -0.749580
     48          1           0      -22.862727   -0.073816    0.621679
     49          1           0      -23.292845    2.611195    0.000867
     50          1           0      -23.087500    3.017417    2.054033
     51          1           0      -23.168013    1.226154    2.406814
     52          1           0      -24.597256    2.254553    2.703003
     53          1           0      -22.999033    1.469881   -1.729329
     54          1           0      -24.112378    0.156473   -1.978751
     55          1           0      -21.581221   -0.862630   -0.909348
     56          1           0      -21.100590    0.177617   -2.215971
     57          1           0      -27.632129    6.694272   -1.139640
     58          1           0      -26.336985    5.743078   -0.408722
     59          1           0      -27.526208    6.555977    0.583846
     60          1           0      -32.396479    4.482508   -1.099488
     61          1           0      -32.660441    6.056001   -0.325036
     62          1           0      -32.277071    4.802182    0.699896
     63          1           0      -33.117100    0.504340   -1.057791
     64          1           0      -32.408859   -2.086733   -0.057426
     65          1           0      -33.679904    0.942638    1.125417
     66          1           0      -32.135155    0.164868    1.742044
     67          1           0      -33.485701   -0.787527    1.208746
     68          1           0      -31.896192   -2.258265   -2.988923
     69          1           0      -33.004724   -0.998505   -2.577685
     70          1           0      -34.661055   -2.529429   -2.760904
     71          1           0      -34.027736   -3.265753   -1.301040
     72          1           0      -33.362673   -3.770115   -2.892448
     73          1           0      -29.088366   -5.255502   -1.089832
     74          1           0      -28.548130   -5.738553    0.516256
     75          1           0      -27.429389   -6.000386   -0.838170
     76          1           0      -23.454410   -2.794713   -0.167097
     77          1           0      -21.636705   -2.255721    3.865119
     78          1           0      -20.635160   -3.496315    3.149519
     79          1           0      -22.134983   -3.917266    3.853570
     80         12           0       28.212792    0.233483    0.327793
     81          6           0       24.790871   -0.448162   -0.140456
     82          6           0       28.803733   -3.061097   -0.615787
     83          6           0       31.482457    0.866077    0.301734
     84          6           0       27.426272    3.613534    0.321964
     85          7           0       26.884399   -1.478101   -0.462905
     86          6           0       25.509155   -1.606905   -0.460971
     87          6           0       24.989471   -3.025125   -0.568752
     88          6           0       26.281466   -3.866750   -0.697786
     89          6           0       27.404801   -2.782405   -0.608102
     90          6           0       26.434479   -4.999703    0.396545
     91          6           0       23.991105   -3.327608   -1.773704
     92          6           0       24.170896   -2.530877   -3.076202
     93          1           0       24.830076   -3.244242   -4.293645
     94          7           0       29.866954   -0.917180   -0.081379
     95          6           0       29.912237   -2.247357   -0.388474
     96          6           0       31.309272   -2.698896   -0.454687
     97          6           0       32.118380   -1.553431   -0.182721
     98          6           0       31.131853   -0.448286    0.019715
     99          6           0       31.718405   -4.138765   -0.741321
    100          6           0       33.684537   -1.681255   -0.277241
    101          8           0       34.151606   -2.759125   -0.617970
    102          6           0       34.606712   -0.414961   -0.025971
    103          7           0       29.266761    1.965509    0.187730
    104          6           0       30.648842    1.999818    0.358365
    105          6           0       31.174868    3.539083    0.486387
    106          6           0       29.773063    4.341491    0.321133
    107          6           0       28.773076    3.231048    0.282724
    108          6           0       31.908015    3.812844    1.832531
    109          6           0       29.668975    5.267984   -0.965343
    110          6           0       29.245732    6.735101   -0.793763
    111          7           0       26.457947    1.405893    0.256549
    112          6           0       26.258427    2.762651    0.249406
    113          6           0       24.808775    3.023066    0.124342
    114          6           0       24.201884    1.739007    0.088276
    115          6           0       25.277520    0.808212    0.123948
    116          6           0       24.118015    4.355452    0.032546
    117          6           0       22.894755    1.075269   -0.075129
    118          8           0       21.729861    1.499307   -0.083785
    119          6           0       23.246196   -0.404230   -0.026397
    120          6           0       22.695565   -1.068303    1.106747
    121          8           0       23.216281   -0.981629    2.248960
    122          8           0       21.560151   -1.827131    0.759811
    123          6           0       20.974012   -2.697108    1.774382
    124          1           0       29.042638   -4.119612   -0.735265
    125          1           0       32.541151    1.082065    0.457076
    126          1           0       27.259537    4.690289    0.388003
    127          1           0       24.475815   -3.159931    0.382380
    128          1           0       26.311402   -4.195671   -1.735914
    129          1           0       26.332165   -5.976407   -0.076324
    130          1           0       25.636817   -4.826105    1.119330
    131          1           0       27.413597   -4.961621    0.875172
    132          1           0       23.038785   -3.025250   -1.336239
    133          1           0       23.971645   -4.401878   -1.958617
    134          1           0       24.740244   -1.619052   -2.892830
    135          1           0       23.193959   -2.157635   -3.380572
    136          1           0       32.080031   -4.318131   -1.753844
    137          1           0       30.966617   -4.839606   -0.378148
    138          1           0       32.532918   -4.445995   -0.085598
    139          1           0       34.254253    0.052951    0.893543
    140          1           0       34.490789    0.246175   -0.884374
    141          1           0       35.674269   -0.622224   -0.099893
    142          1           0       31.945148    3.653398   -0.275725
    143          1           0       29.620821    4.903817    1.242668
    144          1           0       31.173376    4.222167    2.525659
    145          1           0       32.795235    4.434689    1.712596
    146          1           0       32.352212    2.926947    2.286078
    147          1           0       29.011205    4.752217   -1.665667
    148          1           0       30.698570    5.251366   -1.322755
    149          1           0       28.876135    7.166440   -1.724462
    150          1           0       30.177281    7.207783   -0.483308
    151          1           0       28.470317    6.699399   -0.028257
    152          1           0       24.875691    5.015870   -0.388343
    153          1           0       23.977799    4.614609    1.081948
    154          1           0       23.145009    4.343471   -0.459475
    155          1           0       22.800935   -0.759329   -0.955516
    156          1           0       20.535904   -2.220538    2.651373
    157          1           0       21.717994   -3.413061    2.124904
    158          1           0       20.285550   -3.358920    1.248651
 ---------------------------------------------------------------------

 SCF Done:  E(RCAM-B3LYP) =  -4069.80666510     A.U. after   17 cycles

 Excitation energies and oscillator strengths:

 Excited State   1:      Singlet-A      1.7180 eV  721.70 nm  f=0.3734  <S**2>=0.000
     310 -> 316        0.18149
     312 -> 314        0.68505
     310 <- 316        0.10791
 This state for optimization and/or second-order correction.
 Total Energy, E(TD-HF/TD-DFT) =  -4069.74353130
 Copying the excited state density for this state as the 1-particle RhoCI density.

 Excited State   2:      Singlet-A      1.7237 eV  719.29 nm  f=0.3648  <S**2>=0.000
     309 -> 315       -0.19171
     311 -> 313        0.68303
     309 <- 315       -0.11115

 Excited State   3:      Singlet-A      2.2830 eV  543.07 nm  f=0.0525  <S**2>=0.000
     309 -> 313        0.60481
     311 -> 315        0.35603

 Excited State   4:      Singlet-A      2.3104 eV  536.64 nm  f=0.0713  <S**2>=0.000
     310 -> 314        0.61632
     312 -> 316       -0.33582

 Excited State   5:      Singlet-A      3.2355 eV  383.20 nm  f=0.0000  <S**2>=0.000
     312 -> 313        0.70711

 The electronic state is 1-A.
 Alpha  occ. eigenvalues --  -46.88932 -46.88690 -19.26026 -19.25797 -19.20581
 Alpha  occ. eigenvalues --  -19.20241 -19.19620 -19.19198 -19.19095 -19.18763
 Alpha  occ. eigenvalues --  -14.42643 -14.42140 -14.42087 -14.42081 -14.39963
 Alpha  occ. eigenvalues --  -14.39387 -14.39351 -14.39320 -10.40251 -10.40028
 Alpha  occ. eigenvalues --  -10.36498 -10.35356 -10.35057 -10.34568 -10.32120
 Alpha  occ. eigenvalues --  -10.31884 -10.31508 -10.31354 -10.31138 -10.31131
 Alpha  occ. eigenvalues --  -10.30941 -10.30837 -10.30659 -10.30643 -10.30590
 Alpha  occ. eigenvalues --  -10.30553 -10.30093 -10.29845 -10.29795 -10.29541
 Alpha  occ. eigenvalues --  -10.29304 -10.29294 -10.29005 -10.28617 -10.28469
 Alpha  occ. eigenvalues --  -10.28413 -10.28375 -10.28312 -10.28311 -10.28310
 Alpha  occ. eigenvalues --  -10.28165 -10.28081 -10.28036 -10.27890 -10.27877
 Alpha  occ. eigenvalues --  -10.27821 -10.27818 -10.27766 -10.27747 -10.27546
 Alpha  occ. eigenvalues --  -10.27474 -10.27395 -10.27256 -10.27159 -10.27144
 Alpha  occ. eigenvalues --  -10.26931 -10.26902 -10.26878 -10.26866 -10.26855
 Alpha  occ. eigenvalues --  -10.26800 -10.26736 -10.26664 -10.26589 -10.26575
 Alpha  occ. eigenvalues --  -10.26439 -10.26235 -10.26231 -10.26060 -10.26003
 Alpha  occ. eigenvalues --  -10.25864 -10.25699 -10.25510 -10.25462 -10.25178
 Alpha  occ. eigenvalues --  -10.25139  -3.17558  -3.17299  -1.92416  -1.92174
 Alpha  occ. eigenvalues --   -1.92029  -1.91862  -1.91770  -1.91599  -1.15967
 Alpha  occ. eigenvalues --   -1.14977  -1.11913  -1.10420  -1.09107  -1.09061
 Alpha  occ. eigenvalues --   -1.08224  -1.07027  -1.04786  -1.04278  -1.04151
 Alpha  occ. eigenvalues --   -1.03552  -1.02862  -1.02618  -1.02078  -1.01884
 Alpha  occ. eigenvalues --   -0.93139  -0.93049  -0.89170  -0.89156  -0.88973
 Alpha  occ. eigenvalues --   -0.88852  -0.88511  -0.88054  -0.87617  -0.87109
 Alpha  occ. eigenvalues --   -0.86811  -0.86085  -0.85566  -0.85001  -0.84611
 Alpha  occ. eigenvalues --   -0.84529  -0.84241  -0.83919  -0.82806  -0.82589
 Alpha  occ. eigenvalues --   -0.82524  -0.81667  -0.81040  -0.81014  -0.80859
 Alpha  occ. eigenvalues --   -0.80088  -0.78173  -0.78007  -0.77230  -0.77223
 Alpha  occ. eigenvalues --   -0.76775  -0.76526  -0.76403  -0.76314  -0.75110
 Alpha  occ. eigenvalues --   -0.74908  -0.72891  -0.72337  -0.72126  -0.71755
 Alpha  occ. eigenvalues --   -0.69298  -0.69035  -0.68915  -0.68621  -0.68438
 Alpha  occ. eigenvalues --   -0.68158  -0.66815  -0.66779  -0.65875  -0.65784
 Alpha  occ. eigenvalues --   -0.65602  -0.65192  -0.64869  -0.64583  -0.64459
 Alpha  occ. eigenvalues --   -0.64205  -0.62723  -0.62446  -0.60253  -0.60237
 Alpha  occ. eigenvalues --   -0.60051  -0.59628  -0.59122  -0.59070  -0.58891
 Alpha  occ. eigenvalues --   -0.58657  -0.58502  -0.57745  -0.57683  -0.57189
 Alpha  occ. eigenvalues --   -0.56241  -0.56147  -0.56076  -0.55608  -0.55292
 Alpha  occ. eigenvalues --   -0.54978  -0.54952  -0.54436  -0.54197  -0.53954
 Alpha  occ. eigenvalues --   -0.53769  -0.53544  -0.53200  -0.53089  -0.53000
 Alpha  occ. eigenvalues --   -0.52787  -0.52683  -0.52620  -0.52347  -0.52193
 Alpha  occ. eigenvalues --   -0.52130  -0.51749  -0.51567  -0.51191  -0.51015
 Alpha  occ. eigenvalues --   -0.50951  -0.50895  -0.50713  -0.50462  -0.50305
 Alpha  occ. eigenvalues --   -0.50142  -0.49984  -0.49829  -0.49649  -0.49363
 Alpha  occ. eigenvalues --   -0.49355  -0.49300  -0.49260  -0.49085  -0.48969
 Alpha  occ. eigenvalues --   -0.48684  -0.48577  -0.48350  -0.48339  -0.48141
 Alpha  occ. eigenvalues --   -0.48092  -0.47518  -0.47370  -0.47204  -0.47129
 Alpha  occ. eigenvalues --   -0.46615  -0.46594  -0.46451  -0.46350  -0.46294
 Alpha  occ. eigenvalues --   -0.46242  -0.46163  -0.46138  -0.45970  -0.45773
 Alpha  occ. eigenvalues --   -0.45428  -0.45384  -0.45342  -0.44971  -0.44792
 Alpha  occ. eigenvalues --   -0.44614  -0.44559  -0.44443  -0.44310  -0.44184
 Alpha  occ. eigenvalues --   -0.44158  -0.43926  -0.43858  -0.43562  -0.43297
 Alpha  occ. eigenvalues --   -0.43230  -0.43066  -0.43034  -0.42931  -0.42678
 Alpha  occ. eigenvalues --   -0.42579  -0.42407  -0.42394  -0.42262  -0.42138
 Alpha  occ. eigenvalues --   -0.42099  -0.41970  -0.41731  -0.41596  -0.41564
 Alpha  occ. eigenvalues --   -0.41079  -0.41065  -0.40870  -0.40721  -0.40608
 Alpha  occ. eigenvalues --   -0.40376  -0.40275  -0.40036  -0.39858  -0.39698
 Alpha  occ. eigenvalues --   -0.38970  -0.38905  -0.37991  -0.37645  -0.37513
 Alpha  occ. eigenvalues --   -0.37466  -0.37144  -0.37079  -0.37012  -0.36687
 Alpha  occ. eigenvalues --   -0.36628  -0.36527  -0.34848  -0.34757  -0.34713
 Alpha  occ. eigenvalues --   -0.34410  -0.33484  -0.33197  -0.31412  -0.31407
 Alpha  occ. eigenvalues --   -0.31214  -0.31202  -0.30978  -0.30948  -0.30263
 Alpha  occ. eigenvalues --   -0.30150  -0.29654  -0.29602  -0.24394  -0.24140
 Alpha  occ. eigenvalues --   -0.20996  -0.20829
 Alpha virt. eigenvalues --   -0.08320  -0.08183  -0.02229  -0.01805   0.00279
 Alpha virt. eigenvalues --    0.00498   0.01653   0.01827   0.02054   0.02740
 Alpha virt. eigenvalues --    0.03439   0.04201   0.05013   0.05036   0.05223

 Mulliken charges:
               1
     1  Mg   0.819065
     2  C   -0.027522
     3  C   -0.090354
     4  C   -0.046288
     5  C   -0.087359
     6  N   -0.261350
     7  C   -0.073431
     8  C   -0.067272
     9  C   -0.064304
    10  C    0.017944
    11  C    0.108034
    12  C    0.065024
    13  C   -0.081531
    14  H    0.029388
    15  N   -0.432494
    16  C    0.196344
    17  C   -0.155237
    18  C   -0.066226
    19  C    0.129223
    20  C    0.128360
    21  C    0.011631
    22  O   -0.165215
    23  C    0.046963
    24  N   -0.260882
    25  C    0.045584
    26  C   -0.043761
    27  C   -0.029942
    28  C    0.049936
    29  C    0.066780
    30  C    0.022698
    31  C    0.021385
    32  N   -0.342428
    33  C    0.111595
    34  C   -0.193844
    35  C    0.033644
    36  C    0.152513
    37  C    0.142362
    38  C    0.016949
    39  O   -0.185157
    40  C    0.043545
    41  C    0.222884
    42  O   -0.216009
    43  O   -0.330698
    44  C    0.180767
    45  H   -0.024249
    46  H   -0.052567
    47  H   -0.027327
    48  H   -0.005466
    49  H   -0.002391
    50  H    0.020570
    51  H    0.016884
    52  H    0.032966
    53  H    0.008342
    54  H    0.031371
    55  H    0.028591
    56  H    0.035492
    57  H    0.032231
    58  H   -0.009160
    59  H    0.027820
    60  H    0.050339
    61  H    0.014676
    62  H    0.046898
    63  H    0.006560
    64  H    0.001272
    65  H    0.023832
    66  H    0.019669
    67  H    0.008308
    68  H    0.019316
    69  H   -0.007798
    70  H    0.021958
    71  H    0.005688
    72  H    0.020187
    73  H    0.016085
    74  H    0.034078
    75  H    0.041576
    76  H    0.030820
    77  H    0.024056
    78  H    0.031515
    79  H    0.036549
    80  Mg   0.851604
    81  C   -0.100130
    82  C   -0.078314
    83  C   -0.099257
    84  C   -0.088970
    85  N   -0.279385
    86  C   -0.081189
    87  C   -0.019349
    88  C   -0.002798
    89  C   -0.000115
    90  C    0.073889
    91  C    0.027084
    92  C   -0.064894
    93  H    0.020888
    94  N   -0.362114
    95  C    0.140217
    96  C   -0.140680
    97  C   -0.078370
    98  C    0.187264
    99  C    0.142637
   100  C    0.026517
   101  O   -0.197131
   102  C    0.035345
   103  N   -0.347409
   104  C    0.055859
   105  C   -0.054219
   106  C   -0.028374
   107  C    0.061094
   108  C    0.055235
   109  C    0.021390
   110  C    0.018571
   111  N   -0.317878
   112  C    0.107217
   113  C   -0.195297
   114  C   -0.057878
   115  C    0.233645
   116  C    0.136020
   117  C    0.071826
   118  O   -0.182084
   119  C    0.008132
   120  C    0.252099
   121  O   -0.249968
   122  O   -0.351337
   123  C    0.193047
   124  H   -0.033192
   125  H   -0.057981
   126  H   -0.041242
   127  H    0.023641
   128  H    0.018847
   129  H    0.021281
   130  H    0.018760
   131  H    0.026160
   132  H    0.015712
   133  H    0.022985
   134  H    0.041897
   135  H    0.033123
   136  H    0.040407
   137  H    0.001800
   138  H    0.020843
   139  H    0.054663
   140  H    0.038698
   141  H    0.026075
   142  H    0.018363
   143  H    0.011700
   144  H    0.016644
   145  H    0.016002
   146  H    0.011105
   147  H    0.024245
   148  H    0.000205
   149  H    0.028355
   150  H    0.019643
   151  H    0.018974
   152  H    0.013663
   153  H    0.031445
   154  H    0.042855
   155  H    0.030564
   156  H    0.050923
   157  H    0.016630
   158  H    0.033767
 Sum of Mulliken charges =  -0.00000

 Dipole moment (field-independent basis, Debye):
    X=              0.3217    Y=              0.9363    Z=              1.3268  Tot=              1.6554
 Quadrupole moment (field-independent basis, Debye-Ang):
   XX=           -254.5852   YY=           -526.9377   ZZ=           -519.1028
   XY=             48.7026   XZ=             19.8372   YZ=              4.3273

 Normal termination of Gaussian 16 at Fri Sep  3 02:07:55 2021.
