 Gaussian 16, Revision A.03,
 Gaussian 16:  ES64L-G16RevA.03 25-Dec-2016

 -----------------------------------
 #p cam-b3lyp/Def2SVP td=(nstates=5)
 -----------------------------------

 --------------------------------
 TDDFT excited states in gaussian
 --------------------------------
 Symbolic Z-matrix:
 Charge =  0 Multiplicity = 1

                         Standard orientation:
 ---------------------------------------------------------------------
 Center     Atomic      Atomic             Coordinates (Angstroms)
 Number     Number       Type             X           Y           Z
 ---------------------------------------------------------------------
      1         12           0       30.282073    0.142138    0.007424
      2          6           0       26.960670   -0.753482    0.002948
      3          6           0       30.959682   -1.950893   -2.616976
      4          6           0       33.614678    1.216917   -0.092577
      5          6           0       29.570546    2.851331    2.027377
      6          7           0       28.975472   -1.023070   -1.271783
      7          6           0       27.660906   -1.423770   -1.017923
      8          6           0       27.148777   -2.380092   -2.097945
      9          6           0       28.502177   -2.804910   -2.722328
     10          6           0       29.579443   -1.808676   -2.246785
     11          6           0       28.832168   -4.296623   -2.496530
     12          6           0       26.192759   -1.685080   -3.087565
     13          6           0       24.919198   -2.488639   -3.523544
     14          1           0       24.417016   -2.225172   -4.889313
     15          7           0       32.003004   -0.344872   -1.134468
     16          6           0       32.102501   -1.287715   -2.099335
     17          6           0       33.457258   -1.564321   -2.472871
     18          6           0       34.270052   -0.757059   -1.660154
     19          6           0       33.286466    0.093618   -0.870321
     20          6           0       33.877460   -2.666208   -3.447705
     21          6           0       35.840813   -0.705572   -1.642591
     22          8           0       36.470566   -1.390493   -2.488756
     23          6           0       36.685752    0.097380   -0.562324
     24          7           0       31.371612    1.978926    0.612321
     25          6           0       32.722528    2.082040    0.579092
     26          6           0       33.244381    3.232596    1.400940
     27          6           0       31.967150    3.805308    2.052448
     28          6           0       30.902083    2.811941    1.581024
     29          6           0       34.390269    2.856975    2.398082
     30          6           0       31.719214    5.350926    1.708555
     31          6           0       32.025106    6.318993    2.857296
     32          7           0       28.640391    0.893535    0.906853
     33          6           0       28.457837    2.008686    1.754010
     34          6           0       27.112151    1.955865    2.340424
     35          6           0       26.544724    0.847070    1.728099
     36          6           0       27.471676    0.345400    0.799675
     37          6           0       26.457953    2.859855    3.323005
     38          6           0       25.309932    0.054108    1.644493
     39          8           0       24.298472    0.019945    2.364515
     40          6           0       25.544991   -1.056093    0.543270
     41          6           0       25.438515   -2.455484    1.134264
     42          8           0       25.936484   -2.870138    2.185679
     43          8           0       24.612363   -3.104642    0.265613
     44          6           0       24.173435   -4.433427    0.657799
     45          1           0       31.189667   -2.618944   -3.449494
     46          1           0       34.633649    1.590061    0.030005
     47          1           0       29.280432    3.679668    2.676841
     48          1           0       26.601317   -3.199190   -1.630428
     49          1           0       28.337148   -2.666201   -3.790753
     50          1           0       28.028412   -4.995569   -2.265217
     51          1           0       29.468980   -4.322282   -1.612400
     52          1           0       29.352638   -4.736730   -3.346806
     53          1           0       26.700896   -1.313248   -3.976890
     54          1           0       25.937857   -0.738535   -2.610324
     55          1           0       24.113654   -2.283062   -2.818659
     56          1           0       25.165405   -3.551383   -3.520349
     57          1           0       34.563558   -3.302884   -2.889582
     58          1           0       34.184511   -2.221653   -4.394458
     59          1           0       32.971961   -3.254788   -3.594904
     60          1           0       36.750968    1.120161   -0.931636
     61          1           0       37.675650   -0.358237   -0.553776
     62          1           0       36.244386   -0.139378    0.406167
     63          1           0       33.668845    3.967106    0.716402
     64          1           0       31.869705    3.670021    3.129368
     65          1           0       34.222099    3.289950    3.383778
     66          1           0       35.370246    3.188092    2.054902
     67          1           0       34.486669    1.772669    2.435321
     68          1           0       30.677194    5.562366    1.468929
     69          1           0       32.262927    5.623510    0.804091
     70          1           0       32.495999    7.219533    2.462708
     71          1           0       32.701998    5.844487    3.567436
     72          1           0       31.146177    6.623206    3.425363
     73          1           0       27.209636    3.574488    3.658287
     74          1           0       25.890467    2.274401    4.046675
     75          1           0       25.763211    3.471826    2.746744
     76          1           0       24.866319   -0.951802   -0.303687
     77          1           0       24.970074   -5.062548    1.056911
     78          1           0       23.659647   -5.028973   -0.096793
     79          1           0       23.415229   -4.353579    1.437225
     80         12           0      -30.444226    0.400468   -0.197271
     81          6           0      -27.555622   -0.520604    1.628689
     82          6           0      -31.640806   -2.714005    0.310188
     83          6           0      -33.029277    1.265097   -2.010620
     84          6           0      -28.659540    3.339469   -1.219531
     85          7           0      -29.643926   -1.499045    0.780106
     86          6           0      -28.569455   -1.501223    1.653766
     87          6           0      -28.649220   -2.769351    2.433062
     88          6           0      -29.586918   -3.665921    1.623926
     89          6           0      -30.389967   -2.591573    0.848692
     90          6           0      -28.774772   -4.576814    0.628738
     91          6           0      -29.125683   -2.647974    3.979295
     92          6           0      -28.409967   -3.470540    5.094191
     93          1           0      -28.216805   -4.991482    4.827953
     94          7           0      -32.113330   -0.639950   -0.770572
     95          6           0      -32.407225   -1.864743   -0.447175
     96          6           0      -33.682603   -2.219309   -1.093692
     97          6           0      -34.243037   -1.013171   -1.613201
     98          6           0      -33.107125   -0.054094   -1.505844
     99          6           0      -34.380898   -3.624847   -1.184546
    100          6           0      -35.626340   -0.696275   -2.180575
    101          8           0      -35.935145    0.387922   -2.710965
    102          6           0      -36.588484   -1.780875   -2.300497
    103          7           0      -30.697779    2.048403   -1.602851
    104          6           0      -31.963804    2.229665   -2.153399
    105          6           0      -32.032534    3.660107   -2.814732
    106          6           0      -30.684046    4.304916   -2.408070
    107          6           0      -29.966196    3.181766   -1.656322
    108          6           0      -32.367057    3.613670   -4.305876
    109          6           0      -30.771116    5.662018   -1.665430
    110          6           0      -29.726436    6.745791   -2.020161
    111          7           0      -28.519940    1.267788    0.091190
    112          6           0      -27.921388    2.417207   -0.415040
    113          6           0      -26.651973    2.599855    0.241608
    114          6           0      -26.447818    1.447288    1.001776
    115          6           0      -27.615850    0.641300    0.908455
    116          6           0      -25.805069    3.715640    0.151886
    117          6           0      -25.546617    0.766547    1.943277
    118          8           0      -24.468321    1.072187    2.427264
    119          6           0      -26.262115   -0.544285    2.407134
    120          6           0      -25.333298   -1.702160    2.087969
    121          8           0      -25.127661   -2.352973    1.088589
    122          8           0      -24.784909   -1.963207    3.310378
    123          6           0      -24.073551   -3.251816    3.486285
    124          1           0      -32.080179   -3.687326    0.540011
    125          1           0      -33.986036    1.586683   -2.427177
    126          1           0      -28.197110    4.321266   -1.336861
    127          1           0      -27.713823   -3.316432    2.553296
    128          1           0      -30.322369   -4.175819    2.245716
    129          1           0      -29.230615   -5.549753    0.448298
    130          1           0      -27.797488   -4.869464    1.013413
    131          1           0      -28.772336   -4.028051   -0.312423
    132          1           0      -30.205694   -2.780664    4.033927
    133          1           0      -29.043878   -1.610108    4.304292
    134          1           0      -29.125530   -3.411672    5.915119
    135          1           0      -27.479907   -2.914515    5.212442
    136          1           0      -35.299612   -3.728069   -0.607574
    137          1           0      -33.655094   -4.360736   -0.837321
    138          1           0      -34.760493   -3.892149   -2.170765
    139          1           0      -36.734528   -2.280028   -1.342210
    140          1           0      -36.262053   -2.507757   -3.044370
    141          1           0      -37.559268   -1.320587   -2.481761
    142          1           0      -32.781591    4.214038   -2.248693
    143          1           0      -30.026860    4.395405   -3.272734
    144          1           0      -31.440747    3.536901   -4.876177
    145          1           0      -32.834454    4.518015   -4.694186
    146          1           0      -32.835706    2.656854   -4.533657
    147          1           0      -30.818661    5.572210   -0.580287
    148          1           0      -31.741568    6.132844   -1.828070
    149          1           0      -28.973023    6.652541   -1.237864
    150          1           0      -30.249489    7.691333   -1.873537
    151          1           0      -29.324525    6.568896   -3.017420
    152          1           0      -24.743321    3.614193    0.375474
    153          1           0      -26.256420    4.499124    0.761416
    154          1           0      -25.826681    4.007196   -0.897552
    155          1           0      -26.478178   -0.493785    3.474153
    156          1           0      -24.410070   -3.619810    4.455106
    157          1           0      -22.985459   -3.201394    3.517419
    158          1           0      -24.387127   -3.957674    2.717619
 ---------------------------------------------------------------------

 SCF Done:  E(RCAM-B3LYP) =  -4069.82218176     A.U. after   19 cycles

 Excitation energies and oscillator strengths:

 Excited State   1:      Singlet-A      1.7088 eV  725.57 nm  f=0.3670  <S**2>=0.000
     309 -> 316        0.17445
     311 -> 313        0.68605
     309 <- 316        0.10517
 This state for optimization and/or second-order correction.
 Total Energy, E(TD-HF/TD-DFT) =  -4069.75938549
 Copying the excited state density for this state as the 1-particle RhoCI density.

 Excited State   2:      Singlet-A      1.7330 eV  715.44 nm  f=0.3818  <S**2>=0.000
     310 -> 315        0.19055
     312 -> 314        0.68149
     310 <- 315        0.10757

 Excited State   3:      Singlet-A      2.2475 eV  551.64 nm  f=0.0931  <S**2>=0.000
     309 -> 313        0.62547
     311 -> 316       -0.31550

 Excited State   4:      Singlet-A      2.2617 eV  548.20 nm  f=0.0687  <S**2>=0.000
     310 -> 314        0.62175
     312 -> 315       -0.32225

 Excited State   5:      Singlet-A      3.2164 eV  385.48 nm  f=0.0000  <S**2>=0.000
     312 -> 313        0.70710

 The electronic state is 1-A.
 Alpha  occ. eigenvalues --  -46.89361 -46.89167 -19.26353 -19.24349 -19.20256
 Alpha  occ. eigenvalues --  -19.20021 -19.19678 -19.19250 -19.18672 -19.18438
 Alpha  occ. eigenvalues --  -14.42400 -14.42166 -14.41769 -14.41416 -14.40221
 Alpha  occ. eigenvalues --  -14.39850 -14.39101 -14.38947 -10.39947 -10.39223
 Alpha  occ. eigenvalues --  -10.36670 -10.35516 -10.34806 -10.34744 -10.32192
 Alpha  occ. eigenvalues --  -10.32041 -10.31690 -10.31586 -10.31443 -10.31178
 Alpha  occ. eigenvalues --  -10.31086 -10.30805 -10.30742 -10.30473 -10.30392
 Alpha  occ. eigenvalues --  -10.30332 -10.30033 -10.29978 -10.29857 -10.29668
 Alpha  occ. eigenvalues --  -10.29535 -10.29446 -10.28804 -10.28486 -10.28471
 Alpha  occ. eigenvalues --  -10.28343 -10.28204 -10.28151 -10.28013 -10.28008
 Alpha  occ. eigenvalues --  -10.27963 -10.27909 -10.27906 -10.27889 -10.27735
 Alpha  occ. eigenvalues --  -10.27703 -10.27703 -10.27659 -10.27604 -10.27573
 Alpha  occ. eigenvalues --  -10.27523 -10.27473 -10.27466 -10.27345 -10.27307
 Alpha  occ. eigenvalues --  -10.27288 -10.27174 -10.26981 -10.26908 -10.26729
 Alpha  occ. eigenvalues --  -10.26681 -10.26561 -10.26532 -10.26364 -10.26274
 Alpha  occ. eigenvalues --  -10.26197 -10.26046 -10.26042 -10.25964 -10.25796
 Alpha  occ. eigenvalues --  -10.25756 -10.25704 -10.25619 -10.25248 -10.24787
 Alpha  occ. eigenvalues --  -10.24580  -3.17749  -3.17699  -1.92646  -1.92566
 Alpha  occ. eigenvalues --   -1.92206  -1.92142  -1.92041  -1.92030  -1.16828
 Alpha  occ. eigenvalues --   -1.16105  -1.09581  -1.09356  -1.08611  -1.08351
 Alpha  occ. eigenvalues --   -1.07750  -1.07743  -1.05144  -1.04668  -1.03996
 Alpha  occ. eigenvalues --   -1.03931  -1.03512  -1.03046  -1.02143  -1.02060
 Alpha  occ. eigenvalues --   -0.92757  -0.91411  -0.88872  -0.88869  -0.88830
 Alpha  occ. eigenvalues --   -0.88687  -0.88468  -0.87976  -0.87553  -0.87271
 Alpha  occ. eigenvalues --   -0.87118  -0.86980  -0.86876  -0.86385  -0.84306
 Alpha  occ. eigenvalues --   -0.84223  -0.83889  -0.83583  -0.82722  -0.82499
 Alpha  occ. eigenvalues --   -0.82459  -0.81631  -0.81492  -0.81114  -0.80586
 Alpha  occ. eigenvalues --   -0.80183  -0.78378  -0.77930  -0.77470  -0.77441
 Alpha  occ. eigenvalues --   -0.77023  -0.76737  -0.75880  -0.75851  -0.75286
 Alpha  occ. eigenvalues --   -0.75108  -0.72699  -0.72499  -0.71808  -0.71717
 Alpha  occ. eigenvalues --   -0.69190  -0.68961  -0.68888  -0.68744  -0.67877
 Alpha  occ. eigenvalues --   -0.67688  -0.67356  -0.67244  -0.66122  -0.65467
 Alpha  occ. eigenvalues --   -0.65300  -0.65070  -0.65038  -0.64985  -0.64549
 Alpha  occ. eigenvalues --   -0.64318  -0.62679  -0.61928  -0.60472  -0.59938
 Alpha  occ. eigenvalues --   -0.59595  -0.59587  -0.59225  -0.58914  -0.58599
 Alpha  occ. eigenvalues --   -0.58310  -0.57933  -0.57721  -0.57491  -0.57227
 Alpha  occ. eigenvalues --   -0.56144  -0.55959  -0.55887  -0.55749  -0.55336
 Alpha  occ. eigenvalues --   -0.55193  -0.55008  -0.54453  -0.53758  -0.53689
 Alpha  occ. eigenvalues --   -0.53558  -0.53363  -0.53237  -0.53215  -0.53131
 Alpha  occ. eigenvalues --   -0.52939  -0.52788  -0.52590  -0.52418  -0.52111
 Alpha  occ. eigenvalues --   -0.52006  -0.51675  -0.51578  -0.51559  -0.51348
 Alpha  occ. eigenvalues --   -0.51194  -0.51174  -0.51091  -0.50863  -0.50790
 Alpha  occ. eigenvalues --   -0.50404  -0.49967  -0.49936  -0.49599  -0.49454
 Alpha  occ. eigenvalues --   -0.49349  -0.49320  -0.49048  -0.48974  -0.48827
 Alpha  occ. eigenvalues --   -0.48503  -0.48259  -0.48167  -0.48137  -0.47838
 Alpha  occ. eigenvalues --   -0.47676  -0.47652  -0.47467  -0.47380  -0.47171
 Alpha  occ. eigenvalues --   -0.47123  -0.46885  -0.46855  -0.46639  -0.46569
 Alpha  occ. eigenvalues --   -0.46377  -0.46245  -0.45997  -0.45910  -0.45560
 Alpha  occ. eigenvalues --   -0.45539  -0.45243  -0.45022  -0.44917  -0.44766
 Alpha  occ. eigenvalues --   -0.44682  -0.44425  -0.44343  -0.44112  -0.44037
 Alpha  occ. eigenvalues --   -0.43839  -0.43783  -0.43762  -0.43675  -0.43473
 Alpha  occ. eigenvalues --   -0.43272  -0.43009  -0.42957  -0.42936  -0.42711
 Alpha  occ. eigenvalues --   -0.42463  -0.42446  -0.42295  -0.42153  -0.42111
 Alpha  occ. eigenvalues --   -0.41950  -0.41907  -0.41571  -0.41529  -0.41230
 Alpha  occ. eigenvalues --   -0.41141  -0.40857  -0.40789  -0.40596  -0.40542
 Alpha  occ. eigenvalues --   -0.40238  -0.39844  -0.39707  -0.39603  -0.39353
 Alpha  occ. eigenvalues --   -0.38765  -0.38672  -0.38376  -0.38147  -0.37655
 Alpha  occ. eigenvalues --   -0.37384  -0.37373  -0.36845  -0.36515  -0.36439
 Alpha  occ. eigenvalues --   -0.36408  -0.35920  -0.34861  -0.34786  -0.34653
 Alpha  occ. eigenvalues --   -0.33890  -0.33093  -0.33025  -0.31679  -0.31575
 Alpha  occ. eigenvalues --   -0.31192  -0.31161  -0.30550  -0.30486  -0.30453
 Alpha  occ. eigenvalues --   -0.30444  -0.29828  -0.29249  -0.24192  -0.23960
 Alpha  occ. eigenvalues --   -0.21075  -0.20961
 Alpha virt. eigenvalues --   -0.08573  -0.08269  -0.02050  -0.02015  -0.00128
 Alpha virt. eigenvalues --    0.00179   0.01644   0.01762   0.01987   0.02329
 Alpha virt. eigenvalues --    0.04996   0.05056   0.05206   0.05789   0.05979

 Mulliken charges:
               1
     1  Mg   0.836073
     2  C   -0.065970
     3  C   -0.099851
     4  C   -0.076412
     5  C   -0.074275
     6  N   -0.335324
     7  C   -0.053002
     8  C   -0.007715
     9  C   -0.038868
    10  C    0.100361
    11  C    0.060687
    12  C    0.062705
    13  C   -0.070250
    14  H    0.025974
    15  N   -0.347176
    16  C    0.138444
    17  C   -0.175744
    18  C   -0.042932
    19  C    0.173853
    20  C    0.164805
    21  C    0.001193
    22  O   -0.229647
    23  C    0.054730
    24  N   -0.257133
    25  C   -0.006410
    26  C   -0.021873
    27  C   -0.004529
    28  C    0.016313
    29  C    0.057142
    30  C    0.038577
    31  C   -0.002759
    32  N   -0.349127
    33  C    0.092003
    34  C   -0.191245
    35  C    0.000954
    36  C    0.118566
    37  C    0.151208
    38  C    0.079098
    39  O   -0.194567
    40  C    0.005633
    41  C    0.224941
    42  O   -0.217100
    43  O   -0.326155
    44  C    0.174536
    45  H   -0.017154
    46  H   -0.042499
    47  H   -0.036553
    48  H    0.000630
    49  H    0.005443
    50  H    0.014666
    51  H    0.013581
    52  H    0.016651
    53  H    0.006698
    54  H    0.005810
    55  H    0.043403
    56  H    0.028568
    57  H    0.042058
    58  H    0.047484
    59  H   -0.009950
    60  H    0.058751
    61  H    0.031673
    62  H    0.040085
    63  H    0.020117
    64  H    0.008842
    65  H    0.024608
    66  H    0.011777
    67  H    0.017597
    68  H    0.008266
    69  H    0.004647
    70  H    0.016476
    71  H    0.008711
    72  H    0.019605
    73  H   -0.000748
    74  H    0.052466
    75  H    0.027046
    76  H    0.034523
    77  H    0.037764
    78  H    0.033798
    79  H    0.035428
    80  Mg   0.808061
    81  C   -0.037971
    82  C   -0.089791
    83  C   -0.053015
    84  C   -0.086845
    85  N   -0.255088
    86  C    0.011442
    87  C   -0.052133
    88  C   -0.029223
    89  C   -0.033330
    90  C    0.087625
    91  C    0.015887
    92  C   -0.056954
    93  H    0.015488
    94  N   -0.338739
    95  C    0.178081
    96  C   -0.150799
    97  C   -0.029506
    98  C    0.090571
    99  C    0.102821
   100  C    0.020441
   101  O   -0.219874
   102  C    0.059544
   103  N   -0.286775
   104  C    0.009233
   105  C   -0.007533
   106  C   -0.009757
   107  C    0.041939
   108  C    0.096750
   109  C    0.007916
   110  C    0.017130
   111  N   -0.353020
   112  C    0.116917
   113  C   -0.178599
   114  C    0.026942
   115  C    0.138500
   116  C    0.109214
   117  C    0.030121
   118  O   -0.162835
   119  C   -0.011637
   120  C    0.215727
   121  O   -0.195415
   122  O   -0.342980
   123  C    0.168214
   124  H   -0.039318
   125  H   -0.000881
   126  H   -0.036914
   127  H    0.001997
   128  H   -0.005760
   129  H    0.006473
   130  H    0.024728
   131  H    0.035954
   132  H   -0.001571
   133  H   -0.000264
   134  H    0.042176
   135  H    0.049217
   136  H    0.021992
   137  H    0.018332
   138  H    0.019675
   139  H    0.017021
   140  H    0.053762
   141  H    0.028146
   142  H    0.011537
   143  H    0.009125
   144  H   -0.005881
   145  H    0.023801
   146  H    0.026162
   147  H   -0.000017
   148  H   -0.001197
   149  H    0.023411
   150  H    0.015933
   151  H    0.024086
   152  H    0.035017
   153  H    0.030447
   154  H    0.016865
   155  H    0.051183
   156  H    0.029860
   157  H    0.045950
   158  H    0.042209
 Sum of Mulliken charges =  -0.00000

 Dipole moment (field-independent basis, Debye):
    X=             -1.6104    Y=             -0.4302    Z=              0.9397  Tot=              1.9135
 Quadrupole moment (field-independent basis, Debye-Ang):
   XX=           -201.5802   YY=           -452.0920   ZZ=           -517.8236
   XY=             96.8063   XZ=            -49.0820   YZ=              1.2614

 Normal termination of Gaussian 16 at Thu Sep 16 11:51:41 2021.
