 Gaussian 16, Revision A.03,
 Gaussian 16:  ES64L-G16RevA.03 25-Dec-2016

 -----------------------------------
 #p cam-b3lyp/Def2SVP td=(nstates=5)
 -----------------------------------

 --------------------------------
 TDDFT excited states in gaussian
 --------------------------------
 Symbolic Z-matrix:
 Charge =  0 Multiplicity = 1

                         Standard orientation:
 ---------------------------------------------------------------------
 Center     Atomic      Atomic             Coordinates (Angstroms)
 Number     Number       Type             X           Y           Z
 ---------------------------------------------------------------------
      1         12           0      -23.659749    0.431694    0.269026
      2          6           0      -22.638505   -2.488636   -1.225146
      3          6           0      -22.395711    2.192412   -2.552623
      4          6           0      -24.107752    3.401585    1.821027
      5          6           0      -24.543023   -1.202001    3.062144
      6          7           0      -22.626494   -0.102777   -1.670786
      7          6           0      -22.315394   -1.388113   -2.025030
      8          6           0      -21.726739   -1.442454   -3.436580
      9          6           0      -21.493123    0.112839   -3.720919
     10          6           0      -22.207869    0.786498   -2.586245
     11          6           0      -19.983239    0.515734   -3.898754
     12          6           0      -22.696418   -2.118442   -4.510145
     13          6           0      -22.205952   -3.102989   -5.544312
     14          1           0      -20.975325   -2.770206   -6.310716
     15          7           0      -23.356957    2.547231   -0.286668
     16          6           0      -23.018361    3.034488   -1.500598
     17          6           0      -23.172356    4.449659   -1.555626
     18          6           0      -23.708703    4.839017   -0.287803
     19          6           0      -23.670880    3.566674    0.493255
     20          6           0      -22.742771    5.169063   -2.793339
     21          6           0      -24.004159    6.235665    0.231823
     22          8           0      -24.197176    6.468896    1.429081
     23          6           0      -24.051538    7.413847   -0.725189
     24          7           0      -24.108332    1.043265    2.259187
     25          6           0      -24.362662    2.332127    2.607285
     26          6           0      -24.956400    2.404661    4.013074
     27          6           0      -25.254362    0.888985    4.325680
     28          6           0      -24.606958    0.189823    3.146613
     29          6           0      -24.231937    3.173335    5.157403
     30          6           0      -26.768950    0.498243    4.585978
     31          6           0      -27.643233    0.016385    3.447651
     32          7           0      -23.527621   -1.416286    0.877351
     33          6           0      -24.046150   -2.034099    1.986996
     34          6           0      -23.802979   -3.430166    2.020029
     35          6           0      -23.291268   -3.674625    0.749493
     36          6           0      -23.165648   -2.425155    0.089467
     37          6           0      -24.098464   -4.516480    3.045969
     38          6           0      -22.805014   -4.646267   -0.128915
     39          8           0      -22.664847   -5.838852    0.070699
     40          6           0      -22.306154   -3.941794   -1.512241
     41          6           0      -20.885288   -4.226080   -1.670890
     42          8           0      -19.971047   -3.825391   -0.923497
     43          8           0      -20.611415   -5.045289   -2.720529
     44          6           0      -19.283970   -5.664014   -2.808980
     45          1           0      -22.054477    2.612812   -3.500534
     46          1           0      -24.527098    4.318332    2.240271
     47          1           0      -25.138748   -1.783720    3.767626
     48          1           0      -20.836255   -2.071906   -3.412917
     49          1           0      -21.938142    0.414715   -4.669188
     50          1           0      -19.872538    0.950204   -4.891682
     51          1           0      -19.430575   -0.403178   -3.702375
     52          1           0      -19.639948    1.330926   -3.261075
     53          1           0      -23.089733   -1.238463   -5.019408
     54          1           0      -23.608596   -2.481606   -4.037885
     55          1           0      -23.023383   -3.383365   -6.208574
     56          1           0      -21.893931   -3.981158   -4.980168
     57          1           0      -23.551371    5.868678   -3.001841
     58          1           0      -22.700604    4.486901   -3.642806
     59          1           0      -21.791652    5.699728   -2.738266
     60          1           0      -24.568745    7.204435   -1.662001
     61          1           0      -23.062547    7.868818   -0.795045
     62          1           0      -24.680869    8.143421   -0.214620
     63          1           0      -25.844887    3.020103    3.870312
     64          1           0      -24.845529    0.567632    5.282904
     65          1           0      -23.834017    2.471731    5.890414
     66          1           0      -24.991794    3.790400    5.636641
     67          1           0      -23.454514    3.760988    4.670399
     68          1           0      -27.244266    1.380437    5.012663
     69          1           0      -26.820813   -0.297193    5.329755
     70          1           0      -28.574134    0.580353    3.384246
     71          1           0      -27.893276   -1.043692    3.507512
     72          1           0      -27.044587    0.178572    2.551296
     73          1           0      -24.627482   -4.073624    3.890711
     74          1           0      -23.160707   -4.974130    3.362047
     75          1           0      -24.720111   -5.276718    2.573842
     76          1           0      -22.871929   -4.527041   -2.237725
     77          1           0      -19.259553   -6.581085   -3.397771
     78          1           0      -18.757122   -5.784191   -1.862835
     79          1           0      -18.710431   -4.999065   -3.454918
     80         12           0       23.326014    0.581573   -0.411188
     81          6           0       22.437145   -2.650115    0.693566
     82          6           0       19.983798    1.537301   -0.121606
     83          6           0       24.373667    3.824044   -0.467661
     84          6           0       26.734192   -0.483144   -0.127355
     85          7           0       21.479696   -0.448939    0.171623
     86          6           0       21.361622   -1.723498    0.600436
     87          6           0       19.901179   -2.025388    1.069638
     88          6           0       19.133070   -0.781909    0.424290
     89          6           0       20.285899    0.215749    0.079678
     90          6           0       18.291749   -0.950308   -0.861219
     91          6           0       19.869652   -2.064407    2.644348
     92          6           0       18.890252   -3.117829    3.232357
     93          1           0       18.068655   -2.652487    4.502824
     94          7           0       22.288971    2.477597   -0.514231
     95          6           0       20.927360    2.595712   -0.424388
     96          6           0       20.628617    3.967317   -0.590681
     97          6           0       21.848318    4.706276   -0.628074
     98          6           0       22.938646    3.674974   -0.588898
     99          6           0       19.236561    4.552739   -0.620891
    100          6           0       21.999524    6.187506   -0.555049
    101          8           0       21.042791    6.926467   -0.386691
    102          6           0       23.255266    6.890132   -0.602543
    103          7           0       25.327205    1.518084   -0.196666
    104          6           0       25.452746    2.895131   -0.432489
    105          6           0       26.894036    3.277671   -0.561481
    106          6           0       27.682720    1.926870   -0.390453
    107          6           0       26.557547    0.919700   -0.226678
    108          6           0       27.107814    3.968930   -1.914154
    109          6           0       28.843512    2.000253    0.671723
    110          6           0       30.221037    1.652229    0.194965
    111          7           0       24.438058   -1.224744    0.132276
    112          6           0       25.787835   -1.477803    0.133942
    113          6           0       26.042944   -2.916159    0.368010
    114          6           0       24.724488   -3.360176    0.653288
    115          6           0       23.818202   -2.344176    0.414320
    116          6           0       27.364864   -3.657806    0.489929
    117          6           0       23.994390   -4.489138    1.165705
    118          8           0       24.405768   -5.593497    1.554316
    119          6           0       22.507153   -4.139321    1.209521
    120          6           0       21.706618   -5.108946    0.438755
    121          8           0       20.845589   -5.748082    0.925291
    122          8           0       21.921656   -5.049039   -0.907778
    123          6           0       20.911983   -5.848390   -1.635177
    124          1           0       18.937488    1.851291   -0.117006
    125          1           0       24.635557    4.877197   -0.581026
    126          1           0       27.694590   -0.975817    0.041459
    127          1           0       19.603470   -2.986254    0.649506
    128          1           0       18.631610   -0.125226    1.135023
    129          1           0       18.659123   -1.793433   -1.447375
    130          1           0       18.219787   -0.078383   -1.511427
    131          1           0       17.289552   -1.211150   -0.522798
    132          1           0       19.658835   -1.075290    3.051918
    133          1           0       20.891093   -2.315633    2.930244
    134          1           0       19.544269   -3.951846    3.487478
    135          1           0       18.291810   -3.396322    2.364659
    136          1           0       19.130388    5.522934   -1.106395
    137          1           0       18.971208    4.625213    0.433484
    138          1           0       18.431271    3.881555   -0.919484
    139          1           0       23.706924    6.660326   -1.568428
    140          1           0       23.891986    6.617313    0.239527
    141          1           0       23.054598    7.959106   -0.530343
    142          1           0       27.210632    3.873511    0.294247
    143          1           0       28.077329    1.454752   -1.290439
    144          1           0       26.177955    4.280238   -2.390745
    145          1           0       27.596030    3.309556   -2.631770
    146          1           0       27.558073    4.948137   -1.754033
    147          1           0       28.529818    1.319877    1.463429
    148          1           0       29.037901    3.004841    1.045601
    149          1           0       30.595878    0.864809    0.848295
    150          1           0       30.910001    2.490920    0.296808
    151          1           0       30.262599    1.425215   -0.870367
    152          1           0       27.803941   -3.575051    1.484351
    153          1           0       28.086114   -3.381382   -0.280183
    154          1           0       27.026604   -4.690849    0.410244
    155          1           0       22.128789   -4.276403    2.221696
    156          1           0       21.129667   -5.765096   -2.700285
    157          1           0       19.906197   -5.489392   -1.417407
    158          1           0       20.987690   -6.923001   -1.472729
 ---------------------------------------------------------------------

 SCF Done:  E(RCAM-B3LYP) =  -4069.80852779     A.U. after   19 cycles

 Excitation energies and oscillator strengths:

 Excited State   1:      Singlet-A      1.6804 eV  737.81 nm  f=0.4016  <S**2>=0.000
     309 -> 315        0.17286
     311 -> 313        0.68699
     309 <- 315        0.10656
 This state for optimization and/or second-order correction.
 Total Energy, E(TD-HF/TD-DFT) =  -4069.74677275
 Copying the excited state density for this state as the 1-particle RhoCI density.

 Excited State   2:      Singlet-A      1.7199 eV  720.86 nm  f=0.4218  <S**2>=0.000
     310 -> 316        0.17811
     312 -> 314        0.68654
     310 <- 316        0.10694

 Excited State   3:      Singlet-A      2.1905 eV  566.01 nm  f=0.1754  <S**2>=0.000
     310 -> 314        0.66248
     312 -> 316       -0.23743

 Excited State   4:      Singlet-A      2.2017 eV  563.14 nm  f=0.1135  <S**2>=0.000
     309 -> 313        0.64202
     311 -> 315       -0.28114

 Excited State   5:      Singlet-A      3.0870 eV  401.63 nm  f=0.0000  <S**2>=0.000
     312 -> 313        0.70711

 The electronic state is 1-A.
 Alpha  occ. eigenvalues --  -46.90845 -46.89107 -19.25120 -19.25080 -19.19924
 Alpha  occ. eigenvalues --  -19.18873 -19.18852 -19.18599 -19.18533 -19.17329
 Alpha  occ. eigenvalues --  -14.42983 -14.42710 -14.42135 -14.41542 -14.39914
 Alpha  occ. eigenvalues --  -14.39579 -14.39502 -14.39308 -10.38944 -10.38738
 Alpha  occ. eigenvalues --  -10.35362 -10.34780 -10.34526 -10.33513 -10.32251
 Alpha  occ. eigenvalues --  -10.31993 -10.31868 -10.31829 -10.31628 -10.31075
 Alpha  occ. eigenvalues --  -10.31072 -10.30996 -10.30877 -10.30427 -10.30191
 Alpha  occ. eigenvalues --  -10.30128 -10.30074 -10.30052 -10.29882 -10.29866
 Alpha  occ. eigenvalues --  -10.29316 -10.29091 -10.29040 -10.29010 -10.28917
 Alpha  occ. eigenvalues --  -10.28776 -10.28581 -10.28513 -10.28470 -10.28456
 Alpha  occ. eigenvalues --  -10.28433 -10.28358 -10.28275 -10.28178 -10.28156
 Alpha  occ. eigenvalues --  -10.28006 -10.28002 -10.27975 -10.27757 -10.27682
 Alpha  occ. eigenvalues --  -10.27548 -10.27499 -10.27488 -10.27458 -10.27314
 Alpha  occ. eigenvalues --  -10.27049 -10.26977 -10.26913 -10.26868 -10.26815
 Alpha  occ. eigenvalues --  -10.26669 -10.26606 -10.26526 -10.26418 -10.26398
 Alpha  occ. eigenvalues --  -10.26231 -10.26178 -10.26066 -10.25759 -10.25711
 Alpha  occ. eigenvalues --  -10.25458 -10.25299 -10.25267 -10.25206 -10.25040
 Alpha  occ. eigenvalues --  -10.24621  -3.18992  -3.17716  -1.93906  -1.93428
 Alpha  occ. eigenvalues --   -1.93288  -1.92599  -1.92132  -1.92065  -1.17980
 Alpha  occ. eigenvalues --   -1.15863  -1.09892  -1.09561  -1.09458  -1.09048
 Alpha  occ. eigenvalues --   -1.08963  -1.05857  -1.05375  -1.05123  -1.04642
 Alpha  occ. eigenvalues --   -1.04155  -1.03758  -1.03481  -1.03444  -1.02544
 Alpha  occ. eigenvalues --   -0.92638  -0.92615  -0.89433  -0.89029  -0.89022
 Alpha  occ. eigenvalues --   -0.88258  -0.88244  -0.88202  -0.88070  -0.87783
 Alpha  occ. eigenvalues --   -0.87419  -0.87024  -0.86424  -0.85832  -0.84891
 Alpha  occ. eigenvalues --   -0.84664  -0.84286  -0.83768  -0.82722  -0.82685
 Alpha  occ. eigenvalues --   -0.82524  -0.81843  -0.81168  -0.80937  -0.80561
 Alpha  occ. eigenvalues --   -0.80325  -0.78669  -0.78391  -0.77622  -0.77480
 Alpha  occ. eigenvalues --   -0.77102  -0.76878  -0.76505  -0.76254  -0.75495
 Alpha  occ. eigenvalues --   -0.75441  -0.73544  -0.73155  -0.72528  -0.71548
 Alpha  occ. eigenvalues --   -0.69635  -0.69383  -0.69275  -0.69216  -0.68132
 Alpha  occ. eigenvalues --   -0.67967  -0.67131  -0.66908  -0.66362  -0.65722
 Alpha  occ. eigenvalues --   -0.65637  -0.65123  -0.65006  -0.64771  -0.64660
 Alpha  occ. eigenvalues --   -0.64213  -0.63317  -0.62247  -0.60181  -0.60090
 Alpha  occ. eigenvalues --   -0.60033  -0.59837  -0.59070  -0.59003  -0.58899
 Alpha  occ. eigenvalues --   -0.58319  -0.58297  -0.57915  -0.57294  -0.57088
 Alpha  occ. eigenvalues --   -0.56519  -0.56245  -0.56091  -0.55566  -0.55409
 Alpha  occ. eigenvalues --   -0.55145  -0.54983  -0.54881  -0.54563  -0.54077
 Alpha  occ. eigenvalues --   -0.53515  -0.53393  -0.53305  -0.53207  -0.53133
 Alpha  occ. eigenvalues --   -0.52834  -0.52792  -0.52667  -0.52598  -0.52276
 Alpha  occ. eigenvalues --   -0.52225  -0.52086  -0.51766  -0.51481  -0.51439
 Alpha  occ. eigenvalues --   -0.51341  -0.50900  -0.50760  -0.50567  -0.50274
 Alpha  occ. eigenvalues --   -0.50056  -0.49868  -0.49845  -0.49574  -0.49541
 Alpha  occ. eigenvalues --   -0.49278  -0.49234  -0.49095  -0.49048  -0.48799
 Alpha  occ. eigenvalues --   -0.48763  -0.48629  -0.48565  -0.48408  -0.48215
 Alpha  occ. eigenvalues --   -0.48213  -0.47827  -0.47548  -0.47536  -0.47340
 Alpha  occ. eigenvalues --   -0.47147  -0.46971  -0.46857  -0.46805  -0.46692
 Alpha  occ. eigenvalues --   -0.46523  -0.46364  -0.46340  -0.46169  -0.45961
 Alpha  occ. eigenvalues --   -0.45890  -0.45768  -0.45318  -0.45147  -0.45099
 Alpha  occ. eigenvalues --   -0.44992  -0.44864  -0.44693  -0.44488  -0.44360
 Alpha  occ. eigenvalues --   -0.44024  -0.43944  -0.43928  -0.43628  -0.43604
 Alpha  occ. eigenvalues --   -0.43374  -0.43338  -0.43215  -0.43012  -0.42966
 Alpha  occ. eigenvalues --   -0.42888  -0.42656  -0.42306  -0.42230  -0.41883
 Alpha  occ. eigenvalues --   -0.41828  -0.41790  -0.41522  -0.41322  -0.41288
 Alpha  occ. eigenvalues --   -0.41115  -0.41036  -0.40801  -0.40625  -0.40144
 Alpha  occ. eigenvalues --   -0.39991  -0.39837  -0.39641  -0.39526  -0.39243
 Alpha  occ. eigenvalues --   -0.38685  -0.38514  -0.38236  -0.37906  -0.37646
 Alpha  occ. eigenvalues --   -0.37345  -0.37245  -0.36897  -0.36611  -0.36411
 Alpha  occ. eigenvalues --   -0.36031  -0.35674  -0.34930  -0.34557  -0.34142
 Alpha  occ. eigenvalues --   -0.33501  -0.33442  -0.32884  -0.31502  -0.31336
 Alpha  occ. eigenvalues --   -0.31221  -0.30982  -0.30891  -0.30420  -0.30400
 Alpha  occ. eigenvalues --   -0.30095  -0.30017  -0.29208  -0.24518  -0.23836
 Alpha  occ. eigenvalues --   -0.21583  -0.21468
 Alpha virt. eigenvalues --   -0.09392  -0.09087  -0.02261  -0.01193   0.00225
 Alpha virt. eigenvalues --    0.00277   0.01205   0.01844   0.02420   0.02473
 Alpha virt. eigenvalues --    0.04684   0.04757   0.05438   0.06080   0.06150

 Mulliken charges:
               1
     1  Mg   0.838593
     2  C    0.011571
     3  C   -0.053555
     4  C   -0.054123
     5  C   -0.074700
     6  N   -0.259008
     7  C   -0.044612
     8  C   -0.039957
     9  C   -0.067765
    10  C    0.025083
    11  C    0.071335
    12  C    0.050796
    13  C   -0.046904
    14  H    0.016627
    15  N   -0.276135
    16  C    0.108835
    17  C   -0.140177
    18  C   -0.038876
    19  C    0.073803
    20  C    0.126620
    21  C   -0.001524
    22  O   -0.216463
    23  C    0.046150
    24  N   -0.278520
    25  C    0.028275
    26  C   -0.031844
    27  C    0.005495
    28  C    0.043831
    29  C    0.083013
    30  C   -0.011486
    31  C    0.012529
    32  N   -0.385120
    33  C    0.091407
    34  C   -0.180237
    35  C    0.092692
    36  C    0.102474
    37  C    0.138699
    38  C   -0.042514
    39  O   -0.171690
    40  C    0.016101
    41  C    0.193074
    42  O   -0.252892
    43  O   -0.327419
    44  C    0.186371
    45  H   -0.035449
    46  H   -0.008340
    47  H   -0.023978
    48  H    0.024588
    49  H    0.018092
    50  H    0.010033
    51  H    0.028620
    52  H    0.019055
    53  H   -0.011570
    54  H    0.007809
    55  H    0.032234
    56  H    0.033345
    57  H    0.009161
    58  H    0.014675
    59  H    0.039620
    60  H    0.033210
    61  H    0.047643
    62  H    0.024845
    63  H    0.009817
    64  H    0.009938
    65  H    0.015182
    66  H    0.018536
    67  H    0.029853
    68  H    0.004411
    69  H    0.004802
    70  H    0.014801
    71  H    0.015386
    72  H    0.016057
    73  H    0.004403
    74  H    0.043836
    75  H    0.038555
    76  H    0.030556
    77  H    0.035058
    78  H    0.058273
    79  H    0.019093
    80  Mg   0.801200
    81  C    0.004431
    82  C   -0.071553
    83  C   -0.019782
    84  C   -0.048255
    85  N   -0.286878
    86  C   -0.055425
    87  C   -0.042452
    88  C   -0.052343
    89  C    0.058049
    90  C    0.080536
    91  C    0.048731
    92  C   -0.050675
    93  H    0.026275
    94  N   -0.365257
    95  C    0.114130
    96  C   -0.149652
    97  C   -0.022434
    98  C    0.090963
    99  C    0.140522
   100  C   -0.050243
   101  O   -0.214557
   102  C    0.079038
   103  N   -0.287377
   104  C    0.025708
   105  C   -0.009789
   106  C   -0.012916
   107  C    0.028425
   108  C    0.074437
   109  C    0.039549
   110  C   -0.004087
   111  N   -0.281380
   112  C    0.026162
   113  C   -0.155016
   114  C    0.014937
   115  C    0.076301
   116  C    0.107437
   117  C    0.020273
   118  O   -0.190056
   119  C    0.052725
   120  C    0.149228
   121  O   -0.180112
   122  O   -0.336500
   123  C    0.181930
   124  H   -0.017962
   125  H   -0.053346
   126  H   -0.027255
   127  H    0.012536
   128  H    0.009892
   129  H    0.010232
   130  H    0.025054
   131  H    0.017243
   132  H    0.017880
   133  H    0.012947
   134  H    0.042890
   135  H    0.031787
   136  H    0.047170
   137  H    0.015849
   138  H   -0.004951
   139  H    0.029959
   140  H    0.043491
   141  H    0.024758
   142  H    0.021287
   143  H    0.015148
   144  H    0.014938
   145  H    0.018899
   146  H    0.014595
   147  H    0.016989
   148  H    0.015938
   149  H    0.020665
   150  H    0.008633
   151  H    0.012704
   152  H    0.041382
   153  H    0.029831
   154  H    0.041879
   155  H    0.031457
   156  H    0.027470
   157  H    0.035977
   158  H    0.039785
 Sum of Mulliken charges =  -0.00000

 Dipole moment (field-independent basis, Debye):
    X=              0.7906    Y=              3.9876    Z=             -6.4924  Tot=              7.6601
 Quadrupole moment (field-independent basis, Debye-Ang):
   XX=           -234.1827   YY=           -582.4715   ZZ=           -486.4758
   XY=             26.6471   XZ=            -14.3284   YZ=              6.9492

 Normal termination of Gaussian 16 at Fri Sep  3 03:22:52 2021.
