 Gaussian 16, Revision A.03,
 Gaussian 16:  ES64L-G16RevA.03 25-Dec-2016

 -----------------------------------
 #p cam-b3lyp/Def2SVP td=(nstates=5)
 -----------------------------------

 --------------------------------
 TDDFT excited states in gaussian
 --------------------------------
 Symbolic Z-matrix:
 Charge =  0 Multiplicity = 1

                         Standard orientation:
 ---------------------------------------------------------------------
 Center     Atomic      Atomic             Coordinates (Angstroms)
 Number     Number       Type             X           Y           Z
 ---------------------------------------------------------------------
      1         12           0      -10.823777   -0.066829   -0.241514
      2          6           0       -7.921780   -1.062223    1.358843
      3          6           0      -10.243831    3.184599    0.785927
      4          6           0      -13.197110    0.940392   -2.420420
      5          6           0      -11.038421   -3.368517   -1.462345
      6          7           0       -9.092332    0.991338    0.707519
      7          6           0       -8.171587    0.326377    1.410992
      8          6           0       -7.185125    1.330377    2.083719
      9          6           0       -8.084343    2.654642    2.130327
     10          6           0       -9.288279    2.253402    1.194809
     11          6           0       -8.427867    3.099793    3.572319
     12          6           0       -5.974552    1.549507    1.205135
     13          6           0       -4.642575    1.634362    1.934001
     14          1           0       -3.491741    2.616922    1.496641
     15          7           0      -11.716058    1.840423   -0.595039
     16          6           0      -11.319535    3.048733   -0.159703
     17          6           0      -12.236196    4.013197   -0.675167
     18          6           0      -13.224731    3.366398   -1.477246
     19          6           0      -12.776166    1.968985   -1.515605
     20          6           0      -12.219227    5.424889   -0.217833
     21          6           0      -14.281124    4.083513   -2.240265
     22          8           0      -14.408746    5.291046   -2.124086
     23          6           0      -15.271815    3.337891   -3.126358
     24          7           0      -12.054366   -1.155064   -1.727412
     25          6           0      -12.896704   -0.435614   -2.520581
     26          6           0      -13.407333   -1.275411   -3.646016
     27          6           0      -12.689683   -2.670464   -3.323269
     28          6           0      -11.906547   -2.463441   -2.050626
     29          6           0      -14.941687   -1.326729   -3.769397
     30          6           0      -11.804230   -3.286896   -4.494988
     31          6           0      -12.017953   -4.747691   -4.956530
     32          7           0       -9.768821   -1.840288   -0.091020
     33          6           0      -10.011980   -3.088446   -0.571880
     34          6           0       -9.234276   -4.024911    0.110574
     35          6           0       -8.375893   -3.304529    0.929506
     36          6           0       -8.687829   -1.985092    0.716994
     37          6           0       -9.267053   -5.559105   -0.152028
     38          6           0       -7.353482   -3.375328    1.864986
     39          8           0       -6.723232   -4.364510    2.221998
     40          6           0       -6.902866   -1.878350    2.225683
     41          6           0       -7.148081   -1.563675    3.586844
     42          8           0       -8.196400   -1.291700    4.176888
     43          8           0       -5.907358   -1.594294    4.216073
     44          6           0       -5.786714   -1.317077    5.637146
     45          1           0      -10.155410    4.177054    1.232256
     46          1           0      -13.976086    1.113569   -3.166466
     47          1           0      -11.254007   -4.373177   -1.832278
     48          1           0       -6.891627    0.914091    3.046994
     49          1           0       -7.662930    3.497001    1.582703
     50          1           0       -8.087764    2.374804    4.311530
     51          1           0       -9.505208    3.242831    3.661726
     52          1           0       -7.973920    4.078038    3.728975
     53          1           0       -5.998169    2.391362    0.512866
     54          1           0       -6.012149    0.730805    0.486536
     55          1           0       -4.261701    0.615151    1.996906
     56          1           0       -4.971229    1.908123    2.936554
     57          1           0      -12.998237    5.437368    0.544230
     58          1           0      -12.428854    6.113728   -1.036385
     59          1           0      -11.263775    5.725787    0.212039
     60          1           0      -14.739524    3.136324   -4.056072
     61          1           0      -16.029628    4.071898   -3.399228
     62          1           0      -15.638697    2.441094   -2.627271
     63          1           0      -12.951992   -0.755610   -4.488352
     64          1           0      -13.415293   -3.473288   -3.192510
     65          1           0      -15.190407   -0.713665   -4.636280
     66          1           0      -15.452454   -0.982046   -2.869687
     67          1           0      -15.250459   -2.345462   -4.002538
     68          1           0      -10.757530   -3.227524   -4.197015
     69          1           0      -11.919440   -2.753074   -5.438569
     70          1           0      -11.318995   -5.249890   -4.287809
     71          1           0      -11.674223   -4.875142   -5.982215
     72          1           0      -12.947437   -5.266441   -4.722260
     73          1           0       -8.765959   -5.756579   -1.098800
     74          1           0      -10.253741   -6.001701   -0.289990
     75          1           0       -8.741683   -6.100077    0.635503
     76          1           0       -5.857133   -1.805699    1.926513
     77          1           0       -4.944795   -1.903316    6.004092
     78          1           0       -6.702684   -1.443751    6.214866
     79          1           0       -5.449908   -0.285527    5.740900
     80         12           0       10.519425    0.104377   -0.620069
     81          6           0        8.060437    0.857739    1.752792
     82          6           0       10.230879   -3.214101    0.144818
     83          6           0       13.081328   -0.489345   -2.626394
     84          6           0       10.851596    3.618642   -1.182231
     85          7           0        9.295459   -1.022879    0.843824
     86          6           0        8.300764   -0.558730    1.675594
     87          6           0        7.503814   -1.716042    2.248704
     88          6           0        8.414357   -2.966802    1.928718
     89          6           0        9.324996   -2.343661    0.816430
     90          6           0        9.217285   -3.460108    3.125663
     91          6           0        6.026882   -1.669151    1.711721
     92          6           0        5.197233   -2.931909    2.074828
     93          1           0        5.563475   -3.638757    3.363306
     94          7           0       11.471667   -1.559385   -1.158239
     95          6           0       11.294133   -2.845986   -0.665322
     96          6           0       12.260563   -3.792340   -1.249797
     97          6           0       13.066896   -2.970548   -2.096065
     98          6           0       12.551663   -1.609618   -1.971326
     99          6           0       12.240985   -5.248940   -0.972922
    100          6           0       14.230645   -3.432544   -2.934643
    101          8           0       14.862771   -2.644941   -3.691876
    102          6           0       14.643786   -4.879004   -2.968464
    103          7           0       11.758399    1.401764   -1.797071
    104          6           0       12.733525    0.856149   -2.524370
    105          6           0       13.621496    1.991381   -3.200298
    106          6           0       12.907146    3.363342   -2.688074
    107          6           0       11.786017    2.775529   -1.830012
    108          6           0       15.120124    1.808647   -2.722155
    109          6           0       12.283031    4.252091   -3.847278
    110          6           0       13.257966    5.250539   -4.534918
    111          7           0        9.736548    1.879499    0.125973
    112          6           0        9.860962    3.240505   -0.259277
    113          6           0        8.885573    4.092075    0.552331
    114          6           0        8.212488    3.220912    1.402941
    115          6           0        8.715401    1.871069    1.041180
    116          6           0        8.642349    5.564671    0.441829
    117          6           0        7.185473    3.081578    2.408679
    118          8           0        6.467269    3.908184    2.979907
    119          6           0        6.905835    1.504178    2.556163
    120          6           0        6.850353    1.052082    3.997467
    121          8           0        7.813873    0.732378    4.639881
    122          8           0        5.517541    0.827406    4.410181
    123          6           0        5.312685   -0.023455    5.592041
    124          1           0       10.054769   -4.220059    0.532394
    125          1           0       13.936499   -0.690107   -3.275348
    126          1           0       10.970719    4.703302   -1.226646
    127          1           0        7.438542   -1.565349    3.325511
    128          1           0        7.903455   -3.818231    1.477948
    129          1           0        8.945688   -4.508467    3.248353
    130          1           0        9.011401   -2.805292    3.972067
    131          1           0       10.280810   -3.557951    2.909163
    132          1           0        6.185664   -1.347510    0.682903
    133          1           0        5.575740   -0.802295    2.193388
    134          1           0        5.347055   -3.579403    1.210834
    135          1           0        4.150969   -2.636102    2.150498
    136          1           0       13.191453   -5.400907   -0.461726
    137          1           0       12.117562   -5.856041   -1.869352
    138          1           0       11.496567   -5.654773   -0.286712
    139          1           0       13.832772   -5.467733   -3.394929
    140          1           0       14.831494   -5.014183   -1.902563
    141          1           0       15.580147   -5.104591   -3.478045
    142          1           0       13.420667    1.783603   -4.252017
    143          1           0       13.423855    3.945376   -1.923772
    144          1           0       15.274785    0.988095   -2.021741
    145          1           0       15.461984    2.715644   -2.222847
    146          1           0       15.677811    1.535485   -3.617474
    147          1           0       11.324782    4.687286   -3.565054
    148          1           0       12.002210    3.551226   -4.632757
    149          1           0       13.226186    5.032059   -5.601739
    150          1           0       14.238954    5.150643   -4.070210
    151          1           0       12.941020    6.285831   -4.406927
    152          1           0        7.673095    5.674782   -0.044992
    153          1           0        9.441573    6.037493   -0.130225
    154          1           0        8.548773    6.135737    1.365298
    155          1           0        5.962158    1.318786    2.043947
    156          1           0        5.528263    0.625170    6.440689
    157          1           0        5.886522   -0.946610    5.508347
    158          1           0        4.267838   -0.331542    5.564451
 ---------------------------------------------------------------------

 SCF Done:  E(RCAM-B3LYP) =  -4069.80114719     A.U. after   18 cycles

 Excitation energies and oscillator strengths:

 Excited State   1:      Singlet-A      1.6987 eV  729.86 nm  f=0.3759  <S**2>=0.000
     309 -> 315        0.18481
     311 -> 313        0.68444
     309 <- 315        0.10985
 This state for optimization and/or second-order correction.
 Total Energy, E(TD-HF/TD-DFT) =  -4069.73871945
 Copying the excited state density for this state as the 1-particle RhoCI density.

 Excited State   2:      Singlet-A      1.7139 eV  723.40 nm  f=0.4054  <S**2>=0.000
     310 -> 316       -0.19926
     312 -> 314        0.67993
     310 <- 316       -0.11155

 Excited State   3:      Singlet-A      2.2275 eV  556.61 nm  f=0.1015  <S**2>=0.000
     309 -> 313        0.63672
     311 -> 315       -0.29368

 Excited State   4:      Singlet-A      2.2903 eV  541.35 nm  f=0.0346  <S**2>=0.000
     310 -> 314        0.58804
     312 -> 316        0.38602

 Excited State   5:      Singlet-A      2.5994 eV  476.96 nm  f=0.0000  <S**2>=0.000
     312 -> 313        0.70705

 The electronic state is 1-A.
 Alpha  occ. eigenvalues --  -46.89714 -46.88043 -19.24678 -19.23951 -19.20274
 Alpha  occ. eigenvalues --  -19.20225 -19.19286 -19.19161 -19.18374 -19.18367
 Alpha  occ. eigenvalues --  -14.42370 -14.42120 -14.42046 -14.41533 -14.39925
 Alpha  occ. eigenvalues --  -14.39850 -14.39830 -14.39228 -10.39657 -10.39394
 Alpha  occ. eigenvalues --  -10.35512 -10.35271 -10.35222 -10.34642 -10.31733
 Alpha  occ. eigenvalues --  -10.31622 -10.31562 -10.31415 -10.31337 -10.31172
 Alpha  occ. eigenvalues --  -10.30930 -10.30884 -10.30729 -10.30584 -10.30342
 Alpha  occ. eigenvalues --  -10.30326 -10.30289 -10.30086 -10.29803 -10.29544
 Alpha  occ. eigenvalues --  -10.29464 -10.29450 -10.29200 -10.29080 -10.28803
 Alpha  occ. eigenvalues --  -10.28754 -10.28527 -10.28515 -10.28369 -10.28357
 Alpha  occ. eigenvalues --  -10.28345 -10.28276 -10.28179 -10.28177 -10.28170
 Alpha  occ. eigenvalues --  -10.28111 -10.27839 -10.27821 -10.27787 -10.27695
 Alpha  occ. eigenvalues --  -10.27666 -10.27582 -10.27550 -10.27390 -10.27107
 Alpha  occ. eigenvalues --  -10.27067 -10.26886 -10.26875 -10.26832 -10.26630
 Alpha  occ. eigenvalues --  -10.26594 -10.26577 -10.26423 -10.26411 -10.26204
 Alpha  occ. eigenvalues --  -10.26060 -10.26050 -10.25961 -10.25940 -10.25844
 Alpha  occ. eigenvalues --  -10.25723 -10.25549 -10.25383 -10.25125 -10.24919
 Alpha  occ. eigenvalues --  -10.24880  -3.18036  -3.16726  -1.92950  -1.92486
 Alpha  occ. eigenvalues --   -1.92329  -1.91631  -1.91166  -1.91056  -1.15784
 Alpha  occ. eigenvalues --   -1.15449  -1.10075  -1.10008  -1.09094  -1.07782
 Alpha  occ. eigenvalues --   -1.07749  -1.07559  -1.05538  -1.04298  -1.04105
 Alpha  occ. eigenvalues --   -1.03890  -1.03440  -1.02772  -1.02638  -1.01350
 Alpha  occ. eigenvalues --   -0.93930  -0.91579  -0.89507  -0.89156  -0.88886
 Alpha  occ. eigenvalues --   -0.88532  -0.88437  -0.87919  -0.87804  -0.87536
 Alpha  occ. eigenvalues --   -0.86909  -0.86702  -0.86297  -0.86218  -0.85457
 Alpha  occ. eigenvalues --   -0.84667  -0.84210  -0.83078  -0.82914  -0.82272
 Alpha  occ. eigenvalues --   -0.82161  -0.81905  -0.81512  -0.80826  -0.80727
 Alpha  occ. eigenvalues --   -0.79974  -0.78936  -0.78215  -0.77647  -0.77393
 Alpha  occ. eigenvalues --   -0.76941  -0.76588  -0.76534  -0.75730  -0.75199
 Alpha  occ. eigenvalues --   -0.74517  -0.73544  -0.72417  -0.72041  -0.71440
 Alpha  occ. eigenvalues --   -0.69854  -0.69368  -0.69295  -0.68594  -0.68245
 Alpha  occ. eigenvalues --   -0.68141  -0.67433  -0.67035  -0.66213  -0.65934
 Alpha  occ. eigenvalues --   -0.65516  -0.65489  -0.65096  -0.64890  -0.63908
 Alpha  occ. eigenvalues --   -0.63734  -0.62745  -0.61238  -0.60610  -0.60534
 Alpha  occ. eigenvalues --   -0.59922  -0.59464  -0.59164  -0.59132  -0.58667
 Alpha  occ. eigenvalues --   -0.58211  -0.58025  -0.57769  -0.57481  -0.56749
 Alpha  occ. eigenvalues --   -0.56385  -0.56189  -0.56125  -0.55914  -0.55485
 Alpha  occ. eigenvalues --   -0.54913  -0.54494  -0.54414  -0.54196  -0.53927
 Alpha  occ. eigenvalues --   -0.53655  -0.53567  -0.53419  -0.53217  -0.52684
 Alpha  occ. eigenvalues --   -0.52486  -0.52367  -0.52185  -0.52121  -0.52111
 Alpha  occ. eigenvalues --   -0.51866  -0.51866  -0.51723  -0.51534  -0.51401
 Alpha  occ. eigenvalues --   -0.51322  -0.51131  -0.50805  -0.50455  -0.50414
 Alpha  occ. eigenvalues --   -0.50164  -0.50054  -0.50036  -0.49615  -0.49508
 Alpha  occ. eigenvalues --   -0.49475  -0.49397  -0.49291  -0.49054  -0.49021
 Alpha  occ. eigenvalues --   -0.48976  -0.48861  -0.48473  -0.48408  -0.48313
 Alpha  occ. eigenvalues --   -0.48075  -0.48020  -0.47571  -0.47357  -0.46920
 Alpha  occ. eigenvalues --   -0.46849  -0.46790  -0.46731  -0.46644  -0.46157
 Alpha  occ. eigenvalues --   -0.46152  -0.46042  -0.45990  -0.45858  -0.45697
 Alpha  occ. eigenvalues --   -0.45568  -0.45493  -0.45324  -0.45183  -0.45133
 Alpha  occ. eigenvalues --   -0.45111  -0.44831  -0.44718  -0.44620  -0.44545
 Alpha  occ. eigenvalues --   -0.44137  -0.43959  -0.43929  -0.43647  -0.43436
 Alpha  occ. eigenvalues --   -0.43425  -0.43189  -0.43088  -0.43038  -0.42899
 Alpha  occ. eigenvalues --   -0.42855  -0.42516  -0.42316  -0.42226  -0.42075
 Alpha  occ. eigenvalues --   -0.42070  -0.41953  -0.41854  -0.41485  -0.41479
 Alpha  occ. eigenvalues --   -0.41255  -0.41097  -0.40879  -0.40307  -0.40284
 Alpha  occ. eigenvalues --   -0.40150  -0.39739  -0.39177  -0.39050  -0.38440
 Alpha  occ. eigenvalues --   -0.38303  -0.38226  -0.38199  -0.38001  -0.37958
 Alpha  occ. eigenvalues --   -0.37391  -0.37282  -0.36619  -0.36313  -0.36244
 Alpha  occ. eigenvalues --   -0.35858  -0.35692  -0.34956  -0.34507  -0.34389
 Alpha  occ. eigenvalues --   -0.34115  -0.33645  -0.33147  -0.31861  -0.31287
 Alpha  occ. eigenvalues --   -0.31243  -0.30903  -0.30739  -0.30533  -0.30486
 Alpha  occ. eigenvalues --   -0.30464  -0.30000  -0.29471  -0.24580  -0.23955
 Alpha  occ. eigenvalues --   -0.21574  -0.20398
 Alpha virt. eigenvalues --   -0.09214  -0.07858  -0.02300  -0.02108  -0.00210
 Alpha virt. eigenvalues --   -0.00184   0.02198   0.02309   0.02490   0.03292
 Alpha virt. eigenvalues --    0.04019   0.04519   0.04663   0.05024   0.05495

 Mulliken charges:
               1
     1  Mg   0.803441
     2  C   -0.053538
     3  C   -0.077564
     4  C   -0.031540
     5  C   -0.113984
     6  N   -0.266426
     7  C   -0.028586
     8  C   -0.077867
     9  C   -0.056758
    10  C    0.065585
    11  C    0.082989
    12  C    0.065197
    13  C   -0.060934
    14  H    0.030469
    15  N   -0.375729
    16  C    0.137305
    17  C   -0.161366
    18  C   -0.018938
    19  C    0.178179
    20  C    0.123787
    21  C   -0.042855
    22  O   -0.204886
    23  C    0.068011
    24  N   -0.281963
    25  C   -0.040046
    26  C   -0.032452
    27  C   -0.000376
    28  C    0.029902
    29  C    0.073850
    30  C   -0.008403
    31  C   -0.012524
    32  N   -0.343777
    33  C    0.184207
    34  C   -0.180577
    35  C    0.103033
    36  C    0.131965
    37  C    0.117893
    38  C   -0.022336
    39  O   -0.171838
    40  C   -0.002430
    41  C    0.227982
    42  O   -0.227674
    43  O   -0.357725
    44  C    0.177848
    45  H   -0.024856
    46  H   -0.050630
    47  H   -0.029684
    48  H    0.016051
    49  H    0.020562
    50  H    0.026929
    51  H    0.012818
    52  H    0.014308
    53  H    0.013252
    54  H    0.002364
    55  H    0.031953
    56  H    0.023792
    57  H    0.036750
    58  H    0.042243
    59  H    0.002533
    60  H    0.036904
    61  H    0.025066
    62  H    0.043423
    63  H    0.026544
    64  H   -0.001304
    65  H    0.020720
    66  H    0.031803
    67  H    0.017611
    68  H    0.019473
    69  H    0.006252
    70  H    0.002956
    71  H    0.024455
    72  H    0.019083
    73  H    0.024245
    74  H    0.016638
    75  H    0.037551
    76  H    0.052070
    77  H    0.038041
    78  H    0.051903
    79  H    0.019637
    80  Mg   0.842079
    81  C   -0.020565
    82  C   -0.090039
    83  C   -0.079678
    84  C   -0.078394
    85  N   -0.250725
    86  C   -0.044647
    87  C   -0.013038
    88  C   -0.082104
    89  C   -0.014483
    90  C    0.091515
    91  C    0.015981
    92  C   -0.044506
    93  H    0.032251
    94  N   -0.411441
    95  C    0.200973
    96  C   -0.143969
    97  C   -0.033976
    98  C    0.153148
    99  C    0.122168
   100  C   -0.007230
   101  O   -0.241971
   102  C    0.080584
   103  N   -0.275361
   104  C    0.019558
   105  C   -0.035748
   106  C    0.002856
   107  C    0.011997
   108  C    0.060837
   109  C    0.002637
   110  C    0.023793
   111  N   -0.368211
   112  C    0.111810
   113  C   -0.177431
   114  C    0.032632
   115  C    0.112082
   116  C    0.110986
   117  C    0.071972
   118  O   -0.179697
   119  C   -0.071535
   120  C    0.225277
   121  O   -0.190684
   122  O   -0.375654
   123  C    0.183779
   124  H   -0.034710
   125  H   -0.005934
   126  H   -0.024054
   127  H    0.008499
   128  H    0.003911
   129  H    0.006632
   130  H    0.036669
   131  H    0.014552
   132  H    0.016579
   133  H    0.014939
   134  H    0.036822
   135  H    0.036383
   136  H    0.032154
   137  H    0.035730
   138  H    0.012149
   139  H    0.044616
   140  H    0.019944
   141  H    0.028061
   142  H    0.024659
   143  H    0.018504
   144  H    0.031740
   145  H    0.016223
   146  H    0.027636
   147  H    0.011328
   148  H   -0.004958
   149  H    0.019936
   150  H    0.018627
   151  H    0.014614
   152  H    0.037758
   153  H    0.005587
   154  H    0.037355
   155  H    0.063047
   156  H    0.049650
   157  H    0.033497
   158  H    0.034027
 Sum of Mulliken charges =  -0.00000

 Dipole moment (field-independent basis, Debye):
    X=             -1.3768    Y=             -5.0509    Z=             -3.5262  Tot=              6.3120
 Quadrupole moment (field-independent basis, Debye-Ang):
   XX=           -513.7810   YY=           -511.1939   ZZ=           -507.8598
   XY=             14.6324   XZ=             25.0997   YZ=              2.1727

 Normal termination of Gaussian 16 at Wed Sep  1 08:14:14 2021.
