 Gaussian 16, Revision A.03,
 Gaussian 16:  ES64L-G16RevA.03 25-Dec-2016

 -----------------------------------
 #p cam-b3lyp/Def2SVP td=(nstates=5)
 -----------------------------------

 --------------------------------
 TDDFT excited states in gaussian
 --------------------------------
 Symbolic Z-matrix:
 Charge =  0 Multiplicity = 1

                         Standard orientation:
 ---------------------------------------------------------------------
 Center     Atomic      Atomic             Coordinates (Angstroms)
 Number     Number       Type             X           Y           Z
 ---------------------------------------------------------------------
      1         12           0      -33.756559   -0.354371   -0.620867
      2          6           0      -30.800765    1.517104    0.486599
      3          6           0      -32.091429   -3.131573    0.601498
      4          6           0      -36.594999   -1.806989   -0.565830
      5          6           0      -35.194725    2.863584   -1.319587
      6          7           0      -31.643323   -0.691594    0.593748
      7          6           0      -30.630946    0.188787    0.907248
      8          6           0      -29.529146   -0.560885    1.741994
      9          6           0      -29.825091   -2.054080    1.518407
     10          6           0      -31.259599   -1.965523    0.871710
     11          6           0      -28.865428   -2.883042    0.567220
     12          6           0      -29.470887   -0.123155    3.245618
     13          6           0      -28.092089   -0.001788    3.857987
     14          1           0      -27.626958   -1.174106    4.777707
     15          7           0      -34.265223   -2.217840   -0.189528
     16          6           0      -33.460243   -3.257242    0.190176
     17          6           0      -34.275722   -4.490781    0.360963
     18          6           0      -35.597700   -4.085573    0.040901
     19          6           0      -35.531604   -2.648544   -0.213110
     20          6           0      -33.791619   -5.862429    0.858900
     21          6           0      -36.899183   -4.879890    0.183493
     22          8           0      -36.804167   -6.057610    0.518242
     23          6           0      -38.188467   -4.369987   -0.071331
     24          7           0      -35.688914    0.519705   -0.650977
     25          6           0      -36.676002   -0.420317   -0.871261
     26          6           0      -37.996425    0.343490   -1.274238
     27          6           0      -37.584327    1.857431   -1.199499
     28          6           0      -36.042824    1.729686   -1.150981
     29          6           0      -38.618289   -0.060231   -2.639272
     30          6           0      -38.176839    2.754684   -0.039243
     31          6           0      -39.607426    3.296842   -0.202771
     32          7           0      -33.193991    1.786919   -0.529676
     33          6           0      -33.845034    2.922523   -0.968451
     34          6           0      -32.984680    4.080472   -0.941002
     35          6           0      -31.755620    3.564172   -0.383125
     36          6           0      -31.895990    2.165978   -0.074934
     37          6           0      -33.417510    5.460116   -1.331156
     38          6           0      -30.487826    3.947494    0.052845
     39          8           0      -29.988461    5.054955    0.198879
     40          6           0      -29.854804    2.706896    0.747044
     41          6           0      -28.541877    2.499903    0.028608
     42          8           0      -27.466431    2.339965    0.611211
     43          8           0      -28.637447    2.332090   -1.411434
     44          6           0      -27.412536    1.783905   -1.991615
     45          1           0      -31.561714   -4.034193    0.911571
     46          1           0      -37.592743   -2.203361   -0.765435
     47          1           0      -35.742871    3.748670   -1.648892
     48          1           0      -28.571134   -0.439731    1.234378
     49          1           0      -29.968399   -2.584295    2.459908
     50          1           0      -28.280662   -3.505545    1.244121
     51          1           0      -28.162854   -2.229928    0.050409
     52          1           0      -29.359420   -3.453668   -0.219132
     53          1           0      -29.913871   -0.833861    3.943771
     54          1           0      -29.927999    0.858486    3.372085
     55          1           0      -28.048929    0.970150    4.349524
     56          1           0      -27.372172    0.028390    3.039498
     57          1           0      -34.276025   -6.654306    0.286982
     58          1           0      -34.039334   -5.855444    1.920293
     59          1           0      -32.723501   -5.986633    0.685838
     60          1           0      -38.262135   -4.159597   -1.138770
     61          1           0      -38.477577   -3.522496    0.550257
     62          1           0      -38.806604   -5.189297    0.297335
     63          1           0      -38.812020    0.213659   -0.563656
     64          1           0      -37.774720    2.367436   -2.143512
     65          1           0      -38.666404    0.864908   -3.213811
     66          1           0      -39.623174   -0.439925   -2.457150
     67          1           0      -37.925068   -0.810849   -3.020872
     68          1           0      -37.480916    3.592880    0.008555
     69          1           0      -38.240163    2.194000    0.893580
     70          1           0      -39.839273    2.948047   -1.209506
     71          1           0      -39.611618    4.385373   -0.275037
     72          1           0      -40.354853    2.950580    0.510651
     73          1           0      -34.273539    5.681851   -0.695212
     74          1           0      -33.820105    5.520101   -2.342145
     75          1           0      -32.693407    6.226547   -1.054567
     76          1           0      -29.640836    2.996942    1.775549
     77          1           0      -27.897203    1.340430   -2.862227
     78          1           0      -26.860209    1.168051   -1.281888
     79          1           0      -26.840411    2.636957   -2.356621
     80         12           0       33.537418    0.457619   -0.312925
     81          6           0       31.659137   -2.372907    0.345645
     82          6           0       31.134130    2.385939    1.258554
     83          6           0       35.736444    3.018694   -0.309026
     84          6           0       36.010302   -1.724707   -1.561900
     85          7           0       31.739908    0.003329    0.944398
     86          6           0       31.121016   -1.178424    0.871923
     87          6           0       29.818678   -1.153135    1.730388
     88          6           0       29.518424    0.419052    1.780573
     89          6           0       30.865478    1.017076    1.220696
     90          6           0       28.213231    0.807451    1.044961
     91          6           0       30.093029   -1.678989    3.120936
     92          6           0       29.012197   -2.572911    3.708571
     93          1           0       28.613891   -2.541185    5.232210
     94          7           0       33.335876    2.507542    0.249170
     95          6           0       32.339502    3.099401    0.930128
     96          6           0       32.673021    4.480138    1.066118
     97          6           0       33.939005    4.738134    0.458166
     98          6           0       34.405765    3.405347    0.056598
     99          6           0       31.694677    5.469770    1.581664
    100          6           0       34.630347    6.054609    0.495043
    101          8           0       34.073435    7.026380    0.978189
    102          6           0       36.009507    6.250053   -0.123261
    103          7           0       35.646230    0.624489   -0.969860
    104          6           0       36.294249    1.806119   -0.769660
    105          6           0       37.763843    1.645022   -0.986327
    106          6           0       37.835822    0.095550   -1.385475
    107          6           0       36.415043   -0.411564   -1.386620
    108          6           0       38.378425    2.625532   -2.002687
    109          6           0       38.808628   -0.807176   -0.504752
    110          6           0       39.873418   -1.704193   -1.178697
    111          7           0       33.805284   -1.575082   -0.590609
    112          6           0       34.808172   -2.291760   -1.164055
    113          6           0       34.364772   -3.580187   -1.465528
    114          6           0       33.095441   -3.700006   -0.917019
    115          6           0       32.831519   -2.485502   -0.335037
    116          6           0       35.232496   -4.673774   -2.154664
    117          6           0       32.000976   -4.531741   -0.727751
    118          8           0       31.904008   -5.724891   -0.992597
    119          6           0       30.931966   -3.750957    0.178722
    120          6           0       29.718337   -3.514887   -0.516466
    121          8           0       29.435965   -2.694661   -1.393159
    122          8           0       28.799231   -4.423642   -0.001036
    123          6           0       27.433543   -4.462057   -0.495274
    124          1           0       30.315467    3.016982    1.610082
    125          1           0       36.549534    3.745346   -0.374147
    126          1           0       36.809250   -2.290573   -2.045789
    127          1           0       29.074949   -1.769008    1.225513
    128          1           0       29.504129    0.836463    2.786860
    129          1           0       27.773318   -0.043234    0.524840
    130          1           0       28.420604    1.609028    0.335321
    131          1           0       27.531395    1.222544    1.786829
    132          1           0       30.343967   -0.953694    3.895204
    133          1           0       31.056201   -2.181639    3.033106
    134          1           0       29.257975   -3.590792    3.406374
    135          1           0       28.148071   -2.270767    3.116904
    136          1           0       31.286908    5.899750    0.667009
    137          1           0       32.175721    6.217340    2.212698
    138          1           0       30.899655    5.018698    2.175544
    139          1           0       36.716888    5.859994    0.608721
    140          1           0       36.180548    7.326272   -0.121676
    141          1           0       36.070349    5.761976   -1.095893
    142          1           0       38.123416    1.833848    0.024668
    143          1           0       38.286369   -0.044372   -2.368106
    144          1           0       38.944429    3.347764   -1.413437
    145          1           0       37.630741    3.111903   -2.630047
    146          1           0       39.096069    2.094130   -2.627274
    147          1           0       38.196835   -1.482909    0.092733
    148          1           0       39.430327   -0.222537    0.173681
    149          1           0       39.287569   -2.615135   -1.300756
    150          1           0       40.692108   -1.904224   -0.488655
    151          1           0       40.183235   -1.510626   -2.205571
    152          1           0       35.962673   -5.038357   -1.433281
    153          1           0       35.846785   -4.342280   -2.992063
    154          1           0       34.616463   -5.513962   -2.476309
    155          1           0       30.824669   -4.346183    1.085657
    156          1           0       27.094466   -5.493992   -0.409892
    157          1           0       27.284110   -4.024751   -1.482817
    158          1           0       26.812123   -3.924275    0.220917
 ---------------------------------------------------------------------

 SCF Done:  E(RCAM-B3LYP) =  -4069.73726892     A.U. after   18 cycles

 Excitation energies and oscillator strengths:

 Excited State   1:      Singlet-A      1.6990 eV  729.75 nm  f=0.3990  <S**2>=0.000
     309 -> 316       -0.18510
     311 -> 313        0.68486
     309 <- 316       -0.10998
 This state for optimization and/or second-order correction.
 Total Energy, E(TD-HF/TD-DFT) =  -4069.67483197
 Copying the excited state density for this state as the 1-particle RhoCI density.

 Excited State   2:      Singlet-A      1.7224 eV  719.84 nm  f=0.3565  <S**2>=0.000
     310 -> 315        0.19689
     312 -> 314        0.67936
     310 <- 315        0.11036

 Excited State   3:      Singlet-A      2.2279 eV  556.51 nm  f=0.1009  <S**2>=0.000
     309 -> 313        0.63672
     311 -> 316        0.29383

 Excited State   4:      Singlet-A      2.2417 eV  553.08 nm  f=0.0690  <S**2>=0.000
     310 -> 314        0.61606
     312 -> 315       -0.33057

 Excited State   5:      Singlet-A      3.1999 eV  387.46 nm  f=0.0000  <S**2>=0.000
     312 -> 313        0.70711

 The electronic state is 1-A.
 Alpha  occ. eigenvalues --  -46.90768 -46.89694 -19.24645 -19.23719 -19.20198
 Alpha  occ. eigenvalues --  -19.20093 -19.19251 -19.18796 -19.18359 -19.17873
 Alpha  occ. eigenvalues --  -14.42721 -14.42356 -14.42025 -14.42022 -14.40817
 Alpha  occ. eigenvalues --  -14.39811 -14.39206 -14.39146 -10.39628 -10.39394
 Alpha  occ. eigenvalues --  -10.35236 -10.34940 -10.34627 -10.33512 -10.32318
 Alpha  occ. eigenvalues --  -10.31891 -10.31593 -10.31588 -10.31550 -10.31533
 Alpha  occ. eigenvalues --  -10.31400 -10.31372 -10.31314 -10.31148 -10.31016
 Alpha  occ. eigenvalues --  -10.30910 -10.30785 -10.29781 -10.29661 -10.29444
 Alpha  occ. eigenvalues --  -10.29402 -10.29244 -10.28920 -10.28919 -10.28840
 Alpha  occ. eigenvalues --  -10.28837 -10.28725 -10.28533 -10.28507 -10.28409
 Alpha  occ. eigenvalues --  -10.28343 -10.28334 -10.28329 -10.28327 -10.28320
 Alpha  occ. eigenvalues --  -10.28221 -10.28182 -10.28180 -10.28069 -10.27818
 Alpha  occ. eigenvalues --  -10.27803 -10.27766 -10.27468 -10.27377 -10.27347
 Alpha  occ. eigenvalues --  -10.27045 -10.26985 -10.26863 -10.26858 -10.26855
 Alpha  occ. eigenvalues --  -10.26810 -10.26802 -10.26663 -10.26652 -10.26610
 Alpha  occ. eigenvalues --  -10.26536 -10.26245 -10.26188 -10.26072 -10.26035
 Alpha  occ. eigenvalues --  -10.25904 -10.25857 -10.25850 -10.25241 -10.24912
 Alpha  occ. eigenvalues --  -10.24856  -3.19179  -3.18017  -1.94024  -1.93686
 Alpha  occ. eigenvalues --   -1.93444  -1.92930  -1.92467  -1.92310  -1.15753
 Alpha  occ. eigenvalues --   -1.13950  -1.10465  -1.10038  -1.09994  -1.08988
 Alpha  occ. eigenvalues --   -1.07530  -1.06352  -1.05517  -1.05039  -1.04091
 Alpha  occ. eigenvalues --   -1.03868  -1.03375  -1.03349  -1.02618  -1.01090
 Alpha  occ. eigenvalues --   -0.93905  -0.92895  -0.89485  -0.89161  -0.89013
 Alpha  occ. eigenvalues --   -0.88951  -0.88517  -0.88411  -0.87902  -0.87001
 Alpha  occ. eigenvalues --   -0.86937  -0.86886  -0.86202  -0.85939  -0.85433
 Alpha  occ. eigenvalues --   -0.85029  -0.84651  -0.83879  -0.83704  -0.83059
 Alpha  occ. eigenvalues --   -0.82541  -0.82264  -0.81491  -0.81162  -0.80807
 Alpha  occ. eigenvalues --   -0.79889  -0.78265  -0.78190  -0.77624  -0.77367
 Alpha  occ. eigenvalues --   -0.77051  -0.76574  -0.76519  -0.75838  -0.75283
 Alpha  occ. eigenvalues --   -0.75187  -0.73523  -0.72849  -0.72400  -0.71934
 Alpha  occ. eigenvalues --   -0.69833  -0.69270  -0.69153  -0.68609  -0.68134
 Alpha  occ. eigenvalues --   -0.67725  -0.67431  -0.67023  -0.66192  -0.65925
 Alpha  occ. eigenvalues --   -0.65580  -0.65496  -0.65387  -0.65060  -0.64872
 Alpha  occ. eigenvalues --   -0.64037  -0.62716  -0.61914  -0.60511  -0.60395
 Alpha  occ. eigenvalues --   -0.59900  -0.59822  -0.59280  -0.59137  -0.59112
 Alpha  occ. eigenvalues --   -0.58931  -0.58195  -0.58006  -0.57175  -0.57010
 Alpha  occ. eigenvalues --   -0.56773  -0.56366  -0.56164  -0.55617  -0.55471
 Alpha  occ. eigenvalues --   -0.54886  -0.54796  -0.54386  -0.54343  -0.53952
 Alpha  occ. eigenvalues --   -0.53795  -0.53561  -0.53551  -0.53410  -0.53309
 Alpha  occ. eigenvalues --   -0.52902  -0.52665  -0.52495  -0.52346  -0.52098
 Alpha  occ. eigenvalues --   -0.52092  -0.52001  -0.51843  -0.51752  -0.51514
 Alpha  occ. eigenvalues --   -0.51450  -0.51325  -0.51032  -0.50632  -0.50390
 Alpha  occ. eigenvalues --   -0.50149  -0.50026  -0.49901  -0.49870  -0.49602
 Alpha  occ. eigenvalues --   -0.49529  -0.49450  -0.49134  -0.49037  -0.48999
 Alpha  occ. eigenvalues --   -0.48965  -0.48651  -0.48401  -0.48397  -0.48304
 Alpha  occ. eigenvalues --   -0.48171  -0.47973  -0.47747  -0.47544  -0.47287
 Alpha  occ. eigenvalues --   -0.46895  -0.46764  -0.46744  -0.46718  -0.46621
 Alpha  occ. eigenvalues --   -0.46536  -0.46154  -0.46138  -0.45973  -0.45913
 Alpha  occ. eigenvalues --   -0.45831  -0.45488  -0.45379  -0.45308  -0.45088
 Alpha  occ. eigenvalues --   -0.44981  -0.44712  -0.44697  -0.44529  -0.44483
 Alpha  occ. eigenvalues --   -0.44342  -0.44127  -0.43916  -0.43813  -0.43621
 Alpha  occ. eigenvalues --   -0.43602  -0.43402  -0.43200  -0.43175  -0.42882
 Alpha  occ. eigenvalues --   -0.42573  -0.42463  -0.42317  -0.42198  -0.42072
 Alpha  occ. eigenvalues --   -0.42065  -0.41943  -0.41934  -0.41846  -0.41500
 Alpha  occ. eigenvalues --   -0.41453  -0.41359  -0.41079  -0.40276  -0.40257
 Alpha  occ. eigenvalues --   -0.40222  -0.39972  -0.39740  -0.39318  -0.38869
 Alpha  occ. eigenvalues --   -0.38301  -0.38224  -0.37979  -0.37872  -0.37533
 Alpha  occ. eigenvalues --   -0.37385  -0.37279  -0.37176  -0.36346  -0.36283
 Alpha  occ. eigenvalues --   -0.35682  -0.35374  -0.34928  -0.34488  -0.34372
 Alpha  occ. eigenvalues --   -0.33868  -0.33627  -0.33206  -0.31837  -0.31759
 Alpha  occ. eigenvalues --   -0.31408  -0.31213  -0.31049  -0.30724  -0.30506
 Alpha  occ. eigenvalues --   -0.30163  -0.29454  -0.28750  -0.24561  -0.24477
 Alpha  occ. eigenvalues --   -0.21554  -0.21465
 Alpha virt. eigenvalues --   -0.09192  -0.08797  -0.02709  -0.02282  -0.00373
 Alpha virt. eigenvalues --   -0.00186   0.00575   0.02161   0.02328   0.02509
 Alpha virt. eigenvalues --    0.04043   0.04371   0.04632   0.04812   0.05473

 Mulliken charges:
               1
     1  Mg   0.834471
     2  C   -0.008385
     3  C   -0.051090
     4  C   -0.074898
     5  C   -0.087905
     6  N   -0.224634
     7  C   -0.070886
     8  C    0.059358
     9  C   -0.071623
    10  C   -0.036589
    11  C    0.062115
    12  C    0.059733
    13  C   -0.072188
    14  H    0.007739
    15  N   -0.409467
    16  C    0.147858
    17  C   -0.174495
    18  C   -0.015329
    19  C    0.192167
    20  C    0.144601
    21  C   -0.033284
    22  O   -0.215706
    23  C    0.089247
    24  N   -0.319244
    25  C    0.023087
    26  C   -0.072994
    27  C   -0.047460
    28  C    0.019183
    29  C    0.084300
    30  C    0.042805
    31  C    0.012937
    32  N   -0.344572
    33  C    0.143217
    34  C   -0.151040
    35  C    0.030890
    36  C    0.129272
    37  C    0.139483
    38  C   -0.006513
    39  O   -0.179810
    40  C   -0.020521
    41  C    0.217713
    42  O   -0.226397
    43  O   -0.390005
    44  C    0.179627
    45  H   -0.026335
    46  H   -0.046922
    47  H   -0.027796
    48  H    0.012223
    49  H    0.017816
    50  H    0.026293
    51  H    0.015294
    52  H    0.028888
    53  H    0.025174
    54  H    0.019048
    55  H    0.034380
    56  H    0.030257
    57  H    0.044815
    58  H    0.045433
    59  H    0.008980
    60  H    0.054021
    61  H    0.041936
    62  H    0.028070
    63  H    0.008461
    64  H   -0.003901
    65  H    0.016881
    66  H    0.020069
    67  H    0.021285
    68  H    0.004891
    69  H    0.011211
    70  H   -0.004504
    71  H    0.017485
    72  H    0.028225
    73  H    0.012461
    74  H    0.025042
    75  H    0.037640
    76  H    0.040533
    77  H    0.031529
    78  H    0.052772
    79  H    0.033579
    80  Mg   0.803413
    81  C   -0.053483
    82  C   -0.077646
    83  C   -0.031489
    84  C   -0.113878
    85  N   -0.266393
    86  C   -0.028602
    87  C   -0.077948
    88  C   -0.056778
    89  C    0.065565
    90  C    0.083062
    91  C    0.065158
    92  C   -0.060427
    93  H    0.028847
    94  N   -0.375690
    95  C    0.137227
    96  C   -0.161460
    97  C   -0.018959
    98  C    0.178072
    99  C    0.123840
   100  C   -0.042889
   101  O   -0.205019
   102  C    0.068025
   103  N   -0.281944
   104  C   -0.040116
   105  C   -0.032414
   106  C   -0.000409
   107  C    0.029940
   108  C    0.073852
   109  C   -0.008461
   110  C   -0.012547
   111  N   -0.343818
   112  C    0.184259
   113  C   -0.180460
   114  C    0.103181
   115  C    0.131950
   116  C    0.117891
   117  C   -0.022214
   118  O   -0.171201
   119  C   -0.002535
   120  C    0.227949
   121  O   -0.227795
   122  O   -0.357577
   123  C    0.177851
   124  H   -0.025133
   125  H   -0.050652
   126  H   -0.029539
   127  H    0.016109
   128  H    0.020249
   129  H    0.026942
   130  H    0.012905
   131  H    0.013839
   132  H    0.013073
   133  H    0.002776
   134  H    0.032689
   135  H    0.023575
   136  H    0.036664
   137  H    0.042132
   138  H    0.002285
   139  H    0.036911
   140  H    0.025006
   141  H    0.043449
   142  H    0.026539
   143  H   -0.001269
   144  H    0.020692
   145  H    0.031764
   146  H    0.017641
   147  H    0.019560
   148  H    0.006260
   149  H    0.003063
   150  H    0.024533
   151  H    0.019075
   152  H    0.024510
   153  H    0.016648
   154  H    0.037798
   155  H    0.052375
   156  H    0.038622
   157  H    0.051830
   158  H    0.019150
 Sum of Mulliken charges =  -0.00000

 Dipole moment (field-independent basis, Debye):
    X=             -1.8169    Y=             -2.3773    Z=             -2.4151  Tot=              3.8452
 Quadrupole moment (field-independent basis, Debye-Ang):
   XX=            -33.1881   YY=           -594.8592   ZZ=           -508.5003
   XY=             47.2069   XZ=             70.5650   YZ=            -12.7211

 Normal termination of Gaussian 16 at Thu Sep 16 03:05:16 2021.
