 Gaussian 16, Revision A.03,
 Gaussian 16:  ES64L-G16RevA.03 25-Dec-2016

 -----------------------------------
 #p cam-b3lyp/Def2SVP td=(nstates=5)
 -----------------------------------

 --------------------------------
 TDDFT excited states in gaussian
 --------------------------------
 Symbolic Z-matrix:
 Charge =  0 Multiplicity = 1

                         Standard orientation:
 ---------------------------------------------------------------------
 Center     Atomic      Atomic             Coordinates (Angstroms)
 Number     Number       Type             X           Y           Z
 ---------------------------------------------------------------------
      1         12           0      -30.214824    0.609048    0.523625
      2          6           0      -28.384299   -2.356352   -0.625809
      3          6           0      -27.169458    2.231101    0.250917
      4          6           0      -31.874965    3.331307    0.467871
      5          6           0      -33.160432   -1.425364    0.213247
      6          7           0      -27.987124   -0.047981   -0.289049
      7          6           0      -27.492761   -1.273506   -0.678863
      8          6           0      -26.003019   -1.106646   -1.153835
      9          6           0      -25.575169    0.266310   -0.606896
     10          6           0      -26.976519    0.855626   -0.191206
     11          6           0      -24.590785    0.314545    0.634695
     12          6           0      -25.810332   -1.284703   -2.698844
     13          6           0      -24.566470   -2.025221   -3.140715
     14          1           0      -23.384527   -1.156177   -3.673946
     15          7           0      -29.628894    2.499468    0.506186
     16          6           0      -28.355018    2.999217    0.502060
     17          6           0      -28.396372    4.486726    0.539494
     18          6           0      -29.780260    4.799258    0.577418
     19          6           0      -30.487222    3.525138    0.473664
     20          6           0      -27.201441    5.451104    0.463140
     21          6           0      -30.450896    6.171862    0.470940
     22          8           0      -29.716158    7.155713    0.453493
     23          6           0      -31.842968    6.389038    0.424447
     24          7           0      -32.271221    0.893874    0.088861
     25          6           0      -32.693046    2.169512    0.407170
     26          6           0      -34.270536    2.169144    0.436046
     27          6           0      -34.646412    0.695819    0.041760
     28          6           0      -33.278366   -0.004306    0.223912
     29          6           0      -34.920024    2.636564    1.767477
     30          6           0      -35.306208    0.426999   -1.370589
     31          6           0      -36.810948    0.705105   -1.530816
     32          7           0      -30.766947   -1.466190   -0.022700
     33          6           0      -31.972639   -2.136316    0.033995
     34          6           0      -31.809536   -3.555422   -0.169341
     35          6           0      -30.392820   -3.691320   -0.419994
     36          6           0      -29.754296   -2.402577   -0.387391
     37          6           0      -32.939695   -4.537873   -0.191920
     38          6           0      -29.412074   -4.618054   -0.771576
     39          8           0      -29.499154   -5.787018   -1.122434
     40          6           0      -28.109468   -3.813384   -1.049845
     41          6           0      -27.077011   -4.438164   -0.140748
     42          8           0      -25.957468   -4.787474   -0.523104
     43          8           0      -27.417762   -4.456961    1.271537
     44          6           0      -26.259629   -4.729687    2.121167
     45          1           0      -26.210052    2.751647    0.244566
     46          1           0      -32.566409    4.160760    0.630226
     47          1           0      -34.131318   -1.924306    0.240055
     48          1           0      -25.378684   -1.787833   -0.573897
     49          1           0      -25.212521    0.922651   -1.397966
     50          1           0      -23.634763    0.625078    0.213685
     51          1           0      -24.442957   -0.678127    1.058969
     52          1           0      -24.913751    0.938324    1.468113
     53          1           0      -25.668965   -0.354533   -3.249804
     54          1           0      -26.643564   -1.846141   -3.122018
     55          1           0      -24.888152   -2.789582   -3.848110
     56          1           0      -24.171510   -2.549822   -2.270132
     57          1           0      -27.357270    6.286141    1.146688
     58          1           0      -27.160368    5.730610   -0.589549
     59          1           0      -26.285235    4.965747    0.796680
     60          1           0      -32.261476    6.096514    1.387981
     61          1           0      -32.351864    5.923195   -0.419480
     62          1           0      -31.873952    7.454592    0.194425
     63          1           0      -34.722799    2.811932   -0.318447
     64          1           0      -35.279927    0.232247    0.797587
     65          1           0      -35.549027    1.804344    2.083795
     66          1           0      -35.534820    3.511413    1.558201
     67          1           0      -34.062121    2.842892    2.408595
     68          1           0      -35.120096   -0.634800   -1.535246
     69          1           0      -34.863593    1.065327   -2.135549
     70          1           0      -37.074630    0.972772   -0.507219
     71          1           0      -37.363438   -0.213879   -1.731725
     72          1           0      -37.099575    1.493374   -2.225684
     73          1           0      -33.615406   -4.178724   -0.967035
     74          1           0      -33.547434   -4.522643    0.712624
     75          1           0      -32.640450   -5.521204   -0.554904
     76          1           0      -27.826917   -4.019290   -2.082075
     77          1           0      -26.656924   -4.229477    3.005182
     78          1           0      -25.326280   -4.402808    1.662839
     79          1           0      -26.282885   -5.798639    2.333430
     80         12           0       30.298530    0.281453   -0.447617
     81          6           0       28.231892   -1.635894    1.840781
     82          6           0       29.981012    2.810378    1.758876
     83          6           0       32.067564    1.968668   -2.503490
     84          6           0       30.173872   -2.435966   -2.714104
     85          7           0       29.188686    0.515819    1.677675
     86          6           0       28.527189   -0.406603    2.397682
     87          6           0       28.196111    0.146577    3.796951
     88          6           0       28.394038    1.696998    3.457020
     89          6           0       29.276462    1.681227    2.280312
     90          6           0       27.171955    2.599967    3.468326
     91          6           0       29.172168   -0.467876    4.815123
     92          6           0       28.592028   -0.511369    6.259484
     93          1           0       27.052148   -0.240844    6.591901
     94          7           0       31.006692    2.168569   -0.384516
     95          6           0       30.709689    3.125357    0.567054
     96          6           0       31.337493    4.377339    0.155672
     97          6           0       32.021443    4.125941   -1.059326
     98          6           0       31.697720    2.701437   -1.354771
     99          6           0       31.238708    5.634028    0.899932
    100          6           0       32.968163    5.097295   -1.940378
    101          8           0       33.617401    4.677330   -2.858813
    102          6           0       33.318941    6.520519   -1.470660
    103          7           0       30.781203   -0.099569   -2.460138
    104          6           0       31.665344    0.718210   -3.025845
    105          6           0       32.197315    0.238642   -4.349588
    106          6           0       31.910201   -1.274655   -4.192808
    107          6           0       30.755080   -1.223551   -3.134392
    108          6           0       31.448630    0.853940   -5.621988
    109          6           0       33.144598   -2.181954   -3.781296
    110          6           0       34.585068   -1.771239   -4.204240
    111          7           0       29.330318   -1.580861   -0.532727
    112          6           0       29.397538   -2.592701   -1.432958
    113          6           0       28.772661   -3.745943   -0.965336
    114          6           0       28.280213   -3.383059    0.255680
    115          6           0       28.637892   -2.076732    0.524816
    116          6           0       28.740765   -5.099536   -1.669702
    117          6           0       27.537231   -3.944277    1.393988
    118          8           0       26.899874   -4.975480    1.547076
    119          6           0       27.570068   -2.800214    2.499047
    120          6           0       26.203835   -2.582722    2.941407
    121          8           0       25.323580   -1.948476    2.351156
    122          8           0       25.991599   -3.416255    3.981120
    123          6           0       24.580847   -3.584970    4.280115
    124          1           0       29.723718    3.670337    2.380872
    125          1           0       32.636748    2.588040   -3.199010
    126          1           0       30.245328   -3.278916   -3.404335
    127          1           0       27.144553    0.004253    4.046409
    128          1           0       28.990550    2.100593    4.274040
    129          1           0       27.203806    3.323139    4.282693
    130          1           0       26.264349    2.003946    3.561890
    131          1           0       27.011700    3.143189    2.536994
    132          1           0       30.027139    0.204602    4.888589
    133          1           0       29.568948   -1.439174    4.520318
    134          1           0       29.195552    0.073217    6.954576
    135          1           0       28.923170   -1.492658    6.599077
    136          1           0       31.025054    5.463587    1.954898
    137          1           0       30.431741    6.185521    0.417174
    138          1           0       32.148271    6.234801    0.881246
    139          1           0       33.918001    6.548845   -0.560512
    140          1           0       32.363216    7.044920   -1.457395
    141          1           0       33.855774    7.047887   -2.259633
    142          1           0       33.237533    0.562164   -4.321134
    143          1           0       31.506700   -1.729051   -5.097362
    144          1           0       32.290709    1.126781   -6.257628
    145          1           0       30.855101    1.743755   -5.409182
    146          1           0       30.821129    0.162416   -6.182953
    147          1           0       32.947551   -3.202758   -4.105668
    148          1           0       33.140334   -2.041659   -2.700223
    149          1           0       35.016845   -1.091194   -3.470332
    150          1           0       34.446306   -1.379191   -5.212388
    151          1           0       35.239854   -2.633190   -4.327529
    152          1           0       29.663432   -5.125801   -2.249925
    153          1           0       27.929848   -5.189535   -2.391895
    154          1           0       28.707693   -5.878867   -0.908566
    155          1           0       28.189571   -3.178756    3.313054
    156          1           0       24.392380   -4.273517    5.103321
    157          1           0       23.918082   -3.752846    3.431036
    158          1           0       24.166242   -2.661015    4.684711
 ---------------------------------------------------------------------

 SCF Done:  E(RCAM-B3LYP) =  -4069.73473619     A.U. after   18 cycles

 Excitation energies and oscillator strengths:

 Excited State   1:      Singlet-A      1.7224 eV  719.84 nm  f=0.3524  <S**2>=0.000
     309 -> 315       -0.19689
     311 -> 313        0.67936
     309 <- 315       -0.11036
 This state for optimization and/or second-order correction.
 Total Energy, E(TD-HF/TD-DFT) =  -4069.67144009
 Copying the excited state density for this state as the 1-particle RhoCI density.

 Excited State   2:      Singlet-A      1.8346 eV  675.82 nm  f=0.3724  <S**2>=0.000
     310 -> 316       -0.18806
     312 -> 314        0.68158
     310 <- 316       -0.10395

 Excited State   3:      Singlet-A      2.2402 eV  553.46 nm  f=0.1593  <S**2>=0.000
     310 -> 314        0.65506
     312 -> 316        0.25321

 Excited State   4:      Singlet-A      2.2417 eV  553.08 nm  f=0.0673  <S**2>=0.000
     309 -> 313        0.61595
     311 -> 315        0.33048

 Excited State   5:      Singlet-A      3.2630 eV  379.97 nm  f=0.0000  <S**2>=0.000
     312 -> 313        0.70711

 The electronic state is 1-A.
 Alpha  occ. eigenvalues --  -46.90760 -46.89353 -19.24881 -19.23710 -19.20517
 Alpha  occ. eigenvalues --  -19.20083 -19.18850 -19.18789 -19.18753 -19.17864
 Alpha  occ. eigenvalues --  -14.42712 -14.42014 -14.41472 -14.41121 -14.40809
 Alpha  occ. eigenvalues --  -14.39944 -14.39137 -14.38634 -10.39384 -10.38202
 Alpha  occ. eigenvalues --  -10.36970 -10.34933 -10.34806 -10.33503 -10.32310
 Alpha  occ. eigenvalues --  -10.31882 -10.31585 -10.31525 -10.31364 -10.31239
 Alpha  occ. eigenvalues --  -10.31009 -10.30786 -10.30775 -10.30724 -10.30612
 Alpha  occ. eigenvalues --  -10.30517 -10.29653 -10.29593 -10.29577 -10.29418
 Alpha  occ. eigenvalues --  -10.29393 -10.29236 -10.29194 -10.28911 -10.28910
 Alpha  occ. eigenvalues --  -10.28831 -10.28524 -10.28491 -10.28401 -10.28400
 Alpha  occ. eigenvalues --  -10.28320 -10.28316 -10.28213 -10.28061 -10.27958
 Alpha  occ. eigenvalues --  -10.27827 -10.27697 -10.27516 -10.27497 -10.27473
 Alpha  occ. eigenvalues --  -10.27460 -10.27359 -10.27339 -10.27287 -10.27253
 Alpha  occ. eigenvalues --  -10.27118 -10.27114 -10.26975 -10.26850 -10.26848
 Alpha  occ. eigenvalues --  -10.26800 -10.26655 -10.26645 -10.26491 -10.26237
 Alpha  occ. eigenvalues --  -10.26204 -10.26180 -10.26075 -10.25980 -10.25843
 Alpha  occ. eigenvalues --  -10.25531 -10.25459 -10.25359 -10.25233 -10.25213
 Alpha  occ. eigenvalues --  -10.23710  -3.19171  -3.17853  -1.94016  -1.93678
 Alpha  occ. eigenvalues --   -1.93436  -1.92755  -1.92327  -1.92138  -1.16473
 Alpha  occ. eigenvalues --   -1.13940  -1.12600  -1.10457  -1.09442  -1.08979
 Alpha  occ. eigenvalues --   -1.06622  -1.06343  -1.05774  -1.05192  -1.05031
 Alpha  occ. eigenvalues --   -1.04626  -1.03402  -1.03367  -1.03340  -1.01082
 Alpha  occ. eigenvalues --   -0.92886  -0.92334  -0.89159  -0.89004  -0.88943
 Alpha  occ. eigenvalues --   -0.88736  -0.88509  -0.88097  -0.87512  -0.86993
 Alpha  occ. eigenvalues --   -0.86928  -0.86893  -0.85931  -0.85578  -0.85021
 Alpha  occ. eigenvalues --   -0.84360  -0.83872  -0.83696  -0.83093  -0.82532
 Alpha  occ. eigenvalues --   -0.82370  -0.81931  -0.81153  -0.80719  -0.80084
 Alpha  occ. eigenvalues --   -0.79881  -0.78595  -0.78257  -0.77359  -0.77042
 Alpha  occ. eigenvalues --   -0.76827  -0.76625  -0.75829  -0.75700  -0.75274
 Alpha  occ. eigenvalues --   -0.75251  -0.72841  -0.72744  -0.71925  -0.71650
 Alpha  occ. eigenvalues --   -0.69651  -0.69145  -0.68751  -0.68601  -0.67716
 Alpha  occ. eigenvalues --   -0.67567  -0.67014  -0.66758  -0.65571  -0.65432
 Alpha  occ. eigenvalues --   -0.65379  -0.65060  -0.65052  -0.64656  -0.64029
 Alpha  occ. eigenvalues --   -0.63672  -0.61904  -0.61794  -0.60802  -0.60387
 Alpha  occ. eigenvalues --   -0.59814  -0.59495  -0.59271  -0.59230  -0.58923
 Alpha  occ. eigenvalues --   -0.58395  -0.57906  -0.57466  -0.57166  -0.57002
 Alpha  occ. eigenvalues --   -0.56764  -0.56527  -0.55609  -0.55465  -0.55176
 Alpha  occ. eigenvalues --   -0.54787  -0.54614  -0.54336  -0.54031  -0.53943
 Alpha  occ. eigenvalues --   -0.53787  -0.53775  -0.53597  -0.53553  -0.53301
 Alpha  occ. eigenvalues --   -0.52946  -0.52894  -0.52860  -0.52487  -0.52261
 Alpha  occ. eigenvalues --   -0.51991  -0.51743  -0.51664  -0.51442  -0.51280
 Alpha  occ. eigenvalues --   -0.51147  -0.51024  -0.50645  -0.50624  -0.50451
 Alpha  occ. eigenvalues --   -0.50025  -0.49893  -0.49861  -0.49699  -0.49521
 Alpha  occ. eigenvalues --   -0.49125  -0.49073  -0.48956  -0.48907  -0.48756
 Alpha  occ. eigenvalues --   -0.48643  -0.48600  -0.48393  -0.48284  -0.48162
 Alpha  occ. eigenvalues --   -0.47965  -0.47893  -0.47738  -0.47492  -0.47381
 Alpha  occ. eigenvalues --   -0.47279  -0.47036  -0.46736  -0.46723  -0.46527
 Alpha  occ. eigenvalues --   -0.46197  -0.46145  -0.45904  -0.45748  -0.45425
 Alpha  occ. eigenvalues --   -0.45370  -0.44973  -0.44923  -0.44689  -0.44636
 Alpha  occ. eigenvalues --   -0.44474  -0.44365  -0.44333  -0.44314  -0.44119
 Alpha  occ. eigenvalues --   -0.44050  -0.43889  -0.43805  -0.43793  -0.43594
 Alpha  occ. eigenvalues --   -0.43296  -0.43242  -0.43191  -0.42952  -0.42646
 Alpha  occ. eigenvalues --   -0.42565  -0.42466  -0.42455  -0.42308  -0.42245
 Alpha  occ. eigenvalues --   -0.42064  -0.42064  -0.41934  -0.41491  -0.41404
 Alpha  occ. eigenvalues --   -0.41350  -0.41343  -0.40392  -0.40269  -0.40213
 Alpha  occ. eigenvalues --   -0.39964  -0.39723  -0.39323  -0.39309  -0.38860
 Alpha  occ. eigenvalues --   -0.38593  -0.38242  -0.38072  -0.37864  -0.37525
 Alpha  occ. eigenvalues --   -0.37438  -0.37167  -0.36590  -0.36337  -0.35911
 Alpha  occ. eigenvalues --   -0.35638  -0.35364  -0.34479  -0.34161  -0.33860
 Alpha  occ. eigenvalues --   -0.33712  -0.33197  -0.32470  -0.31920  -0.31752
 Alpha  occ. eigenvalues --   -0.31513  -0.31400  -0.31041  -0.30597  -0.30356
 Alpha  occ. eigenvalues --   -0.30155  -0.29467  -0.28741  -0.24469  -0.23364
 Alpha  occ. eigenvalues --   -0.21457  -0.21355
 Alpha virt. eigenvalues --   -0.08789  -0.08245  -0.02701  -0.01068  -0.00364
 Alpha virt. eigenvalues --    0.00576   0.00584   0.02169   0.02432   0.02753
 Alpha virt. eigenvalues --    0.04212   0.04380   0.04821   0.05484   0.05729

 Mulliken charges:
               1
     1  Mg   0.834451
     2  C   -0.008412
     3  C   -0.051064
     4  C   -0.074893
     5  C   -0.087901
     6  N   -0.224641
     7  C   -0.070889
     8  C    0.059379
     9  C   -0.071650
    10  C   -0.036594
    11  C    0.062109
    12  C    0.059737
    13  C   -0.072199
    14  H    0.007760
    15  N   -0.409460
    16  C    0.147834
    17  C   -0.174490
    18  C   -0.015328
    19  C    0.192156
    20  C    0.144601
    21  C   -0.033295
    22  O   -0.215712
    23  C    0.089249
    24  N   -0.319232
    25  C    0.023081
    26  C   -0.072981
    27  C   -0.047464
    28  C    0.019175
    29  C    0.084297
    30  C    0.042808
    31  C    0.012939
    32  N   -0.344565
    33  C    0.143223
    34  C   -0.151046
    35  C    0.030901
    36  C    0.129283
    37  C    0.139482
    38  C   -0.006513
    39  O   -0.179800
    40  C   -0.020497
    41  C    0.217709
    42  O   -0.226388
    43  O   -0.390011
    44  C    0.179635
    45  H   -0.026328
    46  H   -0.046933
    47  H   -0.027805
    48  H    0.012238
    49  H    0.017821
    50  H    0.026307
    51  H    0.015304
    52  H    0.028881
    53  H    0.025174
    54  H    0.019042
    55  H    0.034385
    56  H    0.030266
    57  H    0.044807
    58  H    0.045432
    59  H    0.008985
    60  H    0.054018
    61  H    0.041934
    62  H    0.028060
    63  H    0.008456
    64  H   -0.003907
    65  H    0.016876
    66  H    0.020060
    67  H    0.021284
    68  H    0.004892
    69  H    0.011211
    70  H   -0.004509
    71  H    0.017482
    72  H    0.028219
    73  H    0.012459
    74  H    0.025036
    75  H    0.037643
    76  H    0.040543
    77  H    0.031519
    78  H    0.052781
    79  H    0.033583
    80  Mg   0.824289
    81  C    0.010036
    82  C   -0.058326
    83  C   -0.077517
    84  C   -0.071144
    85  N   -0.187792
    86  C   -0.104795
    87  C   -0.021642
    88  C   -0.036010
    89  C   -0.028534
    90  C    0.088090
    91  C    0.049010
    92  C   -0.037965
    93  H    0.035300
    94  N   -0.382905
    95  C    0.143312
    96  C   -0.138007
    97  C   -0.053139
    98  C    0.096512
    99  C    0.105624
   100  C    0.029677
   101  O   -0.167270
   102  C    0.040806
   103  N   -0.248123
   104  C    0.043893
   105  C   -0.049669
   106  C   -0.064509
   107  C    0.033768
   108  C    0.074633
   109  C    0.034645
   110  C    0.005247
   111  N   -0.317558
   112  C    0.075667
   113  C   -0.206289
   114  C    0.001042
   115  C    0.122237
   116  C    0.136334
   117  C    0.060794
   118  O   -0.161550
   119  C   -0.025090
   120  C    0.186391
   121  O   -0.243533
   122  O   -0.299425
   123  C    0.194944
   124  H   -0.035365
   125  H   -0.014030
   126  H   -0.022068
   127  H    0.018015
   128  H   -0.009357
   129  H    0.017776
   130  H    0.020698
   131  H    0.014764
   132  H    0.007787
   133  H    0.024754
   134  H    0.015699
   135  H    0.014654
   136  H    0.021419
   137  H    0.041743
   138  H    0.018428
   139  H    0.065184
   140  H    0.023184
   141  H    0.023998
   142  H    0.019503
   143  H   -0.009332
   144  H    0.020092
   145  H    0.023942
   146  H    0.021312
   147  H    0.012425
   148  H    0.003380
   149  H    0.029270
   150  H    0.014355
   151  H    0.015693
   152  H    0.005775
   153  H    0.029854
   154  H    0.032442
   155  H    0.043038
   156  H    0.030135
   157  H    0.042734
   158  H    0.006637
 Sum of Mulliken charges =  -0.00000

 Dipole moment (field-independent basis, Debye):
    X=              0.5459    Y=              8.5616    Z=              4.4293  Tot=              9.6549
 Quadrupole moment (field-independent basis, Debye-Ang):
   XX=           -119.3825   YY=           -565.0559   ZZ=           -487.1540
   XY=              9.2086   XZ=            -10.4076   YZ=              4.3215

 Normal termination of Gaussian 16 at Thu Sep  2 14:31:39 2021.
