 Gaussian 16, Revision A.03,
 Gaussian 16:  ES64L-G16RevA.03 25-Dec-2016

 -----------------------------------
 #p cam-b3lyp/Def2SVP td=(nstates=5)
 -----------------------------------

 --------------------------------
 TDDFT excited states in gaussian
 --------------------------------
 Symbolic Z-matrix:
 Charge =  0 Multiplicity = 1

                         Standard orientation:
 ---------------------------------------------------------------------
 Center     Atomic      Atomic             Coordinates (Angstroms)
 Number     Number       Type             X           Y           Z
 ---------------------------------------------------------------------
      1         12           0      -29.921314    0.245889   -0.508669
      2          6           0      -26.375373    0.520207    0.276187
      3          6           0      -29.086988   -2.246882   -2.717643
      4          6           0      -33.000350   -1.005564   -0.140139
      5          6           0      -30.545257    2.823380    1.615849
      6          7           0      -27.930192   -0.873706   -0.987158
      7          6           0      -26.589498   -0.522399   -0.590861
      8          6           0      -25.586778   -1.329259   -1.420505
      9          6           0      -26.430704   -1.905276   -2.595596
     10          6           0      -27.936913   -1.679399   -2.132770
     11          6           0      -26.161679   -1.177118   -3.996704
     12          6           0      -24.700410   -2.290006   -0.683156
     13          6           0      -25.123400   -2.697763    0.747893
     14          1           0      -24.417004   -3.713658    1.664090
     15          7           0      -30.966287   -1.343833   -1.437217
     16          6           0      -30.426295   -2.266413   -2.305799
     17          6           0      -31.532864   -3.147299   -2.793919
     18          6           0      -32.600859   -2.840467   -1.954628
     19          6           0      -32.241491   -1.730982   -1.074586
     20          6           0      -31.291746   -4.160672   -3.856041
     21          6           0      -33.965011   -3.589974   -1.956243
     22          8           0      -34.078130   -4.563297   -2.680072
     23          6           0      -35.095713   -3.295848   -1.027032
     24          7           0      -31.463901    0.788296    0.732797
     25          6           0      -32.698481    0.163333    0.560656
     26          6           0      -33.789607    0.876268    1.359439
     27          6           0      -33.123798    2.261499    1.688223
     28          6           0      -31.671148    1.977882    1.299250
     29          6           0      -35.188381    1.046532    0.712806
     30          6           0      -33.297949    2.778451    3.152292
     31          6           0      -34.309980    3.998411    3.346743
     32          7           0      -28.737800    1.517590    0.661314
     33          6           0      -29.156654    2.596738    1.425886
     34          6           0      -28.000155    3.331055    1.876946
     35          6           0      -26.942508    2.490561    1.503956
     36          6           0      -27.467439    1.415514    0.745009
     37          6           0      -28.079075    4.610952    2.727036
     38          6           0      -25.520687    2.330491    1.500780
     39          8           0      -24.705564    3.139690    1.987795
     40          6           0      -25.038809    1.119946    0.584522
     41          6           0      -24.132544    0.342197    1.452808
     42          8           0      -24.357261   -0.031371    2.608860
     43          8           0      -23.061074    0.010312    0.691704
     44          6           0      -21.909426   -0.622705    1.407721
     45          1           0      -28.821421   -3.050869   -3.406547
     46          1           0      -34.006824   -1.418065   -0.040989
     47          1           0      -30.774826    3.721609    2.192215
     48          1           0      -25.001204   -0.485393   -1.785406
     49          1           0      -26.371038   -2.991226   -2.670203
     50          1           0      -25.683455   -1.954679   -4.591036
     51          1           0      -25.550516   -0.289343   -3.832348
     52          1           0      -27.148745   -0.952253   -4.402292
     53          1           0      -23.695921   -1.870129   -0.732903
     54          1           0      -24.723726   -3.145393   -1.359168
     55          1           0      -26.154176   -3.037647    0.642646
     56          1           0      -25.119064   -1.819002    1.393076
     57          1           0      -31.370153   -5.130297   -3.365196
     58          1           0      -30.300214   -3.986004   -4.272629
     59          1           0      -32.008041   -4.013104   -4.665037
     60          1           0      -34.946059   -3.470441    0.037756
     61          1           0      -35.955137   -3.944889   -1.192492
     62          1           0      -35.329931   -2.272708   -1.320685
     63          1           0      -33.818877    0.177238    2.196065
     64          1           0      -33.544858    2.946094    0.951587
     65          1           0      -35.920370    0.316911    1.060620
     66          1           0      -35.115329    0.879001   -0.361244
     67          1           0      -35.502225    2.077050    0.882599
     68          1           0      -32.365860    3.064602    3.640360
     69          1           0      -33.625510    1.896228    3.702423
     70          1           0      -34.863346    3.689745    4.233300
     71          1           0      -34.987567    4.172574    2.510758
     72          1           0      -33.702631    4.900141    3.416338
     73          1           0      -27.248866    5.306172    2.600498
     74          1           0      -28.034590    4.189046    3.730501
     75          1           0      -28.930856    5.216245    2.417666
     76          1           0      -24.548180    1.516864   -0.305424
     77          1           0      -21.119808   -0.846841    0.689690
     78          1           0      -22.204244   -1.561882    1.876219
     79          1           0      -21.633434    0.154431    2.119067
     80         12           0       29.731127   -0.392259    0.323434
     81          6           0       27.004480    1.804744   -0.637065
     82          6           0       31.259380    0.664600   -2.489463
     83          6           0       32.091846   -2.376338    1.156033
     84          6           0       27.745167   -1.551990    3.015619
     85          7           0       29.141140    1.169319   -1.413500
     86          6           0       28.062944    1.966204   -1.510038
     87          6           0       28.237760    2.960530   -2.673795
     88          6           0       29.401577    2.176130   -3.441114
     89          6           0       30.004007    1.341036   -2.390753
     90          6           0       29.088851    1.568068   -4.798108
     91          6           0       28.598623    4.339797   -2.095595
     92          6           0       28.193077    5.514344   -3.034001
     93          1           0       27.235720    5.331029   -4.300799
     94          7           0       31.515303   -0.796288   -0.525187
     95          6           0       31.965984   -0.335786   -1.747465
     96          6           0       33.249900   -0.973901   -2.021690
     97          6           0       33.546179   -1.814114   -0.920113
     98          6           0       32.347126   -1.679759   -0.045175
     99          6           0       34.039593   -0.752534   -3.234262
    100          6           0       34.863555   -2.700765   -0.612824
    101          8           0       35.033616   -3.224041    0.454258
    102          6           0       36.088789   -2.670027   -1.544009
    103          7           0       29.759797   -1.961658    1.725060
    104          6           0       30.940833   -2.526566    1.962805
    105          6           0       30.967873   -3.426369    3.168996
    106          6           0       29.754924   -2.843113    3.934273
    107          6           0       28.967668   -2.196586    2.742890
    108          6           0       30.767414   -4.978148    2.837456
    109          6           0       30.090533   -1.847673    5.122860
    110          6           0       31.422378   -2.003232    5.913121
    111          7           0       27.768349   -0.082833    1.005088
    112          6           0       27.111529   -0.536678    2.101156
    113          6           0       25.897554    0.119528    2.287621
    114          6           0       25.818541    0.976071    1.226885
    115          6           0       26.963463    0.866725    0.462651
    116          6           0       24.947499   -0.066071    3.467582
    117          6           0       24.935679    2.008080    0.662751
    118          8           0       23.781086    2.334877    0.893312
    119          6           0       25.763028    2.627890   -0.546564
    120          6           0       24.904448    2.606369   -1.717869
    121          8           0       24.645030    1.632165   -2.431413
    122          8           0       24.233295    3.776904   -1.732860
    123          6           0       23.079451    3.745553   -2.613624
    124          1           0       31.662521    0.869779   -3.483438
    125          1           0       32.900868   -3.071545    1.387359
    126          1           0       27.211862   -1.872064    3.912963
    127          1           0       27.367742    2.966865   -3.330520
    128          1           0       30.146998    2.930511   -3.689095
    129          1           0       29.624648    2.067558   -5.604717
    130          1           0       28.019021    1.624188   -4.998256
    131          1           0       29.293337    0.499452   -4.864425
    132          1           0       29.686447    4.395485   -2.049365
    133          1           0       28.238548    4.504201   -1.080175
    134          1           0       29.059118    6.098602   -3.346650
    135          1           0       27.802199    6.239730   -2.320604
    136          1           0       33.808203    0.206021   -3.698249
    137          1           0       33.784178   -1.582623   -3.893133
    138          1           0       35.116972   -0.741986   -3.067751
    139          1           0       36.590621   -1.703112   -1.579857
    140          1           0       35.723725   -3.079762   -2.486042
    141          1           0       36.808909   -3.426798   -1.231744
    142          1           0       31.960605   -3.245606    3.580503
    143          1           0       29.116488   -3.610297    4.371691
    144          1           0       31.552516   -5.431821    3.441917
    145          1           0       30.923249   -5.239204    1.790127
    146          1           0       29.817723   -5.410736    3.149869
    147          1           0       29.252964   -1.844480    5.818958
    148          1           0       30.222835   -0.917783    4.569488
    149          1           0       32.225055   -1.460039    5.414959
    150          1           0       31.539542   -3.084519    5.993195
    151          1           0       31.334294   -1.655007    6.941656
    152          1           0       25.596379   -0.347360    4.297337
    153          1           0       24.253870   -0.895837    3.334853
    154          1           0       24.435218    0.879489    3.644395
    155          1           0       26.006242    3.651299   -0.258179
    156          1           0       22.513825    4.676855   -2.619000
    157          1           0       22.439791    2.865137   -2.549793
    158          1           0       23.399085    3.692094   -3.654905
 ---------------------------------------------------------------------

 SCF Done:  E(RCAM-B3LYP) =  -4069.75102352     A.U. after   19 cycles

 Excitation energies and oscillator strengths:

 Excited State   1:      Singlet-A      1.6561 eV  748.64 nm  f=0.3584  <S**2>=0.000
     309 -> 315        0.15662
     312 -> 313        0.69071
     309 <- 315        0.10158
 This state for optimization and/or second-order correction.
 Total Energy, E(TD-HF/TD-DFT) =  -4069.69016199
 Copying the excited state density for this state as the 1-particle RhoCI density.

 Excited State   2:      Singlet-A      1.8346 eV  675.82 nm  f=0.3726  <S**2>=0.000
     310 -> 316        0.18806
     311 -> 314        0.68158
     310 <- 316        0.10395

 Excited State   3:      Singlet-A      2.2402 eV  553.46 nm  f=0.1572  <S**2>=0.000
     310 -> 314        0.65519
     311 -> 316       -0.25326

 Excited State   4:      Singlet-A      2.2759 eV  544.77 nm  f=0.0763  <S**2>=0.000
     309 -> 313        0.61914
     312 -> 315       -0.32529

 Excited State   5:      Singlet-A      3.2444 eV  382.15 nm  f=0.0000  <S**2>=0.000
     312 -> 314        0.70710

 The electronic state is 1-A.
 Alpha  occ. eigenvalues --  -46.89350 -46.89293 -19.25346 -19.24877 -19.20514
 Alpha  occ. eigenvalues --  -19.19407 -19.19066 -19.18846 -19.18750 -19.17061
 Alpha  occ. eigenvalues --  -14.42457 -14.41533 -14.41469 -14.41117 -14.39941
 Alpha  occ. eigenvalues --  -14.39714 -14.38729 -14.38631 -10.39120 -10.38199
 Alpha  occ. eigenvalues --  -10.36967 -10.35492 -10.34803 -10.33520 -10.32111
 Alpha  occ. eigenvalues --  -10.31921 -10.31641 -10.31235 -10.30993 -10.30862
 Alpha  occ. eigenvalues --  -10.30799 -10.30783 -10.30721 -10.30609 -10.30513
 Alpha  occ. eigenvalues --  -10.30488 -10.29590 -10.29574 -10.29415 -10.29191
 Alpha  occ. eigenvalues --  -10.28995 -10.28823 -10.28703 -10.28505 -10.28488
 Alpha  occ. eigenvalues --  -10.28465 -10.28396 -10.28381 -10.27955 -10.27864
 Alpha  occ. eigenvalues --  -10.27845 -10.27824 -10.27694 -10.27661 -10.27622
 Alpha  occ. eigenvalues --  -10.27597 -10.27542 -10.27513 -10.27494 -10.27470
 Alpha  occ. eigenvalues --  -10.27356 -10.27287 -10.27284 -10.27250 -10.27224
 Alpha  occ. eigenvalues --  -10.27155 -10.27114 -10.27111 -10.27109 -10.26911
 Alpha  occ. eigenvalues --  -10.26879 -10.26776 -10.26488 -10.26381 -10.26247
 Alpha  occ. eigenvalues --  -10.26201 -10.26072 -10.26020 -10.25977 -10.25927
 Alpha  occ. eigenvalues --  -10.25527 -10.25456 -10.25356 -10.25209 -10.23964
 Alpha  occ. eigenvalues --  -10.23706  -3.17850  -3.17780  -1.92751  -1.92653
 Alpha  occ. eigenvalues --   -1.92324  -1.92257  -1.92135  -1.92062  -1.16470
 Alpha  occ. eigenvalues --   -1.16066  -1.12597  -1.10675  -1.09438  -1.07465
 Alpha  occ. eigenvalues --   -1.06663  -1.06619  -1.05771  -1.05189  -1.04825
 Alpha  occ. eigenvalues --   -1.04622  -1.04009  -1.03399  -1.02809  -1.00338
 Alpha  occ. eigenvalues --   -0.92330  -0.91922  -0.89334  -0.89156  -0.88960
 Alpha  occ. eigenvalues --   -0.88733  -0.88594  -0.88094  -0.87509  -0.86890
 Alpha  occ. eigenvalues --   -0.86810  -0.86636  -0.86072  -0.85574  -0.84362
 Alpha  occ. eigenvalues --   -0.84357  -0.83686  -0.83090  -0.82719  -0.82367
 Alpha  occ. eigenvalues --   -0.82339  -0.81928  -0.80951  -0.80715  -0.80154
 Alpha  occ. eigenvalues --   -0.80080  -0.78592  -0.78009  -0.77744  -0.76824
 Alpha  occ. eigenvalues --   -0.76622  -0.76475  -0.75985  -0.75697  -0.75248
 Alpha  occ. eigenvalues --   -0.75235  -0.73018  -0.72741  -0.71668  -0.71647
 Alpha  occ. eigenvalues --   -0.69648  -0.69625  -0.68998  -0.68747  -0.67594
 Alpha  occ. eigenvalues --   -0.67564  -0.66897  -0.66755  -0.66174  -0.65429
 Alpha  occ. eigenvalues --   -0.65354  -0.65057  -0.64653  -0.64650  -0.63669
 Alpha  occ. eigenvalues --   -0.63527  -0.62104  -0.61790  -0.60799  -0.59612
 Alpha  occ. eigenvalues --   -0.59491  -0.59227  -0.59104  -0.59032  -0.58392
 Alpha  occ. eigenvalues --   -0.58009  -0.57902  -0.57486  -0.57463  -0.57184
 Alpha  occ. eigenvalues --   -0.56758  -0.56524  -0.56266  -0.55462  -0.55173
 Alpha  occ. eigenvalues --   -0.55161  -0.54611  -0.54555  -0.54227  -0.54028
 Alpha  occ. eigenvalues --   -0.53772  -0.53653  -0.53594  -0.53445  -0.52943
 Alpha  occ. eigenvalues --   -0.52857  -0.52845  -0.52535  -0.52279  -0.52258
 Alpha  occ. eigenvalues --   -0.51821  -0.51661  -0.51366  -0.51277  -0.51193
 Alpha  occ. eigenvalues --   -0.51144  -0.51030  -0.50642  -0.50637  -0.50448
 Alpha  occ. eigenvalues --   -0.50021  -0.49961  -0.49695  -0.49648  -0.49520
 Alpha  occ. eigenvalues --   -0.49070  -0.48931  -0.48904  -0.48764  -0.48753
 Alpha  occ. eigenvalues --   -0.48596  -0.48333  -0.48281  -0.48100  -0.47890
 Alpha  occ. eigenvalues --   -0.47741  -0.47590  -0.47488  -0.47378  -0.47138
 Alpha  occ. eigenvalues --   -0.47033  -0.46894  -0.46779  -0.46719  -0.46531
 Alpha  occ. eigenvalues --   -0.46222  -0.46194  -0.45744  -0.45700  -0.45446
 Alpha  occ. eigenvalues --   -0.45422  -0.45173  -0.44939  -0.44919  -0.44632
 Alpha  occ. eigenvalues --   -0.44429  -0.44362  -0.44311  -0.44047  -0.43974
 Alpha  occ. eigenvalues --   -0.43928  -0.43885  -0.43790  -0.43464  -0.43402
 Alpha  occ. eigenvalues --   -0.43293  -0.43239  -0.42949  -0.42810  -0.42718
 Alpha  occ. eigenvalues --   -0.42643  -0.42543  -0.42463  -0.42265  -0.42242
 Alpha  occ. eigenvalues --   -0.42107  -0.42061  -0.41910  -0.41731  -0.41401
 Alpha  occ. eigenvalues --   -0.41340  -0.41060  -0.40750  -0.40389  -0.39905
 Alpha  occ. eigenvalues --   -0.39720  -0.39336  -0.39320  -0.39070  -0.38590
 Alpha  occ. eigenvalues --   -0.38489  -0.38238  -0.38068  -0.37435  -0.37392
 Alpha  occ. eigenvalues --   -0.37082  -0.36587  -0.36566  -0.36329  -0.35908
 Alpha  occ. eigenvalues --   -0.35821  -0.35635  -0.34362  -0.34158  -0.33811
 Alpha  occ. eigenvalues --   -0.33709  -0.32678  -0.32466  -0.31917  -0.31512
 Alpha  occ. eigenvalues --   -0.31510  -0.31160  -0.30594  -0.30352  -0.30091
 Alpha  occ. eigenvalues --   -0.29463  -0.29418  -0.29218  -0.24440  -0.23361
 Alpha  occ. eigenvalues --   -0.21352  -0.20741
 Alpha virt. eigenvalues --   -0.08571  -0.08242  -0.01779  -0.01065   0.00580
 Alpha virt. eigenvalues --    0.00939   0.01484   0.02434   0.02512   0.02756
 Alpha virt. eigenvalues --    0.04215   0.04902   0.05421   0.05733   0.05895

 Mulliken charges:
               1
     1  Mg   0.820318
     2  C   -0.030316
     3  C   -0.063584
     4  C   -0.071133
     5  C   -0.075674
     6  N   -0.309251
     7  C   -0.098387
     8  C    0.032379
     9  C   -0.088953
    10  C    0.018006
    11  C    0.083154
    12  C    0.077563
    13  C   -0.046992
    14  H    0.019796
    15  N   -0.391657
    16  C    0.125447
    17  C   -0.145354
    18  C   -0.034504
    19  C    0.142966
    20  C    0.154405
    21  C   -0.013503
    22  O   -0.198129
    23  C    0.066669
    24  N   -0.314489
    25  C    0.069836
    26  C   -0.078976
    27  C    0.038564
    28  C   -0.001169
    29  C    0.080940
    30  C    0.022882
    31  C   -0.006872
    32  N   -0.284805
    33  C    0.084294
    34  C   -0.172568
    35  C    0.043299
    36  C    0.082272
    37  C    0.114719
    38  C    0.003076
    39  O   -0.216382
    40  C    0.045278
    41  C    0.197735
    42  O   -0.231859
    43  O   -0.339262
    44  C    0.180670
    45  H   -0.019398
    46  H   -0.063797
    47  H   -0.033488
    48  H    0.001494
    49  H    0.014762
    50  H    0.026239
    51  H    0.029011
    52  H    0.019934
    53  H    0.006732
    54  H   -0.008003
    55  H    0.024286
    56  H    0.048668
    57  H    0.049561
    58  H   -0.000640
    59  H    0.036231
    60  H    0.054901
    61  H    0.021095
    62  H    0.037893
    63  H    0.025844
    64  H    0.005551
    65  H    0.018945
    66  H    0.015430
    67  H    0.020807
    68  H    0.021158
    69  H   -0.000059
    70  H    0.029348
    71  H    0.015075
    72  H    0.025947
    73  H    0.027732
    74  H    0.049115
    75  H    0.018923
    76  H    0.043786
    77  H    0.041319
    78  H    0.050538
    79  H    0.054610
    80  Mg   0.824262
    81  C    0.010054
    82  C   -0.058305
    83  C   -0.077489
    84  C   -0.071142
    85  N   -0.187792
    86  C   -0.104815
    87  C   -0.021604
    88  C   -0.036011
    89  C   -0.028553
    90  C    0.088086
    91  C    0.048990
    92  C   -0.037957
    93  H    0.035297
    94  N   -0.382889
    95  C    0.143291
    96  C   -0.138001
    97  C   -0.053144
    98  C    0.096491
    99  C    0.105624
   100  C    0.029677
   101  O   -0.167271
   102  C    0.040804
   103  N   -0.248130
   104  C    0.043904
   105  C   -0.049679
   106  C   -0.064508
   107  C    0.033779
   108  C    0.074630
   109  C    0.034643
   110  C    0.005246
   111  N   -0.317556
   112  C    0.075662
   113  C   -0.206285
   114  C    0.001036
   115  C    0.122228
   116  C    0.136338
   117  C    0.060795
   118  O   -0.161541
   119  C   -0.025079
   120  C    0.186380
   121  O   -0.243534
   122  O   -0.299421
   123  C    0.194942
   124  H   -0.035366
   125  H   -0.014033
   126  H   -0.022066
   127  H    0.018010
   128  H   -0.009355
   129  H    0.017775
   130  H    0.020699
   131  H    0.014761
   132  H    0.007790
   133  H    0.024758
   134  H    0.015698
   135  H    0.014658
   136  H    0.021421
   137  H    0.041739
   138  H    0.018427
   139  H    0.065185
   140  H    0.023182
   141  H    0.023996
   142  H    0.019501
   143  H   -0.009333
   144  H    0.020092
   145  H    0.023937
   146  H    0.021310
   147  H    0.012430
   148  H    0.003381
   149  H    0.029271
   150  H    0.014352
   151  H    0.015697
   152  H    0.005779
   153  H    0.029853
   154  H    0.032447
   155  H    0.043042
   156  H    0.030141
   157  H    0.042731
   158  H    0.006635
 Sum of Mulliken charges =  -0.00000

 Dipole moment (field-independent basis, Debye):
    X=              2.3656    Y=              1.7335    Z=             -4.6347  Tot=              5.4847
 Quadrupole moment (field-independent basis, Debye-Ang):
   XX=             18.3839   YY=           -514.9950   ZZ=           -495.0314
   XY=            -13.2108   XZ=            -13.7179   YZ=            -18.1292

 Normal termination of Gaussian 16 at Tue Aug 31 19:00:02 2021.
