 Gaussian 16, Revision A.03,
 Gaussian 16:  ES64L-G16RevA.03 25-Dec-2016

 -----------------------------------
 #p cam-b3lyp/Def2SVP td=(nstates=5)
 -----------------------------------

 --------------------------------
 TDDFT excited states in gaussian
 --------------------------------
 Symbolic Z-matrix:
 Charge =  0 Multiplicity = 1

                         Standard orientation:
 ---------------------------------------------------------------------
 Center     Atomic      Atomic             Coordinates (Angstroms)
 Number     Number       Type             X           Y           Z
 ---------------------------------------------------------------------
      1         12           0      -29.079322    0.267539   -0.591070
      2          6           0      -28.384475   -2.175306    1.684748
      3          6           0      -27.471523    2.590865    1.537558
      4          6           0      -29.942231    2.734564   -2.684489
      5          6           0      -30.556934   -2.089305   -2.606194
      6          7           0      -28.331436    0.292711    1.501682
      7          6           0      -28.043905   -0.892255    2.191061
      8          6           0      -27.324962   -0.618913    3.542490
      9          6           0      -27.149110    0.917761    3.416382
     10          6           0      -27.745978    1.333441    2.083983
     11          6           0      -27.625462    1.906314    4.564367
     12          6           0      -25.946158   -1.376303    3.787052
     13          6           0      -25.308473   -0.995448    5.150060
     14          1           0      -25.380311   -2.118754    6.185371
     15          7           0      -28.695584    2.414145   -0.588119
     16          6           0      -27.827637    3.078295    0.251704
     17          6           0      -27.881592    4.478487   -0.151971
     18          6           0      -28.613556    4.507189   -1.382479
     19          6           0      -29.110598    3.190500   -1.630553
     20          6           0      -27.175422    5.522135    0.624392
     21          6           0      -28.917214    5.830957   -2.167345
     22          8           0      -29.724401    5.902410   -3.116172
     23          6           0      -28.275992    7.124356   -1.736712
     24          7           0      -30.070921    0.320028   -2.275579
     25          6           0      -30.344761    1.500731   -3.021724
     26          6           0      -31.369513    1.233329   -4.100737
     27          6           0      -31.141674   -0.262023   -4.313341
     28          6           0      -30.502906   -0.738092   -3.016402
     29          6           0      -32.831497    1.569977   -3.652939
     30          6           0      -30.156648   -0.559204   -5.466030
     31          6           0      -30.695967   -0.631838   -6.869364
     32          7           0      -29.493275   -1.751842   -0.555476
     33          6           0      -29.951269   -2.610946   -1.480289
     34          6           0      -29.962367   -3.935842   -0.934057
     35          6           0      -29.343689   -3.839650    0.294279
     36          6           0      -29.030522   -2.482898    0.470619
     37          6           0      -30.467310   -5.112132   -1.694525
     38          6           0      -28.924375   -4.595318    1.396408
     39          8           0      -28.969095   -5.789002    1.623337
     40          6           0      -28.260609   -3.521070    2.379743
     41          6           0      -28.964024   -3.603975    3.688009
     42          8           0      -30.107441   -3.296588    3.922301
     43          8           0      -28.121311   -3.937498    4.670086
     44          6           0      -28.706969   -4.003556    6.064325
     45          1           0      -26.828966    3.211324    2.165505
     46          1           0      -30.225117    3.527433   -3.379806
     47          1           0      -30.891751   -2.911036   -3.242120
     48          1           0      -28.016577   -0.848584    4.353122
     49          1           0      -26.090854    1.152584    3.298267
     50          1           0      -26.995407    2.777945    4.743529
     51          1           0      -27.898443    1.336057    5.452457
     52          1           0      -28.536450    2.352139    4.165288
     53          1           0      -25.357494   -1.113995    2.908836
     54          1           0      -26.136641   -2.448872    3.751787
     55          1           0      -25.713874   -0.045153    5.497471
     56          1           0      -24.246456   -0.842359    4.960527
     57          1           0      -27.928006    6.153036    1.097728
     58          1           0      -26.473155    5.983071   -0.070219
     59          1           0      -26.541842    5.073176    1.389454
     60          1           0      -28.550183    7.921789   -2.427385
     61          1           0      -27.212069    6.956747   -1.909807
     62          1           0      -28.439184    7.439675   -0.706490
     63          1           0      -31.161888    1.820507   -4.995713
     64          1           0      -32.062008   -0.820703   -4.482286
     65          1           0      -33.211948    0.820897   -2.959595
     66          1           0      -33.484038    1.652080   -4.522568
     67          1           0      -32.767237    2.546922   -3.175094
     68          1           0      -29.569223   -1.461329   -5.299920
     69          1           0      -29.356188    0.180731   -5.458409
     70          1           0      -30.174991    0.135024   -7.441895
     71          1           0      -31.713694   -0.257089   -6.759202
     72          1           0      -30.676886   -1.627864   -7.312006
     73          1           0      -29.640348   -5.641770   -2.165912
     74          1           0      -31.306188   -4.968378   -2.376187
     75          1           0      -30.851105   -5.793752   -0.935250
     76          1           0      -27.208789   -3.778674    2.506014
     77          1           0      -29.239628   -3.066735    6.229324
     78          1           0      -27.949922   -4.071503    6.846021
     79          1           0      -29.385985   -4.855822    6.098444
     80         12           0       29.394796   -0.562353    0.191193
     81          6           0       27.089222    2.100456    0.410641
     82          6           0       26.812711   -2.631074   -0.913757
     83          6           0       31.773643   -2.716464   -0.955660
     84          6           0       31.947311    1.867052    0.833468
     85          7           0       27.247187   -0.284387   -0.156700
     86          6           0       26.546073    0.862511   -0.032671
     87          6           0       25.074500    0.677669   -0.527130
     88          6           0       24.985260   -0.917165   -0.562462
     89          6           0       26.482053   -1.364190   -0.508852
     90          6           0       24.248863   -1.694726    0.551913
     91          6           0       24.918806    1.369988   -1.933787
     92          6           0       23.535175    2.040009   -2.160304
     93          1           0       22.918745    1.862129   -3.607380
     94          7           0       29.316915   -2.559095   -0.638226
     95          6           0       28.146577   -3.198200   -0.951057
     96          6           0       28.499999   -4.488461   -1.407696
     97          6           0       29.920229   -4.569408   -1.515038
     98          6           0       30.433925   -3.264974   -0.977914
     99          6           0       27.518242   -5.563747   -1.809400
    100          6           0       30.707536   -5.651438   -2.171999
    101          8           0       30.168937   -6.577153   -2.757413
    102          6           0       32.144548   -5.692367   -2.250394
    103          7           0       31.583248   -0.357490   -0.119527
    104          6           0       32.323007   -1.500005   -0.458713
    105          6           0       33.789448   -1.241732   -0.306592
    106          6           0       33.882641    0.244026    0.203089
    107          6           0       32.418992    0.632980    0.320026
    108          6           0       34.381871   -2.279558    0.655289
    109          6           0       34.877920    1.138400   -0.627907
    110          6           0       35.987527    1.801390    0.130519
    111          7           0       29.548666    1.583918    0.596926
    112          6           0       30.642142    2.364496    0.881442
    113          6           0       30.215372    3.718188    1.298717
    114          6           0       28.820452    3.628438    1.047713
    115          6           0       28.478372    2.329449    0.721636
    116          6           0       31.058722    4.926967    1.672871
    117          6           0       27.631314    4.433013    0.954006
    118          8           0       27.481558    5.654262    1.115196
    119          6           0       26.454786    3.536045    0.570084
    120          6           0       25.363239    3.633822    1.557035
    121          8           0       24.276310    3.981586    1.266811
    122          8           0       25.676181    3.101330    2.774205
    123          6           0       24.470317    2.992611    3.623665
    124          1           0       26.016954   -3.327347   -1.188258
    125          1           0       32.482912   -3.490438   -1.253102
    126          1           0       32.574882    2.742931    1.013967
    127          1           0       24.411525    1.134271    0.207978
    128          1           0       24.778929   -1.349863   -1.541254
    129          1           0       24.243943   -1.117829    1.477421
    130          1           0       24.617016   -2.697712    0.767983
    131          1           0       23.214058   -1.771832    0.219950
    132          1           0       25.140880    0.667551   -2.737637
    133          1           0       25.699867    2.130164   -1.950227
    134          1           0       23.731505    3.093039   -1.957838
    135          1           0       22.937667    1.633165   -1.344184
    136          1           0       27.887913   -6.588979   -1.786868
    137          1           0       27.239543   -5.283312   -2.824808
    138          1           0       26.521839   -5.503045   -1.371639
    139          1           0       32.513681   -5.729883   -1.224687
    140          1           0       32.533391   -4.841596   -2.810675
    141          1           0       32.434601   -6.597683   -2.783741
    142          1           0       34.276820   -1.213242   -1.280853
    143          1           0       34.088661    0.403024    1.261796
    144          1           0       33.722639   -3.129982    0.831024
    145          1           0       34.575657   -1.853345    1.639611
    146          1           0       35.207472   -2.796778    0.167349
    147          1           0       34.240321    1.884355   -1.102392
    148          1           0       35.471228    0.582914   -1.353295
    149          1           0       35.927249    2.868329   -0.082515
    150          1           0       36.968109    1.473281   -0.214806
    151          1           0       35.998477    1.543249    1.189499
    152          1           0       31.418121    5.475489    0.801969
    153          1           0       31.879657    4.686262    2.349488
    154          1           0       30.303661    5.569484    2.125642
    155          1           0       25.985081    3.916629   -0.335996
    156          1           0       24.776306    2.563250    4.578023
    157          1           0       23.715818    2.369259    3.144007
    158          1           0       24.049702    3.949398    3.931158
 ---------------------------------------------------------------------

 SCF Done:  E(RCAM-B3LYP) =  -4069.80894738     A.U. after   19 cycles

 Excitation energies and oscillator strengths:

 Excited State   1:      Singlet-A      1.6534 eV  749.86 nm  f=0.3852  <S**2>=0.000
     309 -> 316       -0.16012
     312 -> 314        0.69078
     309 <- 316       -0.10388
 This state for optimization and/or second-order correction.
 Total Energy, E(TD-HF/TD-DFT) =  -4069.74818530
 Copying the excited state density for this state as the 1-particle RhoCI density.

 Excited State   2:      Singlet-A      1.6804 eV  737.81 nm  f=0.4130  <S**2>=0.000
     310 -> 315        0.17287
     311 -> 313        0.68700
     310 <- 315        0.10657

 Excited State   3:      Singlet-A      2.2017 eV  563.13 nm  f=0.1138  <S**2>=0.000
     310 -> 313        0.64204
     311 -> 315       -0.28115

 Excited State   4:      Singlet-A      2.2510 eV  550.79 nm  f=0.1080  <S**2>=0.000
     309 -> 314        0.63838
     312 -> 316        0.28837

 Excited State   5:      Singlet-A      3.0262 eV  409.70 nm  f=0.0000  <S**2>=0.000
     312 -> 313        0.70711

 The electronic state is 1-A.
 Alpha  occ. eigenvalues --  -46.90867 -46.87510 -19.25145 -19.24924 -19.19949
 Alpha  occ. eigenvalues --  -19.19383 -19.18875 -19.18747 -19.18560 -19.17350
 Alpha  occ. eigenvalues --  -14.43005 -14.42732 -14.42728 -14.41748 -14.39936
 Alpha  occ. eigenvalues --  -14.39330 -14.38873 -14.38858 -10.38762 -10.38536
 Alpha  occ. eigenvalues --  -10.35221 -10.34948 -10.34803 -10.33534 -10.32299
 Alpha  occ. eigenvalues --  -10.32274 -10.32062 -10.32014 -10.31890 -10.31854
 Alpha  occ. eigenvalues --  -10.31365 -10.31093 -10.31019 -10.30572 -10.30213
 Alpha  occ. eigenvalues --  -10.30018 -10.29888 -10.29569 -10.29479 -10.29338
 Alpha  occ. eigenvalues --  -10.29275 -10.29113 -10.29064 -10.29000 -10.28988
 Alpha  occ. eigenvalues --  -10.28939 -10.28804 -10.28609 -10.28536 -10.28490
 Alpha  occ. eigenvalues --  -10.28488 -10.28453 -10.28200 -10.28180 -10.28104
 Alpha  occ. eigenvalues --  -10.28065 -10.27795 -10.27778 -10.27765 -10.27570
 Alpha  occ. eigenvalues --  -10.27509 -10.27463 -10.27376 -10.27376 -10.27125
 Alpha  occ. eigenvalues --  -10.27070 -10.26996 -10.26840 -10.26772 -10.26690
 Alpha  occ. eigenvalues --  -10.26678 -10.26545 -10.26539 -10.26423 -10.26359
 Alpha  occ. eigenvalues --  -10.26173 -10.25840 -10.25777 -10.25745 -10.25584
 Alpha  occ. eigenvalues --  -10.25534 -10.25480 -10.25318 -10.25289 -10.25107
 Alpha  occ. eigenvalues --  -10.25024  -3.19014  -3.16290  -1.93928  -1.93450
 Alpha  occ. eigenvalues --   -1.93310  -1.91192  -1.90761  -1.90589  -1.18005
 Alpha  occ. eigenvalues --   -1.16919  -1.10447  -1.09581  -1.09073  -1.08986
 Alpha  occ. eigenvalues --   -1.08286  -1.07149  -1.05448  -1.05145  -1.03930
 Alpha  occ. eigenvalues --   -1.03781  -1.03466  -1.03108  -1.02566  -1.01969
 Alpha  occ. eigenvalues --   -0.93342  -0.92660  -0.89453  -0.89091  -0.89051
 Alpha  occ. eigenvalues --   -0.88788  -0.88670  -0.88267  -0.88093  -0.87914
 Alpha  occ. eigenvalues --   -0.87180  -0.87046  -0.86577  -0.85854  -0.84913
 Alpha  occ. eigenvalues --   -0.84686  -0.84336  -0.83977  -0.82744  -0.82545
 Alpha  occ. eigenvalues --   -0.82537  -0.81590  -0.81222  -0.80959  -0.80644
 Alpha  occ. eigenvalues --   -0.80584  -0.78690  -0.78395  -0.77645  -0.77564
 Alpha  occ. eigenvalues --   -0.77225  -0.76900  -0.76529  -0.76220  -0.75463
 Alpha  occ. eigenvalues --   -0.75211  -0.73228  -0.73177  -0.72550  -0.71818
 Alpha  occ. eigenvalues --   -0.69454  -0.69405  -0.69296  -0.68965  -0.68325
 Alpha  occ. eigenvalues --   -0.67991  -0.66931  -0.66382  -0.66090  -0.65808
 Alpha  occ. eigenvalues --   -0.65745  -0.65028  -0.64962  -0.64682  -0.64631
 Alpha  occ. eigenvalues --   -0.64194  -0.63341  -0.62092  -0.60260  -0.60111
 Alpha  occ. eigenvalues --   -0.60055  -0.60001  -0.59125  -0.59025  -0.58920
 Alpha  occ. eigenvalues --   -0.58889  -0.58342  -0.58335  -0.58027  -0.57111
 Alpha  occ. eigenvalues --   -0.56559  -0.56542  -0.56113  -0.56091  -0.55588
 Alpha  occ. eigenvalues --   -0.55167  -0.55032  -0.54765  -0.54586  -0.54256
 Alpha  occ. eigenvalues --   -0.53539  -0.53473  -0.53414  -0.53359  -0.53227
 Alpha  occ. eigenvalues --   -0.52945  -0.52857  -0.52723  -0.52687  -0.52298
 Alpha  occ. eigenvalues --   -0.52295  -0.51790  -0.51772  -0.51678  -0.51503
 Alpha  occ. eigenvalues --   -0.51364  -0.51336  -0.50921  -0.50380  -0.50259
 Alpha  occ. eigenvalues --   -0.50078  -0.49993  -0.49911  -0.49888  -0.49741
 Alpha  occ. eigenvalues --   -0.49597  -0.49300  -0.49283  -0.49071  -0.48953
 Alpha  occ. eigenvalues --   -0.48770  -0.48652  -0.48430  -0.48269  -0.48237
 Alpha  occ. eigenvalues --   -0.48091  -0.47750  -0.47560  -0.47509  -0.47361
 Alpha  occ. eigenvalues --   -0.47130  -0.46993  -0.46935  -0.46826  -0.46713
 Alpha  occ. eigenvalues --   -0.46528  -0.46464  -0.46388  -0.46363  -0.46041
 Alpha  occ. eigenvalues --   -0.45863  -0.45789  -0.45507  -0.45282  -0.45168
 Alpha  occ. eigenvalues --   -0.45120  -0.44887  -0.44714  -0.44704  -0.44383
 Alpha  occ. eigenvalues --   -0.44235  -0.44046  -0.43760  -0.43722  -0.43626
 Alpha  occ. eigenvalues --   -0.43564  -0.43361  -0.43344  -0.43034  -0.42911
 Alpha  occ. eigenvalues --   -0.42855  -0.42678  -0.42329  -0.42013  -0.41816
 Alpha  occ. eigenvalues --   -0.41814  -0.41635  -0.41561  -0.41309  -0.41132
 Alpha  occ. eigenvalues --   -0.41057  -0.40887  -0.40823  -0.40648  -0.40420
 Alpha  occ. eigenvalues --   -0.40164  -0.40052  -0.39830  -0.39665  -0.39267
 Alpha  occ. eigenvalues --   -0.38706  -0.38447  -0.38070  -0.37931  -0.37670
 Alpha  occ. eigenvalues --   -0.37486  -0.37267  -0.36942  -0.36920  -0.36672
 Alpha  occ. eigenvalues --   -0.36575  -0.36433  -0.34954  -0.34225  -0.34165
 Alpha  occ. eigenvalues --   -0.34017  -0.33523  -0.33286  -0.31524  -0.31469
 Alpha  occ. eigenvalues --   -0.31253  -0.31005  -0.30658  -0.30484  -0.30422
 Alpha  occ. eigenvalues --   -0.30037  -0.29229  -0.29104  -0.24615  -0.24540
 Alpha  occ. eigenvalues --   -0.21605  -0.21123
 Alpha virt. eigenvalues --   -0.09414  -0.09078  -0.02283  -0.01553   0.00255
 Alpha virt. eigenvalues --    0.00400   0.01184   0.02351   0.02399   0.03407
 Alpha virt. eigenvalues --    0.04650   0.04658   0.05356   0.05414   0.06056

 Mulliken charges:
               1
     1  Mg   0.828543
     2  C    0.007469
     3  C   -0.059518
     4  C   -0.069230
     5  C   -0.093588
     6  N   -0.267915
     7  C   -0.051209
     8  C    0.020226
     9  C   -0.103970
    10  C    0.038339
    11  C    0.063727
    12  C    0.034986
    13  C   -0.056574
    14  H    0.031803
    15  N   -0.358590
    16  C    0.139209
    17  C   -0.203009
    18  C   -0.035954
    19  C    0.110421
    20  C    0.139558
    21  C    0.019217
    22  O   -0.225614
    23  C    0.056036
    24  N   -0.391533
    25  C    0.083623
    26  C   -0.019355
    27  C   -0.020638
    28  C    0.118479
    29  C    0.088226
    30  C   -0.004940
    31  C    0.053338
    32  N   -0.339589
    33  C    0.089632
    34  C   -0.168132
    35  C    0.069278
    36  C    0.103917
    37  C    0.107992
    38  C    0.017664
    39  O   -0.153788
    40  C   -0.052441
    41  C    0.180658
    42  O   -0.217051
    43  O   -0.331559
    44  C    0.179193
    45  H   -0.027502
    46  H   -0.006590
    47  H   -0.026950
    48  H    0.017578
    49  H    0.009463
    50  H    0.020289
    51  H    0.021742
    52  H    0.015392
    53  H    0.010970
    54  H    0.033006
    55  H    0.030014
    56  H    0.029331
    57  H    0.042919
    58  H    0.027711
    59  H    0.001100
    60  H    0.024415
    61  H    0.024861
    62  H    0.039979
    63  H    0.000240
    64  H   -0.003825
    65  H    0.020446
    66  H    0.019237
    67  H    0.019157
    68  H   -0.002522
    69  H   -0.003869
    70  H    0.012712
    71  H   -0.002488
    72  H    0.028755
    73  H    0.038341
    74  H    0.023665
    75  H    0.027413
    76  H    0.043193
    77  H    0.041482
    78  H    0.041637
    79  H    0.051360
    80  Mg   0.801231
    81  C    0.004415
    82  C   -0.071546
    83  C   -0.019791
    84  C   -0.048237
    85  N   -0.286880
    86  C   -0.055423
    87  C   -0.042448
    88  C   -0.052359
    89  C    0.058045
    90  C    0.080553
    91  C    0.048735
    92  C   -0.050660
    93  H    0.026219
    94  N   -0.365271
    95  C    0.114127
    96  C   -0.149647
    97  C   -0.022427
    98  C    0.090982
    99  C    0.140521
   100  C   -0.050240
   101  O   -0.214549
   102  C    0.079027
   103  N   -0.287401
   104  C    0.025745
   105  C   -0.009786
   106  C   -0.012925
   107  C    0.028439
   108  C    0.074427
   109  C    0.039538
   110  C   -0.004095
   111  N   -0.281383
   112  C    0.026152
   113  C   -0.155013
   114  C    0.014930
   115  C    0.076305
   116  C    0.107439
   117  C    0.020277
   118  O   -0.190073
   119  C    0.052730
   120  C    0.149214
   121  O   -0.180142
   122  O   -0.336481
   123  C    0.181934
   124  H   -0.017982
   125  H   -0.053325
   126  H   -0.027240
   127  H    0.012512
   128  H    0.009877
   129  H    0.010231
   130  H    0.025068
   131  H    0.017203
   132  H    0.017877
   133  H    0.012960
   134  H    0.042887
   135  H    0.031771
   136  H    0.047187
   137  H    0.015834
   138  H   -0.004964
   139  H    0.029978
   140  H    0.043492
   141  H    0.024779
   142  H    0.021297
   143  H    0.015158
   144  H    0.014941
   145  H    0.018914
   146  H    0.014617
   147  H    0.016982
   148  H    0.015953
   149  H    0.020666
   150  H    0.008653
   151  H    0.012715
   152  H    0.041385
   153  H    0.029848
   154  H    0.041874
   155  H    0.031435
   156  H    0.027484
   157  H    0.035958
   158  H    0.039769
 Sum of Mulliken charges =  -0.00000

 Dipole moment (field-independent basis, Debye):
    X=              7.0258    Y=              0.3150    Z=              3.5565  Tot=              7.8810
 Quadrupole moment (field-independent basis, Debye-Ang):
   XX=           -440.8450   YY=           -589.0513   ZZ=           -488.9175
   XY=            -74.9482   XZ=             54.7912   YZ=              8.4968

 Normal termination of Gaussian 16 at Thu Sep  2 08:35:30 2021.
