 Gaussian 16, Revision A.03,
 Gaussian 16:  ES64L-G16RevA.03 25-Dec-2016

 -----------------------------------
 #p cam-b3lyp/Def2SVP td=(nstates=5)
 -----------------------------------

 --------------------------------
 TDDFT excited states in gaussian
 --------------------------------
 Symbolic Z-matrix:
 Charge =  0 Multiplicity = 1

                         Standard orientation:
 ---------------------------------------------------------------------
 Center     Atomic      Atomic             Coordinates (Angstroms)
 Number     Number       Type             X           Y           Z
 ---------------------------------------------------------------------
      1         12           0       27.252417   -0.733667    0.088897
      2          6           0       24.995168    2.041102    1.098352
      3          6           0       28.919975    1.675581   -1.595944
      4          6           0       28.935960   -3.214651   -0.939705
      5          6           0       24.723055   -2.917233    1.317020
      6          7           0       26.930596    1.555207   -0.230432
      7          6           0       26.086281    2.443035    0.414598
      8          6           0       26.441794    3.920961    0.216185
      9          6           0       27.402622    3.769541   -1.003334
     10          6           0       27.798748    2.242577   -0.981498
     11          6           0       26.824580    4.169804   -2.324153
     12          6           0       27.020248    4.690034    1.451023
     13          6           0       26.743853    6.152354    1.560334
     14          1           0       27.884904    6.991285    2.126911
     15          7           0       28.802741   -0.784134   -1.101746
     16          6           0       29.425528    0.338274   -1.686688
     17          6           0       30.639469   -0.110689   -2.305271
     18          6           0       30.702327   -1.530689   -1.961300
     19          6           0       29.479060   -1.857676   -1.322139
     20          6           0       31.699268    0.821674   -3.000520
     21          6           0       31.855294   -2.440813   -2.255682
     22          8           0       31.821008   -3.666928   -1.989465
     23          6           0       33.139359   -1.967128   -2.832220
     24          7           0       26.860103   -2.765730    0.006223
     25          6           0       27.751865   -3.638911   -0.466284
     26          6           0       27.316583   -5.132142   -0.318444
     27          6           0       26.216139   -4.949923    0.792314
     28          6           0       25.861136   -3.441766    0.682932
     29          6           0       26.712410   -5.705655   -1.640510
     30          6           0       26.765636   -5.275360    2.244503
     31          6           0       27.448712   -6.633417    2.509989
     32          7           0       25.289829   -0.523623    1.055619
     33          6           0       24.448453   -1.519530    1.538306
     34          6           0       23.259592   -0.920558    2.098271
     35          6           0       23.449946    0.462248    1.981588
     36          6           0       24.658809    0.672881    1.263074
     37          6           0       22.146079   -1.625142    2.797544
     38          6           0       22.850132    1.755231    2.283780
     39          8           0       21.839407    2.104914    2.878854
     40          6           0       23.952966    2.815678    1.763582
     41          6           0       23.226352    3.756240    0.928065
     42          8           0       22.627519    3.505216   -0.129605
     43          8           0       22.930730    4.847963    1.693091
     44          6           0       22.157454    5.908400    1.130971
     45          1           0       29.489476    2.519727   -1.990780
     46          1           0       29.486286   -4.097306   -1.271583
     47          1           0       23.991275   -3.637126    1.690483
     48          1           0       25.533336    4.426712   -0.111648
     49          1           0       28.347941    4.275900   -0.810464
     50          1           0       26.630130    3.250609   -2.876793
     51          1           0       27.567056    4.726038   -2.896190
     52          1           0       25.900458    4.747343   -2.311413
     53          1           0       28.105095    4.606671    1.392326
     54          1           0       26.704256    4.151280    2.343925
     55          1           0       25.895356    6.199107    2.242658
     56          1           0       26.284591    6.560715    0.659996
     57          1           0       32.618207    0.988810   -2.439410
     58          1           0       31.256832    1.771151   -3.300734
     59          1           0       31.901520    0.264235   -3.915943
     60          1           0       32.985955   -1.774908   -3.894423
     61          1           0       33.844173   -2.786674   -2.689306
     62          1           0       33.446649   -1.108139   -2.236648
     63          1           0       28.214730   -5.674431   -0.020970
     64          1           0       25.296379   -5.514689    0.643106
     65          1           0       27.415306   -6.458799   -1.997491
     66          1           0       26.474304   -4.974284   -2.412165
     67          1           0       25.808484   -6.192210   -1.271323
     68          1           0       25.925346   -5.271510    2.938355
     69          1           0       27.390368   -4.427733    2.525619
     70          1           0       28.447475   -6.374176    2.860904
     71          1           0       27.515221   -7.093070    1.523470
     72          1           0       26.930705   -7.223096    3.266178
     73          1           0       22.536179   -2.626437    2.981549
     74          1           0       21.318205   -1.654538    2.089179
     75          1           0       21.789688   -1.116141    3.693074
     76          1           0       24.403024    3.321369    2.617685
     77          1           0       21.909909    5.718979    0.086257
     78          1           0       22.809652    6.781148    1.165702
     79          1           0       21.303211    6.152318    1.760929
     80         12           0      -26.932674   -0.678180    0.052237
     81          6           0      -25.537230    2.320451   -1.112113
     82          6           0      -27.566730    0.896348    3.047741
     83          6           0      -28.212653   -3.520572    1.135818
     84          6           0      -26.064444   -2.158515   -3.013293
     85          7           0      -26.645345    1.393999    0.780897
     86          6           0      -26.034123    2.487066    0.166385
     87          6           0      -26.290915    3.850955    0.919728
     88          6           0      -26.779532    3.295205    2.243398
     89          6           0      -27.030288    1.745663    2.027098
     90          6           0      -25.651368    3.433552    3.365611
     91          6           0      -27.492048    4.517050    0.112499
     92          6           0      -27.406926    6.084637   -0.151175
     93          1           0      -26.712669    6.756695    1.005722
     94          7           0      -27.614974   -1.246266    1.846030
     95          6           0      -27.797476   -0.505661    2.935664
     96          6           0      -28.394608   -1.246149    4.015380
     97          6           0      -28.764964   -2.481767    3.448577
     98          6           0      -28.134834   -2.490098    2.074817
     99          6           0      -28.636413   -0.745474    5.392173
    100          6           0      -29.669473   -3.575040    3.978941
    101          8           0      -30.106860   -4.487795    3.269031
    102          6           0      -29.989989   -3.641864    5.474734
    103          7           0      -27.059743   -2.602863   -0.831845
    104          6           0      -27.729638   -3.578034   -0.131321
    105          6           0      -27.910398   -4.789434   -1.043575
    106          6           0      -27.316083   -4.318812   -2.459419
    107          6           0      -26.827753   -2.930085   -2.141127
    108          6           0      -27.278639   -6.060107   -0.372834
    109          6           0      -28.247901   -4.399522   -3.658424
    110          6           0      -27.645664   -5.175446   -4.871447
    111          7           0      -25.976186   -0.062126   -1.690026
    112          6           0      -25.667170   -0.797356   -2.877283
    113          6           0      -24.968679    0.024820   -3.799575
    114          6           0      -24.907738    1.258093   -3.129086
    115          6           0      -25.486263    1.117877   -1.850536
    116          6           0      -24.453703   -0.266844   -5.172225
    117          6           0      -24.472041    2.614485   -3.225690
    118          8           0      -23.872938    3.225877   -4.078931
    119          6           0      -24.971254    3.363147   -1.957594
    120          6           0      -23.848319    4.154764   -1.392515
    121          8           0      -22.847356    3.733208   -0.819980
    122          8           0      -24.155075    5.443146   -1.572428
    123          6           0      -23.237969    6.418885   -1.021787
    124          1           0      -27.945885    1.302307    3.987758
    125          1           0      -28.639954   -4.433422    1.558362
    126          1           0      -25.831807   -2.559371   -4.002121
    127          1           0      -25.370357    4.419196    0.790035
    128          1           0      -27.713380    3.776489    2.531974
    129          1           0      -24.731705    3.873083    2.978930
    130          1           0      -25.433325    2.439241    3.754883
    131          1           0      -26.117437    4.053518    4.131539
    132          1           0      -28.460357    4.385245    0.594402
    133          1           0      -27.559975    3.972860   -0.829854
    134          1           0      -28.395955    6.538199   -0.085304
    135          1           0      -27.114187    6.302443   -1.178616
    136          1           0      -29.718175   -0.662424    5.505536
    137          1           0      -28.211799    0.247159    5.535506
    138          1           0      -28.245167   -1.403974    6.167107
    139          1           0      -30.308449   -4.681720    5.544416
    140          1           0      -30.748301   -2.927749    5.797997
    141          1           0      -29.151719   -3.584780    6.168842
    142          1           0      -28.940927   -5.095798   -1.222935
    143          1           0      -26.438443   -4.926541   -2.680058
    144          1           0      -28.016583   -6.853065   -0.494830
    145          1           0      -26.989858   -5.914637    0.668148
    146          1           0      -26.483397   -6.478887   -0.990659
    147          1           0      -28.597041   -3.433099   -4.020698
    148          1           0      -29.046952   -5.062444   -3.323532
    149          1           0      -26.692800   -5.631698   -4.602655
    150          1           0      -27.333653   -4.499114   -5.667007
    151          1           0      -28.325260   -5.952503   -5.221960
    152          1           0      -25.379517   -0.270162   -5.748179
    153          1           0      -23.903501   -1.205051   -5.103928
    154          1           0      -23.836463    0.539160   -5.566554
    155          1           0      -25.670985    4.094756   -2.363801
    156          1           0      -22.227903    6.226471   -1.384591
    157          1           0      -23.111223    6.417850    0.061345
    158          1           0      -23.583846    7.390455   -1.375125
 ---------------------------------------------------------------------

 SCF Done:  E(RCAM-B3LYP) =  -4069.83260593     A.U. after   19 cycles

 Excitation energies and oscillator strengths:

 Excited State   1:      Singlet-A      1.6590 eV  747.35 nm  f=0.3892  <S**2>=0.000
     309 -> 316       -0.15615
     311 -> 313        0.69165
     309 <- 316       -0.10434
 This state for optimization and/or second-order correction.
 Total Energy, E(TD-HF/TD-DFT) =  -4069.77163954
 Copying the excited state density for this state as the 1-particle RhoCI density.

 Excited State   2:      Singlet-A      1.7258 eV  718.41 nm  f=0.3827  <S**2>=0.000
     310 -> 315       -0.16128
     312 -> 314        0.68778

 Excited State   3:      Singlet-A      2.1782 eV  569.22 nm  f=0.2156  <S**2>=0.000
     309 -> 313        0.66760
     311 -> 316        0.21707

 Excited State   4:      Singlet-A      2.2841 eV  542.81 nm  f=0.1221  <S**2>=0.000
     310 -> 314        0.63702
     312 -> 315        0.28302

 Excited State   5:      Singlet-A      2.9237 eV  424.07 nm  f=0.0000  <S**2>=0.000
     312 -> 313        0.70711

 The electronic state is 1-A.
 Alpha  occ. eigenvalues --  -46.88888 -46.87750 -19.25240 -19.24799 -19.19902
 Alpha  occ. eigenvalues --  -19.19882 -19.19407 -19.18773 -19.17427 -19.17386
 Alpha  occ. eigenvalues --  -14.42299 -14.42222 -14.41601 -14.41422 -14.40203
 Alpha  occ. eigenvalues --  -14.39697 -14.39562 -14.38450 -10.39132 -10.38293
 Alpha  occ. eigenvalues --  -10.36218 -10.35968 -10.33984 -10.33135 -10.31886
 Alpha  occ. eigenvalues --  -10.31399 -10.31346 -10.31110 -10.30995 -10.30794
 Alpha  occ. eigenvalues --  -10.30724 -10.30690 -10.30662 -10.30609 -10.30442
 Alpha  occ. eigenvalues --  -10.30430 -10.30355 -10.30097 -10.29843 -10.29064
 Alpha  occ. eigenvalues --  -10.29049 -10.29047 -10.28989 -10.28948 -10.28894
 Alpha  occ. eigenvalues --  -10.28421 -10.28320 -10.28301 -10.28112 -10.28106
 Alpha  occ. eigenvalues --  -10.28102 -10.28006 -10.27992 -10.27960 -10.27915
 Alpha  occ. eigenvalues --  -10.27810 -10.27760 -10.27532 -10.27509 -10.27506
 Alpha  occ. eigenvalues --  -10.27414 -10.27376 -10.27126 -10.27077 -10.27057
 Alpha  occ. eigenvalues --  -10.27042 -10.26706 -10.26677 -10.26614 -10.26515
 Alpha  occ. eigenvalues --  -10.26381 -10.26207 -10.26183 -10.26143 -10.26012
 Alpha  occ. eigenvalues --  -10.25934 -10.25869 -10.25780 -10.25722 -10.25691
 Alpha  occ. eigenvalues --  -10.25612 -10.25588 -10.25532 -10.25528 -10.25406
 Alpha  occ. eigenvalues --  -10.23564  -3.17550  -3.16459  -1.92419  -1.92002
 Alpha  occ. eigenvalues --   -1.91872  -1.91369  -1.90895  -1.90790  -1.17080
 Alpha  occ. eigenvalues --   -1.16526  -1.10338  -1.10216  -1.09350  -1.07459
 Alpha  occ. eigenvalues --   -1.07064  -1.07008  -1.04966  -1.04905  -1.04026
 Alpha  occ. eigenvalues --   -1.03895  -1.03653  -1.02903  -1.02525  -1.02325
 Alpha  occ. eigenvalues --   -0.93695  -0.92632  -0.89625  -0.89545  -0.88789
 Alpha  occ. eigenvalues --   -0.88464  -0.88403  -0.88039  -0.87958  -0.87454
 Alpha  occ. eigenvalues --   -0.87014  -0.86830  -0.86617  -0.86233  -0.84735
 Alpha  occ. eigenvalues --   -0.84032  -0.83936  -0.83508  -0.83138  -0.82335
 Alpha  occ. eigenvalues --   -0.82066  -0.81825  -0.81253  -0.81057  -0.80845
 Alpha  occ. eigenvalues --   -0.80360  -0.78888  -0.78559  -0.77480  -0.77406
 Alpha  occ. eigenvalues --   -0.77279  -0.76746  -0.76218  -0.75582  -0.75437
 Alpha  occ. eigenvalues --   -0.74960  -0.73350  -0.73084  -0.71386  -0.70937
 Alpha  occ. eigenvalues --   -0.69284  -0.69168  -0.68853  -0.68638  -0.68166
 Alpha  occ. eigenvalues --   -0.67589  -0.67371  -0.66935  -0.65693  -0.65395
 Alpha  occ. eigenvalues --   -0.65225  -0.65128  -0.64996  -0.64895  -0.64486
 Alpha  occ. eigenvalues --   -0.64472  -0.62455  -0.62048  -0.60770  -0.60744
 Alpha  occ. eigenvalues --   -0.59773  -0.59575  -0.59516  -0.59121  -0.58854
 Alpha  occ. eigenvalues --   -0.58610  -0.58391  -0.57746  -0.57674  -0.57282
 Alpha  occ. eigenvalues --   -0.56623  -0.55899  -0.55644  -0.55625  -0.55310
 Alpha  occ. eigenvalues --   -0.54878  -0.54618  -0.54441  -0.54191  -0.53806
 Alpha  occ. eigenvalues --   -0.53692  -0.53519  -0.53225  -0.53146  -0.52868
 Alpha  occ. eigenvalues --   -0.52576  -0.52554  -0.52523  -0.52408  -0.52137
 Alpha  occ. eigenvalues --   -0.51753  -0.51752  -0.51414  -0.51296  -0.51219
 Alpha  occ. eigenvalues --   -0.51016  -0.51014  -0.50716  -0.50394  -0.50294
 Alpha  occ. eigenvalues --   -0.50281  -0.49963  -0.49899  -0.49840  -0.49712
 Alpha  occ. eigenvalues --   -0.49619  -0.49489  -0.49242  -0.49203  -0.48727
 Alpha  occ. eigenvalues --   -0.48615  -0.48503  -0.48398  -0.48323  -0.48145
 Alpha  occ. eigenvalues --   -0.47879  -0.47853  -0.47657  -0.47565  -0.47521
 Alpha  occ. eigenvalues --   -0.47256  -0.47159  -0.46722  -0.46543  -0.46521
 Alpha  occ. eigenvalues --   -0.46378  -0.46376  -0.46190  -0.46059  -0.45943
 Alpha  occ. eigenvalues --   -0.45389  -0.45255  -0.45110  -0.45044  -0.44971
 Alpha  occ. eigenvalues --   -0.44833  -0.44688  -0.44535  -0.44430  -0.44357
 Alpha  occ. eigenvalues --   -0.44271  -0.43944  -0.43699  -0.43675  -0.43642
 Alpha  occ. eigenvalues --   -0.43266  -0.43084  -0.43062  -0.42839  -0.42831
 Alpha  occ. eigenvalues --   -0.42677  -0.42594  -0.42327  -0.42106  -0.42005
 Alpha  occ. eigenvalues --   -0.41919  -0.41625  -0.41554  -0.41332  -0.41097
 Alpha  occ. eigenvalues --   -0.40796  -0.40678  -0.40628  -0.40359  -0.40045
 Alpha  occ. eigenvalues --   -0.39807  -0.39715  -0.39481  -0.39261  -0.38792
 Alpha  occ. eigenvalues --   -0.38572  -0.38257  -0.38235  -0.37757  -0.37609
 Alpha  occ. eigenvalues --   -0.37397  -0.37176  -0.36891  -0.36448  -0.36396
 Alpha  occ. eigenvalues --   -0.36290  -0.35815  -0.34607  -0.34304  -0.34220
 Alpha  occ. eigenvalues --   -0.33825  -0.33128  -0.32789  -0.32247  -0.31560
 Alpha  occ. eigenvalues --   -0.31389  -0.31372  -0.30880  -0.30125  -0.29884
 Alpha  occ. eigenvalues --   -0.29801  -0.29665  -0.29246  -0.24263  -0.24103
 Alpha  occ. eigenvalues --   -0.21721  -0.21038
 Alpha virt. eigenvalues --   -0.09650  -0.08564  -0.01679  -0.00769   0.00299
 Alpha virt. eigenvalues --    0.00540   0.01749   0.02262   0.02833   0.03432
 Alpha virt. eigenvalues --    0.03936   0.04983   0.05587   0.05902   0.05981

 Mulliken charges:
               1
     1  Mg   0.846866
     2  C    0.005399
     3  C   -0.055087
     4  C   -0.031317
     5  C   -0.072620
     6  N   -0.231491
     7  C   -0.075657
     8  C   -0.050063
     9  C   -0.049640
    10  C   -0.041733
    11  C    0.095464
    12  C    0.083151
    13  C   -0.058014
    14  H    0.037230
    15  N   -0.406880
    16  C    0.180156
    17  C   -0.159275
    18  C   -0.027504
    19  C    0.117528
    20  C    0.116962
    21  C   -0.040707
    22  O   -0.244791
    23  C    0.073566
    24  N   -0.320024
    25  C    0.020734
    26  C   -0.057388
    27  C   -0.052484
    28  C    0.068233
    29  C    0.098073
    30  C    0.007917
    31  C    0.024831
    32  N   -0.315192
    33  C    0.105931
    34  C   -0.190294
    35  C    0.005586
    36  C    0.086721
    37  C    0.131694
    38  C    0.079949
    39  O   -0.155706
    40  C    0.008052
    41  C    0.184172
    42  O   -0.240402
    43  O   -0.318931
    44  C    0.170252
    45  H   -0.033461
    46  H   -0.013448
    47  H   -0.020850
    48  H    0.010342
    49  H   -0.000326
    50  H    0.022617
    51  H    0.011698
    52  H    0.026552
    53  H    0.008144
    54  H    0.007382
    55  H    0.024557
    56  H    0.021034
    57  H    0.046319
    58  H    0.017069
    59  H    0.021990
    60  H    0.041819
    61  H    0.028555
    62  H    0.025067
    63  H    0.021970
    64  H   -0.000180
    65  H    0.023666
    66  H    0.038036
    67  H    0.007181
    68  H   -0.000294
    69  H    0.009445
    70  H    0.020156
    71  H    0.016602
    72  H    0.025519
    73  H    0.010487
    74  H    0.036175
    75  H    0.041390
    76  H    0.041951
    77  H    0.049489
    78  H    0.016019
    79  H    0.044062
    80  Mg   0.840673
    81  C    0.028132
    82  C   -0.106842
    83  C   -0.066782
    84  C   -0.071323
    85  N   -0.281529
    86  C   -0.102063
    87  C   -0.000408
    88  C   -0.045981
    89  C    0.075562
    90  C    0.067046
    91  C    0.037846
    92  C   -0.060905
    93  H    0.017408
    94  N   -0.375430
    95  C    0.135956
    96  C   -0.158177
    97  C   -0.029512
    98  C    0.112174
    99  C    0.127611
   100  C    0.018923
   101  O   -0.213675
   102  C    0.015274
   103  N   -0.316283
   104  C    0.098066
   105  C   -0.060693
   106  C   -0.001784
   107  C    0.049104
   108  C    0.056786
   109  C    0.053021
   110  C   -0.019149
   111  N   -0.321811
   112  C    0.076460
   113  C   -0.187189
   114  C    0.016441
   115  C    0.096317
   116  C    0.134229
   117  C    0.001244
   118  O   -0.166767
   119  C   -0.002539
   120  C    0.159884
   121  O   -0.226889
   122  O   -0.302944
   123  C    0.183664
   124  H   -0.025731
   125  H    0.002369
   126  H   -0.035538
   127  H    0.026795
   128  H    0.014452
   129  H    0.029598
   130  H    0.022758
   131  H    0.018142
   132  H    0.007136
   133  H    0.019931
   134  H    0.019452
   135  H    0.040680
   136  H    0.029950
   137  H    0.017941
   138  H    0.035625
   139  H    0.033390
   140  H    0.043090
   141  H    0.031314
   142  H    0.017401
   143  H    0.009767
   144  H    0.005316
   145  H    0.040360
   146  H    0.003596
   147  H    0.024236
   148  H    0.003359
   149  H    0.001206
   150  H    0.016277
   151  H    0.023390
   152  H    0.031475
   153  H    0.031577
   154  H    0.036713
   155  H    0.038101
   156  H    0.036761
   157  H    0.027819
   158  H    0.038145
 Sum of Mulliken charges =  -0.00000

 Dipole moment (field-independent basis, Debye):
    X=             -0.9911    Y=              1.4067    Z=              4.1646  Tot=              4.5061
 Quadrupole moment (field-independent basis, Debye-Ang):
   XX=           -186.5226   YY=           -474.1265   ZZ=           -497.4433
   XY=             56.5036   XZ=            -87.4716   YZ=              9.7991

 Normal termination of Gaussian 16 at Tue Sep 14 21:24:29 2021.
