 Gaussian 16, Revision A.03,
 Gaussian 16:  ES64L-G16RevA.03 25-Dec-2016

 ----------------------------------------------------------
 #p cam-b3lyp/Def2SVP td=(nstates=5) density=(transition=1)
 ----------------------------------------------------------

 --------------------------------
 TDDFT excited states in gaussian
 --------------------------------
 Symbolic Z-matrix:
 Charge =  0 Multiplicity = 1

                         Standard orientation:
 ---------------------------------------------------------------------
 Center     Atomic      Atomic             Coordinates (Angstroms)
 Number     Number       Type             X           Y           Z
 ---------------------------------------------------------------------
      1         12           0      -21.999845    0.225167   -0.112862
      2          6           0      -18.576246    0.511476    0.300088
      3          6           0      -21.495933   -0.754120   -3.391707
      4          6           0      -25.229044   -0.753119   -0.213207
      5          6           0      -22.265753    0.908551    3.336765
      6          7           0      -20.202307   -0.360210   -1.314724
      7          6           0      -18.974647    0.037126   -0.968613
      8          6           0      -17.948555   -0.379349   -2.067417
      9          6           0      -18.908490   -0.521197   -3.341328
     10          6           0      -20.334483   -0.474283   -2.670514
     11          6           0      -18.610028    0.526396   -4.440863
     12          6           0      -17.325966   -1.714742   -1.729004
     13          6           0      -15.836695   -1.834142   -2.012594
     14          1           0      -15.175112   -3.155906   -2.557000
     15          7           0      -23.223643   -0.487055   -1.710927
     16          6           0      -22.853290   -0.896300   -2.936536
     17          6           0      -24.034694   -1.290070   -3.633237
     18          6           0      -25.174626   -1.132728   -2.787849
     19          6           0      -24.594606   -0.738051   -1.498177
     20          6           0      -24.016270   -1.595615   -5.085346
     21          6           0      -26.556109   -1.534499   -3.165341
     22          8           0      -26.791487   -1.935993   -4.292870
     23          6           0      -27.722139   -1.394527   -2.194071
     24          7           0      -23.601966    0.182234    1.416146
     25          6           0      -24.810326   -0.344663    1.071903
     26          6           0      -25.652633   -0.569590    2.285383
     27          6           0      -24.671035   -0.031010    3.430704
     28          6           0      -23.429513    0.463913    2.731093
     29          6           0      -27.044956    0.087008    2.236238
     30          6           0      -24.345476   -1.053340    4.607901
     31          6           0      -24.530849   -0.635488    6.085621
     32          7           0      -20.746852    0.646371    1.478782
     33          6           0      -20.998097    0.966818    2.775871
     34          6           0      -19.865481    1.539570    3.356104
     35          6           0      -18.842502    1.423059    2.425318
     36          6           0      -19.407090    0.809985    1.335016
     37          6           0      -19.790032    2.055214    4.823143
     38          6           0      -17.506140    1.676860    2.151128
     39          8           0      -16.644815    2.097949    2.915299
     40          6           0      -17.165196    1.054350    0.712261
     41          6           0      -16.798785    2.053820   -0.225135
     42          8           0      -17.484386    2.871297   -0.843829
     43          8           0      -15.418354    1.955020   -0.369735
     44          6           0      -14.698608    2.843542   -1.266030
     45          1           0      -21.358514   -0.910999   -4.463388
     46          1           0      -26.280064   -1.025870   -0.093443
     47          1           0      -22.477483    1.188797    4.370836
     48          1           0      -17.186693    0.397676   -2.123356
     49          1           0      -18.915595   -1.517042   -3.783244
     50          1           0      -17.865318    1.252856   -4.116246
     51          1           0      -19.532803    1.038702   -4.714993
     52          1           0      -18.284066   -0.015514   -5.328361
     53          1           0      -17.789178   -2.608792   -2.146881
     54          1           0      -17.569858   -1.866342   -0.677527
     55          1           0      -15.324763   -1.503162   -1.109162
     56          1           0      -15.702559   -1.047020   -2.754565
     57          1           0      -24.348799   -0.657788   -5.529933
     58          1           0      -24.678029   -2.427225   -5.328178
     59          1           0      -23.026047   -1.860606   -5.456098
     60          1           0      -27.655064   -2.255961   -1.529418
     61          1           0      -28.618898   -1.575647   -2.786123
     62          1           0      -27.681681   -0.436328   -1.676238
     63          1           0      -25.718508   -1.656979    2.267985
     64          1           0      -25.128083    0.776434    4.002783
     65          1           0      -27.752085   -0.728064    2.078695
     66          1           0      -27.128020    0.850494    1.462055
     67          1           0      -27.273150    0.520938    3.209450
     68          1           0      -23.300720   -1.351088    4.520012
     69          1           0      -24.959459   -1.953395    4.569054
     70          1           0      -23.537216   -0.233448    6.283077
     71          1           0      -24.683920   -1.513776    6.711404
     72          1           0      -25.160337    0.217253    6.339596
     73          1           0      -19.758724    1.193820    5.489093
     74          1           0      -20.652288    2.619635    5.178698
     75          1           0      -18.887899    2.646677    4.981884
     76          1           0      -16.398399    0.300645    0.891954
     77          1           0      -13.706567    2.988554   -0.839440
     78          1           0      -15.215542    3.770492   -1.515730
     79          1           0      -14.507377    2.292923   -2.187198
     80         12           0       21.132730   -0.932531   -0.199633
     81          6           0       21.939034    2.482240   -0.640276
     82          6           0       18.035335    0.039627    0.891298
     83          6           0       20.620143   -4.042022    0.818277
     84          6           0       24.478982   -1.708091   -0.872356
     85          7           0       20.164179    1.055566    0.244811
     86          6           0       20.672655    2.301147   -0.132974
     87          6           0       19.554409    3.370227   -0.063437
     88          6           0       18.311062    2.557778    0.452753
     89          6           0       18.814344    1.088967    0.514278
     90          6           0       17.567412    3.116975    1.653082
     91          6           0       19.267978    4.148608   -1.357009
     92          6           0       19.349207    5.691429   -1.195174
     93          1           0       18.109620    6.454657   -1.606125
     94          7           0       19.489655   -1.868395    0.653996
     95          6           0       18.311016   -1.322408    1.070083
     96          6           0       17.435670   -2.405868    1.449114
     97          6           0       18.241808   -3.617133    1.574108
     98          6           0       19.507980   -3.162281    1.020437
     99          6           0       15.917261   -2.162335    1.944753
    100          6           0       18.026826   -4.863539    2.319414
    101          8           0       18.746244   -5.820515    2.362863
    102          6           0       16.743583   -4.934839    3.141743
    103          7           0       22.471674   -2.594803    0.140392
    104          6           0       21.979030   -3.792848    0.510781
    105          6           0       23.027918   -4.891268    0.322031
    106          6           0       24.095442   -4.197170   -0.538987
    107          6           0       23.665992   -2.748565   -0.472019
    108          6           0       23.609568   -5.389664    1.723785
    109          6           0       23.970328   -4.747337   -2.050010
    110          6           0       22.733456   -4.251171   -2.847628
    111          7           0       22.895570    0.081697   -0.785948
    112          6           0       24.137973   -0.368429   -1.024748
    113          6           0       24.958418    0.753683   -1.393883
    114          6           0       24.135115    1.860448   -1.305162
    115          6           0       22.879739    1.433106   -0.864029
    116          6           0       26.425985    0.782063   -1.776276
    117          6           0       24.186768    3.317965   -1.447555
    118          8           0       25.003009    4.172016   -1.650814
    119          6           0       22.746454    3.778657   -1.100204
    120          6           0       22.893737    4.721332    0.036474
    121          8           0       23.470458    4.403751    1.046171
    122          8           0       22.391665    5.985972   -0.225319
    123          6           0       22.766850    7.066381    0.747151
    124          1           0       16.996130    0.343495    1.034185
    125          1           0       20.469779   -5.103683    1.026845
    126          1           0       25.469884   -1.875119   -1.299824
    127          1           0       19.792808    4.071408    0.736591
    128          1           0       17.528215    2.630292   -0.302478
    129          1           0       18.167217    3.859687    2.177035
    130          1           0       17.235658    2.354781    2.358587
    131          1           0       16.719414    3.666856    1.245655
    132          1           0       18.289564    4.026879   -1.821785
    133          1           0       19.961909    3.855760   -2.144592
    134          1           0       20.254595    6.093625   -1.649602
    135          1           0       19.444331    5.903219   -0.130948
    136          1           0       15.277117   -2.864868    1.411237
    137          1           0       15.491075   -1.183020    1.730322
    138          1           0       15.697895   -2.223805    3.010654
    139          1           0       15.959799   -4.854306    2.388187
    140          1           0       16.785373   -4.063534    3.794570
    141          1           0       16.588062   -5.879695    3.663394
    142          1           0       22.668832   -5.742013   -0.258074
    143          1           0       25.141869   -4.206857   -0.233224
    144          1           0       23.907918   -6.429652    1.588854
    145          1           0       22.953094   -5.380643    2.594535
    146          1           0       24.493846   -4.770957    1.875824
    147          1           0       23.997555   -5.835346   -2.106684
    148          1           0       24.763685   -4.315683   -2.660379
    149          1           0       22.557598   -4.752639   -3.798723
    150          1           0       22.888825   -3.194683   -3.066835
    151          1           0       21.863508   -4.349931   -2.197549
    152          1           0       26.665091    0.227066   -2.683134
    153          1           0       26.917798    0.297137   -0.933433
    154          1           0       26.831330    1.793098   -1.815940
    155          1           0       22.440813    4.327921   -1.990527
    156          1           0       21.791850    7.543601    0.845813
    157          1           0       23.484369    7.778076    0.339214
    158          1           0       23.175841    6.809392    1.723962
 ---------------------------------------------------------------------

 SCF Done:  E(RCAM-B3LYP) =  -4069.79774385     A.U. after   19 cycles

 Excitation energies and oscillator strengths:

 Excited State   1:      Singlet-A      1.6989 eV  729.78 nm  f=0.4470  <S**2>=0.000
     309 -> 315        0.18373
     312 -> 313        0.67983
     309 <- 315        0.10917
 This state for optimization and/or second-order correction.
 Total Energy, E(TD-HF/TD-DFT) =  -4069.73530990
 Copying the excited state density for this state as the 1-particle RhoCI density.

 Excited State   2:      Singlet-A      1.7037 eV  727.72 nm  f=0.3598  <S**2>=0.000
     310 -> 316       -0.17430
     311 -> 314        0.68225
     310 <- 316       -0.10684

 Excited State   3:      Singlet-A      2.1918 eV  565.68 nm  f=0.1393  <S**2>=0.000
     310 -> 314        0.65684
     311 -> 316        0.24837

 Excited State   4:      Singlet-A      2.2279 eV  556.51 nm  f=0.1004  <S**2>=0.000
     309 -> 313        0.63673
     312 -> 315       -0.29383

 Excited State   5:      Singlet-A      3.1474 eV  393.92 nm  f=0.0000  <S**2>=0.000
     311 -> 313        0.70710

 The electronic state is 1-A.
 Alpha  occ. eigenvalues --  -46.89724 -46.89553 -19.25151 -19.24680 -19.20231
 Alpha  occ. eigenvalues --  -19.19614 -19.19287 -19.19283 -19.18408 -19.18387
 Alpha  occ. eigenvalues --  -14.42386 -14.42120 -14.42055 -14.41930 -14.39841
 Alpha  occ. eigenvalues --  -14.39781 -14.39239 -14.39236 -10.39662 -10.38802
 Alpha  occ. eigenvalues --  -10.35267 -10.35164 -10.34655 -10.34383 -10.31815
 Alpha  occ. eigenvalues --  -10.31626 -10.31581 -10.31536 -10.31431 -10.31344
 Alpha  occ. eigenvalues --  -10.31177 -10.30939 -10.30784 -10.30767 -10.30764
 Alpha  occ. eigenvalues --  -10.30249 -10.29971 -10.29811 -10.29637 -10.29473
 Alpha  occ. eigenvalues --  -10.29361 -10.29169 -10.28873 -10.28757 -10.28685
 Alpha  occ. eigenvalues --  -10.28537 -10.28371 -10.28364 -10.28348 -10.28214
 Alpha  occ. eigenvalues --  -10.28213 -10.28195 -10.28039 -10.28034 -10.28007
 Alpha  occ. eigenvalues --  -10.27901 -10.27847 -10.27833 -10.27796 -10.27774
 Alpha  occ. eigenvalues --  -10.27516 -10.27407 -10.27401 -10.27074 -10.27040
 Alpha  occ. eigenvalues --  -10.26997 -10.26889 -10.26828 -10.26656 -10.26640
 Alpha  occ. eigenvalues --  -10.26565 -10.26562 -10.26518 -10.26282 -10.26183
 Alpha  occ. eigenvalues --  -10.26106 -10.26062 -10.25973 -10.25962 -10.25930
 Alpha  occ. eigenvalues --  -10.25890 -10.25619 -10.25070 -10.25051 -10.24941
 Alpha  occ. eigenvalues --  -10.24886  -3.18047  -3.17955  -1.92960  -1.92838
 Alpha  occ. eigenvalues --   -1.92497  -1.92424  -1.92340  -1.92249  -1.15788
 Alpha  occ. eigenvalues --   -1.15697  -1.11678  -1.11076  -1.10070  -1.10022
 Alpha  occ. eigenvalues --   -1.07630  -1.07564  -1.05547  -1.05196  -1.04299
 Alpha  occ. eigenvalues --   -1.04121  -1.03897  -1.03843  -1.02648  -1.02007
 Alpha  occ. eigenvalues --   -0.93936  -0.92369  -0.89514  -0.89194  -0.88889
 Alpha  occ. eigenvalues --   -0.88820  -0.88439  -0.88228  -0.87932  -0.87751
 Alpha  occ. eigenvalues --   -0.86916  -0.86553  -0.86339  -0.86231  -0.85465
 Alpha  occ. eigenvalues --   -0.84680  -0.84420  -0.83507  -0.83089  -0.82516
 Alpha  occ. eigenvalues --   -0.82295  -0.81521  -0.81219  -0.80872  -0.80837
 Alpha  occ. eigenvalues --   -0.80175  -0.78388  -0.78219  -0.77654  -0.77430
 Alpha  occ. eigenvalues --   -0.76772  -0.76606  -0.76551  -0.76174  -0.75233
 Alpha  occ. eigenvalues --   -0.75217  -0.73553  -0.73112  -0.72430  -0.71774
 Alpha  occ. eigenvalues --   -0.69863  -0.69377  -0.69298  -0.69206  -0.68165
 Alpha  occ. eigenvalues --   -0.68086  -0.67462  -0.67309  -0.66221  -0.65956
 Alpha  occ. eigenvalues --   -0.65526  -0.65493  -0.65331  -0.65166  -0.64902
 Alpha  occ. eigenvalues --   -0.64449  -0.62749  -0.62288  -0.60542  -0.60421
 Alpha  occ. eigenvalues --   -0.59931  -0.59728  -0.59293  -0.59169  -0.59143
 Alpha  occ. eigenvalues --   -0.58761  -0.58225  -0.58134  -0.58036  -0.57545
 Alpha  occ. eigenvalues --   -0.56396  -0.56196  -0.55996  -0.55501  -0.55378
 Alpha  occ. eigenvalues --   -0.55233  -0.54916  -0.54586  -0.54418  -0.54206
 Alpha  occ. eigenvalues --   -0.53583  -0.53441  -0.53435  -0.52951  -0.52694
 Alpha  occ. eigenvalues --   -0.52680  -0.52449  -0.52375  -0.52136  -0.52128
 Alpha  occ. eigenvalues --   -0.52121  -0.51894  -0.51874  -0.51545  -0.51503
 Alpha  occ. eigenvalues --   -0.51358  -0.51270  -0.50772  -0.50418  -0.50180
 Alpha  occ. eigenvalues --   -0.50057  -0.50040  -0.49807  -0.49632  -0.49516
 Alpha  occ. eigenvalues --   -0.49481  -0.49391  -0.49329  -0.49067  -0.49043
 Alpha  occ. eigenvalues --   -0.49028  -0.48428  -0.48415  -0.48335  -0.48298
 Alpha  occ. eigenvalues --   -0.47948  -0.47584  -0.47572  -0.47479  -0.47017
 Alpha  occ. eigenvalues --   -0.46923  -0.46794  -0.46748  -0.46650  -0.46440
 Alpha  occ. eigenvalues --   -0.46168  -0.46141  -0.46108  -0.46005  -0.45905
 Alpha  occ. eigenvalues --   -0.45860  -0.45604  -0.45520  -0.45338  -0.45316
 Alpha  occ. eigenvalues --   -0.45120  -0.45112  -0.44744  -0.44560  -0.44527
 Alpha  occ. eigenvalues --   -0.44064  -0.43945  -0.43695  -0.43652  -0.43432
 Alpha  occ. eigenvalues --   -0.43394  -0.43339  -0.43207  -0.43064  -0.42911
 Alpha  occ. eigenvalues --   -0.42908  -0.42445  -0.42318  -0.42229  -0.42096
 Alpha  occ. eigenvalues --   -0.42081  -0.41996  -0.41965  -0.41876  -0.41481
 Alpha  occ. eigenvalues --   -0.41472  -0.41378  -0.41109  -0.40931  -0.40325
 Alpha  occ. eigenvalues --   -0.40284  -0.39772  -0.39741  -0.39092  -0.38335
 Alpha  occ. eigenvalues --   -0.38333  -0.38254  -0.38074  -0.38008  -0.37847
 Alpha  occ. eigenvalues --   -0.37417  -0.37310  -0.37032  -0.36372  -0.36318
 Alpha  occ. eigenvalues --   -0.36243  -0.35713  -0.34961  -0.34412  -0.34403
 Alpha  occ. eigenvalues --   -0.34090  -0.33657  -0.33406  -0.31867  -0.31626
 Alpha  occ. eigenvalues --   -0.31244  -0.31229  -0.30753  -0.30536  -0.30399
 Alpha  occ. eigenvalues --   -0.30310  -0.30160  -0.29483  -0.24591  -0.24186
 Alpha  occ. eigenvalues --   -0.21590  -0.21584
 Alpha virt. eigenvalues --   -0.09222  -0.09181  -0.02311  -0.01438  -0.00217
 Alpha virt. eigenvalues --    0.00549   0.01678   0.02298   0.02480   0.02502
 Alpha virt. eigenvalues --    0.04011   0.04597   0.05300   0.05467   0.05664

 Mulliken charges:
               1
     1  Mg  11.997170
     2  C    5.993199
     3  C    6.032789
     4  C    6.014741
     5  C    5.970576
     6  N    7.014767
     7  C    6.021104
     8  C    5.992756
     9  C    6.009974
    10  C    5.957726
    11  C    6.000733
    12  C    5.999015
    13  C    5.997497
    14  H    1.009644
    15  N    7.006635
    16  C    5.949294
    17  C    5.978331
    18  C    5.987876
    19  C    5.957660
    20  C    6.006456
    21  C    5.990594
    22  O    7.981690
    23  C    6.003107
    24  N    6.991782
    25  C    5.970444
    26  C    6.011022
    27  C    5.989390
    28  C    6.037927
    29  C    6.003951
    30  C    5.997445
    31  C    6.002488
    32  N    6.998984
    33  C    6.038107
    34  C    6.029069
    35  C    6.005935
    36  C    6.023697
    37  C    5.999925
    38  C    6.015815
    39  O    8.033024
    40  C    6.005411
    41  C    6.001009
    42  O    8.010287
    43  O    8.001743
    44  C    5.995902
    45  H    0.995416
    46  H    0.988212
    47  H    1.005816
    48  H    0.998622
    49  H    1.000552
    50  H    0.987599
    51  H    1.004517
    52  H    0.998303
    53  H    1.011968
    54  H    0.993423
    55  H    0.995003
    56  H    1.004021
    57  H    0.976914
    58  H    0.981203
    59  H    0.976709
    60  H    0.989808
    61  H    0.986786
    62  H    0.991994
    63  H    1.000394
    64  H    1.001175
    65  H    1.000596
    66  H    1.001118
    67  H    0.987760
    68  H    0.994873
    69  H    1.010485
    70  H    0.992291
    71  H    1.003062
    72  H    1.002961
    73  H    1.020891
    74  H    1.021202
    75  H    1.012714
    76  H    1.010255
    77  H    1.004053
    78  H    1.004518
    79  H    1.008095
    80  Mg  12.000057
    81  C    5.996263
    82  C    6.001542
    83  C    6.002940
    84  C    5.998901
    85  N    6.999010
    86  C    6.004494
    87  C    5.998226
    88  C    6.001474
    89  C    5.996569
    90  C    6.000402
    91  C    6.000013
    92  C    5.999686
    93  H    1.000913
    94  N    7.000751
    95  C    5.995019
    96  C    5.997278
    97  C    5.997259
    98  C    5.996188
    99  C    6.000283
   100  C    5.998848
   101  O    7.996256
   102  C    6.000337
   103  N    7.000593
   104  C    5.995477
   105  C    6.001259
   106  C    5.999084
   107  C    6.003721
   108  C    6.000756
   109  C    5.999261
   110  C    5.999727
   111  N    6.998918
   112  C    6.005157
   113  C    6.003923
   114  C    5.999889
   115  C    6.005669
   116  C    5.999966
   117  C    6.001739
   118  O    8.003265
   119  C    6.000196
   120  C    6.000897
   121  O    8.000188
   122  O    8.000271
   123  C    5.999647
   124  H    0.998584
   125  H    0.999415
   126  H    1.001455
   127  H    1.000275
   128  H    0.999617
   129  H    0.998625
   130  H    1.000778
   131  H    0.999179
   132  H    1.001022
   133  H    0.999308
   134  H    0.999495
   135  H    1.000223
   136  H    0.997772
   137  H    0.997506
   138  H    0.997360
   139  H    0.999187
   140  H    0.999363
   141  H    0.997989
   142  H    0.999896
   143  H    0.999971
   144  H    0.999501
   145  H    1.000768
   146  H    0.998398
   147  H    1.001453
   148  H    0.999702
   149  H    1.000607
   150  H    0.998546
   151  H    1.002316
   152  H    1.002678
   153  H    1.002295
   154  H    1.001894
   155  H    1.001003
   156  H    1.000728
   157  H    1.000351
   158  H    1.000431
 Sum of Mulliken charges = 624.00000

 Dipole moment (field-independent basis, Debye):
    X=              8.7844    Y=              3.8836    Z=              6.8193  Tot=             11.7793
 Quadrupole moment (field-independent basis, Debye-Ang):
   XX=           -287.5489   YY=              1.4614   ZZ=             -3.1325
   XY=            -57.2022   XZ=           -173.8507   YZ=              1.1921

 Normal termination of Gaussian 16 at Wed Sep 22 06:34:15 2021.
