 Gaussian 16, Revision A.03,
 Gaussian 16:  ES64L-G16RevA.03 25-Dec-2016

 ----------------------------------------------------------
 #p cam-b3lyp/Def2SVP td=(nstates=5) density=(transition=1)
 ----------------------------------------------------------

 --------------------------------
 TDDFT excited states in gaussian
 --------------------------------
 Symbolic Z-matrix:
 Charge =  0 Multiplicity = 1

                         Standard orientation:
 ---------------------------------------------------------------------
 Center     Atomic      Atomic             Coordinates (Angstroms)
 Number     Number       Type             X           Y           Z
 ---------------------------------------------------------------------
      1         12           0       33.225982   -0.182100    0.144052
      2          6           0       29.862180    0.693216    0.638965
      3          6           0       32.208325   -3.355032   -0.518672
      4          6           0       36.333184   -0.739542   -0.710900
      5          6           0       33.836218    3.365574    0.054450
      6          7           0       31.284259   -1.183144    0.143897
      7          6           0       30.046374   -0.643042    0.350693
      8          6           0       28.994297   -1.671539   -0.090526
      9          6           0       29.739485   -2.986586    0.109567
     10          6           0       31.160788   -2.480011   -0.202232
     11          6           0       29.628185   -3.527841    1.553621
     12          6           0       28.564801   -1.448138   -1.587690
     13          6           0       27.057814   -0.977099   -1.888198
     14          1           0       26.822390    0.369350   -2.593691
     15          7           0       34.137028   -1.803178   -0.577677
     16          6           0       33.554677   -3.035924   -0.763473
     17          6           0       34.583999   -3.967878   -1.103170
     18          6           0       35.853793   -3.302444   -1.063141
     19          6           0       35.501895   -1.880379   -0.782117
     20          6           0       34.308201   -5.478588   -1.415575
     21          6           0       37.245052   -4.007234   -1.258741
     22          8           0       37.304506   -5.193693   -1.363039
     23          6           0       38.453545   -3.225064   -1.028384
     24          7           0       34.787546    1.152386   -0.581042
     25          6           0       36.026974    0.615503   -0.483260
     26          6           0       37.101113    1.642131   -0.165161
     27          6           0       36.364013    2.966318   -0.294899
     28          6           0       34.873065    2.480195   -0.280764
     29          6           0       37.730347    1.449481    1.264111
     30          6           0       36.679445    3.928114   -1.535304
     31          6           0       37.442996    5.215008   -1.372612
     32          7           0       32.181548    1.638967    0.502913
     33          6           0       32.546791    2.989532    0.433382
     34          6           0       31.416334    3.861302    0.669394
     35          6           0       30.357238    2.994372    0.781315
     36          6           0       30.824957    1.644983    0.654077
     37          6           0       31.457976    5.332719    0.680051
     38          6           0       28.918735    2.927520    0.988530
     39          8           0       28.115115    3.834779    1.237151
     40          6           0       28.562246    1.456108    1.014495
     41          6           0       27.994098    1.152781    2.396611
     42          8           0       28.656968    1.360532    3.410329
     43          8           0       26.647641    0.762543    2.327938
     44          6           0       26.036994    0.493143    3.602241
     45          1           0       31.866020   -4.390381   -0.570690
     46          1           0       37.386320   -1.023277   -0.681272
     47          1           0       34.051332    4.433262    0.135906
     48          1           0       28.097398   -1.472562    0.496592
     49          1           0       29.348478   -3.707898   -0.606931
     50          1           0       29.328296   -4.548918    1.320490
     51          1           0       28.840463   -2.929163    2.011846
     52          1           0       30.529301   -3.487933    2.165702
     53          1           0       28.668124   -2.405601   -2.098120
     54          1           0       29.298258   -0.784817   -2.045422
     55          1           0       26.598126   -0.849469   -0.907856
     56          1           0       26.446376   -1.713741   -2.407984
     57          1           0       34.738199   -5.900008   -2.323678
     58          1           0       33.223416   -5.569871   -1.479374
     59          1           0       34.631221   -6.140005   -0.611455
     60          1           0       38.546955   -2.343430   -1.662868
     61          1           0       39.316179   -3.870722   -1.192755
     62          1           0       38.575040   -3.027557    0.035783
     63          1           0       37.960724    1.569794   -0.832285
     64          1           0       36.484388    3.555983    0.613910
     65          1           0       38.681381    0.917407    1.248650
     66          1           0       36.982985    1.029585    1.937323
     67          1           0       37.946911    2.445643    1.652604
     68          1           0       35.880097    4.121997   -2.249721
     69          1           0       37.341440    3.224386   -2.040616
     70          1           0       38.418025    5.206462   -1.858766
     71          1           0       37.614735    5.405495   -0.312940
     72          1           0       36.788990    5.971818   -1.805150
     73          1           0       32.304459    5.644627    0.067662
     74          1           0       31.673389    5.609683    1.712424
     75          1           0       30.500391    5.760935    0.387356
     76          1           0       27.772263    1.394010    0.267273
     77          1           0       26.309942   -0.466124    4.042832
     78          1           0       24.949454    0.506753    3.536047
     79          1           0       26.251391    1.236508    4.369579
     80         12           0      -32.979991    0.346570    0.516568
     81          6           0      -30.479717   -1.878276   -0.776839
     82          6           0      -31.435510    2.826375   -1.538916
     83          6           0      -35.693525    2.317329    0.720771
     84          6           0      -34.638052   -2.365229    1.778824
     85          7           0      -31.212464    0.402032   -0.977169
     86          6           0      -30.342669   -0.593457   -1.314719
     87          6           0      -29.256492   -0.099899   -2.333127
     88          6           0      -29.405910    1.490187   -2.191371
     89          6           0      -30.805113    1.574214   -1.602499
     90          6           0      -28.402678    2.139756   -1.266036
     91          6           0      -29.392559   -0.723689   -3.712257
     92          6           0      -28.096185   -1.215113   -4.407196
     93          1           0      -27.387206   -0.336314   -5.539857
     94          7           0      -33.490447    2.403924   -0.226853
     95          6           0      -32.649507    3.254638   -0.974284
     96          6           0      -33.325511    4.545427   -1.153141
     97          6           0      -34.579697    4.410794   -0.437148
     98          6           0      -34.679398    3.025987   -0.029109
     99          6           0      -32.842270    5.707927   -1.935760
    100          6           0      -35.557443    5.531002   -0.184919
    101          8           0      -35.217414    6.658845   -0.463447
    102          6           0      -36.935543    5.344823    0.406883
    103          7           0      -34.853320   -0.053118    1.039238
    104          6           0      -35.754329    0.997233    1.190011
    105          6           0      -37.048568    0.410503    1.758332
    106          6           0      -36.625159   -1.010549    2.282043
    107          6           0      -35.258803   -1.138422    1.697924
    108          6           0      -37.870569    1.275284    2.783156
    109          6           0      -37.573227   -2.213861    1.989689
    110          6           0      -38.041168   -3.034553    3.147042
    111          7           0      -32.629705   -1.669049    0.639976
    112          6           0      -33.358904   -2.669976    1.257884
    113          6           0      -32.577485   -3.919861    1.327363
    114          6           0      -31.454201   -3.627742    0.460158
    115          6           0      -31.570435   -2.284573    0.089431
    116          6           0      -32.882030   -5.221162    2.021637
    117          6           0      -30.209991   -4.225928   -0.107405
    118          8           0      -29.792938   -5.348015   -0.060072
    119          6           0      -29.633236   -3.134230   -1.002910
    120          6           0      -28.212744   -2.900935   -0.582787
    121          8           0      -27.996672   -2.438896    0.516971
    122          8           0      -27.216714   -3.156704   -1.572507
    123          6           0      -25.822293   -2.734230   -1.240256
    124          1           0      -30.963470    3.626688   -2.112896
    125          1           0      -36.643405    2.827864    0.888023
    126          1           0      -35.111890   -3.156313    2.363225
    127          1           0      -28.246292   -0.271152   -1.962391
    128          1           0      -29.448449    1.974628   -3.166803
    129          1           0      -28.744611    2.004561   -0.240184
    130          1           0      -28.316828    3.182976   -1.569731
    131          1           0      -27.382956    1.754095   -1.241157
    132          1           0      -29.794841    0.058237   -4.355615
    133          1           0      -30.195287   -1.459590   -3.666360
    134          1           0      -28.398315   -2.170076   -4.837825
    135          1           0      -27.287008   -1.431218   -3.709499
    136          1           0      -32.395151    6.392771   -1.215858
    137          1           0      -33.699408    6.251829   -2.332850
    138          1           0      -32.148851    5.563513   -2.765130
    139          1           0      -37.562171    6.236393    0.419461
    140          1           0      -36.767979    5.040938    1.440241
    141          1           0      -37.581308    4.557658    0.019472
    142          1           0      -37.689030    0.409019    0.875865
    143          1           0      -36.394309   -0.923379    3.343325
    144          1           0      -37.239638    2.043607    3.230849
    145          1           0      -38.341931    0.636210    3.529596
    146          1           0      -38.711920    1.752667    2.281305
    147          1           0      -37.085244   -2.878094    1.276485
    148          1           0      -38.412497   -1.824357    1.413636
    149          1           0      -37.526282   -3.994954    3.133525
    150          1           0      -39.109074   -3.228919    3.048473
    151          1           0      -37.891314   -2.628578    4.147222
    152          1           0      -31.972311   -5.797000    2.190469
    153          1           0      -33.579369   -5.757250    1.377266
    154          1           0      -33.447619   -4.991093    2.924748
    155          1           0      -29.787589   -3.445893   -2.036046
    156          1           0      -25.373793   -3.474614   -0.577632
    157          1           0      -25.821779   -1.795276   -0.687068
    158          1           0      -25.231953   -2.601032   -2.146616
 ---------------------------------------------------------------------

 SCF Done:  E(RCAM-B3LYP) =  -4069.81426798     A.U. after   17 cycles

 Excitation energies and oscillator strengths:

 Excited State   1:      Singlet-A      1.6714 eV  741.79 nm  f=0.3979  <S**2>=0.000
     310 -> 316        0.16934
     311 -> 313        0.68867
     310 <- 316        0.10660
 This state for optimization and/or second-order correction.
 Total Energy, E(TD-HF/TD-DFT) =  -4069.75284430
 Copying the excited state density for this state as the 1-particle RhoCI density.

 Excited State   2:      Singlet-A      1.7237 eV  719.29 nm  f=0.3636  <S**2>=0.000
     309 -> 315       -0.19171
     312 -> 314        0.68304
     309 <- 315       -0.11116

 Excited State   3:      Singlet-A      2.2361 eV  554.47 nm  f=0.1281  <S**2>=0.000
     310 -> 313        0.64117
     311 -> 316       -0.28143

 Excited State   4:      Singlet-A      2.2830 eV  543.07 nm  f=0.0523  <S**2>=0.000
     309 -> 314        0.60484
     312 -> 315        0.35601

 Excited State   5:      Singlet-A      3.1276 eV  396.43 nm  f=0.0000  <S**2>=0.000
     312 -> 313        0.70711

 The electronic state is 1-A.
 Alpha  occ. eigenvalues --  -46.89325 -46.88698 -19.26035 -19.25257 -19.20728
 Alpha  occ. eigenvalues --  -19.20590 -19.19727 -19.19103 -19.18772 -19.17984
 Alpha  occ. eigenvalues --  -14.42760 -14.42148 -14.42089 -14.41715 -14.39395
 Alpha  occ. eigenvalues --  -14.39360 -14.39337 -14.39158 -10.40260 -10.40220
 Alpha  occ. eigenvalues --  -10.35408 -10.35065 -10.34577 -10.34513 -10.32267
 Alpha  occ. eigenvalues --  -10.31517 -10.31386 -10.31296 -10.31146 -10.31139
 Alpha  occ. eigenvalues --  -10.30846 -10.30696 -10.30667 -10.30562 -10.30515
 Alpha  occ. eigenvalues --  -10.30281 -10.30234 -10.29804 -10.29550 -10.29489
 Alpha  occ. eigenvalues --  -10.29304 -10.29223 -10.29104 -10.28835 -10.28663
 Alpha  occ. eigenvalues --  -10.28638 -10.28625 -10.28557 -10.28422 -10.28173
 Alpha  occ. eigenvalues --  -10.28088 -10.28060 -10.27991 -10.27899 -10.27886
 Alpha  occ. eigenvalues --  -10.27829 -10.27827 -10.27793 -10.27602 -10.27554
 Alpha  occ. eigenvalues --  -10.27266 -10.27222 -10.27012 -10.26939 -10.26917
 Alpha  occ. eigenvalues --  -10.26910 -10.26886 -10.26875 -10.26862 -10.26568
 Alpha  occ. eigenvalues --  -10.26524 -10.26523 -10.26493 -10.26446 -10.26313
 Alpha  occ. eigenvalues --  -10.26243 -10.26240 -10.26048 -10.26011 -10.25893
 Alpha  occ. eigenvalues --  -10.25735 -10.25706 -10.25532 -10.25519 -10.25371
 Alpha  occ. eigenvalues --  -10.25147  -3.17894  -3.17308  -1.92743  -1.92355
 Alpha  occ. eigenvalues --   -1.92201  -1.92182  -1.91778  -1.91607  -1.15976
 Alpha  occ. eigenvalues --   -1.15367  -1.11920  -1.11726  -1.10215  -1.09116
 Alpha  occ. eigenvalues --   -1.08233  -1.07867  -1.04794  -1.04595  -1.04287
 Alpha  occ. eigenvalues --   -1.03578  -1.02870  -1.02777  -1.02086  -1.01512
 Alpha  occ. eigenvalues --   -0.93058  -0.92756  -0.89409  -0.89163  -0.88983
 Alpha  occ. eigenvalues --   -0.88887  -0.88519  -0.88458  -0.87625  -0.87615
 Alpha  occ. eigenvalues --   -0.87118  -0.86231  -0.85650  -0.85009  -0.84619
 Alpha  occ. eigenvalues --   -0.84494  -0.84249  -0.83961  -0.82598  -0.82532
 Alpha  occ. eigenvalues --   -0.82495  -0.81844  -0.81048  -0.80868  -0.80557
 Alpha  occ. eigenvalues --   -0.80205  -0.78166  -0.78015  -0.77489  -0.77239
 Alpha  occ. eigenvalues --   -0.76799  -0.76411  -0.76350  -0.76323  -0.75226
 Alpha  occ. eigenvalues --   -0.75118  -0.72899  -0.72648  -0.72135  -0.71782
 Alpha  occ. eigenvalues --   -0.69552  -0.69042  -0.68937  -0.68630  -0.68167
 Alpha  occ. eigenvalues --   -0.67923  -0.66787  -0.66714  -0.65946  -0.65883
 Alpha  occ. eigenvalues --   -0.65610  -0.65097  -0.64877  -0.64542  -0.64468
 Alpha  occ. eigenvalues --   -0.64319  -0.62732  -0.62325  -0.60261  -0.60059
 Alpha  occ. eigenvalues --   -0.59797  -0.59556  -0.59193  -0.59130  -0.59068
 Alpha  occ. eigenvalues --   -0.58900  -0.58511  -0.58329  -0.57691  -0.57649
 Alpha  occ. eigenvalues --   -0.56539  -0.56249  -0.56085  -0.55662  -0.55436
 Alpha  occ. eigenvalues --   -0.55301  -0.54987  -0.54329  -0.53962  -0.53867
 Alpha  occ. eigenvalues --   -0.53551  -0.53366  -0.53208  -0.53082  -0.53009
 Alpha  occ. eigenvalues --   -0.52961  -0.52795  -0.52691  -0.52243  -0.52201
 Alpha  occ. eigenvalues --   -0.51836  -0.51758  -0.51725  -0.51315  -0.51103
 Alpha  occ. eigenvalues --   -0.51024  -0.50927  -0.50904  -0.50470  -0.50437
 Alpha  occ. eigenvalues --   -0.50150  -0.49940  -0.49872  -0.49838  -0.49741
 Alpha  occ. eigenvalues --   -0.49657  -0.49308  -0.49304  -0.49113  -0.49094
 Alpha  occ. eigenvalues --   -0.48708  -0.48693  -0.48596  -0.48347  -0.48188
 Alpha  occ. eigenvalues --   -0.48100  -0.47691  -0.47526  -0.47137  -0.47086
 Alpha  occ. eigenvalues --   -0.46978  -0.46603  -0.46422  -0.46383  -0.46358
 Alpha  occ. eigenvalues --   -0.46303  -0.46184  -0.46147  -0.46056  -0.45978
 Alpha  occ. eigenvalues --   -0.45974  -0.45828  -0.45437  -0.45351  -0.45251
 Alpha  occ. eigenvalues --   -0.44961  -0.44662  -0.44451  -0.44318  -0.44166
 Alpha  occ. eigenvalues --   -0.43867  -0.43775  -0.43616  -0.43571  -0.43449
 Alpha  occ. eigenvalues --   -0.43308  -0.43305  -0.43075  -0.42901  -0.42642
 Alpha  occ. eigenvalues --   -0.42588  -0.42551  -0.42429  -0.42415  -0.42146
 Alpha  occ. eigenvalues --   -0.41978  -0.41920  -0.41739  -0.41604  -0.41553
 Alpha  occ. eigenvalues --   -0.41123  -0.41088  -0.40879  -0.40832  -0.40730
 Alpha  occ. eigenvalues --   -0.40575  -0.40384  -0.40265  -0.40045  -0.39290
 Alpha  occ. eigenvalues --   -0.38977  -0.38470  -0.38000  -0.37702  -0.37475
 Alpha  occ. eigenvalues --   -0.37342  -0.37158  -0.37153  -0.36696  -0.36536
 Alpha  occ. eigenvalues --   -0.36510  -0.35823  -0.35047  -0.34857  -0.34721
 Alpha  occ. eigenvalues --   -0.34401  -0.33492  -0.33185  -0.31604  -0.31415
 Alpha  occ. eigenvalues --   -0.31222  -0.31111  -0.30956  -0.30496  -0.30158
 Alpha  occ. eigenvalues --   -0.29675  -0.29662  -0.28742  -0.24403  -0.24309
 Alpha  occ. eigenvalues --   -0.21127  -0.21004
 Alpha virt. eigenvalues --   -0.08988  -0.08329  -0.02237  -0.01499   0.00466
 Alpha virt. eigenvalues --    0.00490   0.01242   0.01818   0.02634   0.02731
 Alpha virt. eigenvalues --    0.04192   0.04396   0.04401   0.05005   0.05601

 Mulliken charges:
               1
     1  Mg  11.999996
     2  C    5.999998
     3  C    5.999987
     4  C    6.000012
     5  C    6.000009
     6  N    7.000048
     7  C    6.000027
     8  C    5.999990
     9  C    6.000013
    10  C    5.999956
    11  C    6.000011
    12  C    6.000006
    13  C    6.000001
    14  H    1.000006
    15  N    7.000006
    16  C    5.999962
    17  C    5.999970
    18  C    5.999984
    19  C    5.999940
    20  C    6.000006
    21  C    5.999977
    22  O    7.999966
    23  C    6.000013
    24  N    6.999959
    25  C    5.999983
    26  C    6.000026
    27  C    5.999997
    28  C    6.000050
    29  C    5.999999
    30  C    5.999979
    31  C    5.999999
    32  N    6.999996
    33  C    6.000040
    34  C    6.000085
    35  C    5.999958
    36  C    6.000033
    37  C    5.999991
    38  C    6.000044
    39  O    8.000054
    40  C    5.999979
    41  C    6.000004
    42  O    8.000005
    43  O    8.000004
    44  C    5.999995
    45  H    0.999977
    46  H    0.999990
    47  H    1.000023
    48  H    0.999985
    49  H    0.999983
    50  H    0.999983
    51  H    0.999966
    52  H    1.000000
    53  H    1.000014
    54  H    1.000008
    55  H    0.999991
    56  H    0.999997
    57  H    0.999963
    58  H    0.999963
    59  H    0.999956
    60  H    0.999990
    61  H    0.999976
    62  H    0.999982
    63  H    1.000003
    64  H    1.000004
    65  H    1.000005
    66  H    0.999991
    67  H    0.999988
    68  H    1.000004
    69  H    1.000024
    70  H    1.000015
    71  H    1.000005
    72  H    1.000006
    73  H    1.000038
    74  H    1.000039
    75  H    1.000034
    76  H    1.000018
    77  H    0.999999
    78  H    1.000004
    79  H    1.000008
    80  Mg  12.000202
    81  C    5.970684
    82  C    6.005107
    83  C    6.040471
    84  C    5.993213
    85  N    6.983862
    86  C    6.033597
    87  C    5.990574
    88  C    6.008402
    89  C    5.972511
    90  C    6.007319
    91  C    5.995347
    92  C    5.999664
    93  H    1.008031
    94  N    7.006791
    95  C    5.954009
    96  C    5.975119
    97  C    5.993508
    98  C    5.952163
    99  C    6.007365
   100  C    5.988820
   101  O    7.981924
   102  C    6.003210
   103  N    7.010732
   104  C    5.957884
   105  C    6.010424
   106  C    5.987273
   107  C    6.031600
   108  C    6.000021
   109  C    5.995612
   110  C    5.998452
   111  N    6.997081
   112  C    6.038649
   113  C    6.032852
   114  C    6.003767
   115  C    6.037157
   116  C    5.998569
   117  C    6.016695
   118  O    8.026004
   119  C    6.001164
   120  C    6.005298
   121  O    8.002556
   122  O    8.001975
   123  C    5.997803
   124  H    0.986126
   125  H    0.997617
   126  H    1.014370
   127  H    1.001699
   128  H    0.998865
   129  H    0.994032
   130  H    1.001160
   131  H    0.982725
   132  H    1.011639
   133  H    0.993561
   134  H    0.996921
   135  H    0.997476
   136  H    0.978262
   137  H    0.982514
   138  H    0.979163
   139  H    0.987697
   140  H    0.989010
   141  H    0.987877
   142  H    0.999665
   143  H    1.004715
   144  H    1.003521
   145  H    0.991340
   146  H    1.003454
   147  H    0.996213
   148  H    1.012799
   149  H    0.995919
   150  H    1.006943
   151  H    1.004649
   152  H    1.017184
   153  H    1.022353
   154  H    1.017618
   155  H    1.007772
   156  H    1.000726
   157  H    1.005831
   158  H    1.005124
 Sum of Mulliken charges = 624.00000

 Dipole moment (field-independent basis, Debye):
    X=              1.2268    Y=            -10.8136    Z=              2.6664  Tot=             11.2048
 Quadrupole moment (field-independent basis, Debye-Ang):
   XX=            -79.7702   YY=             -7.9079   ZZ=              1.7117
   XY=            358.3279   XZ=            -89.2155   YZ=              0.0380

 Normal termination of Gaussian 16 at Thu Sep 23 12:09:30 2021.
