 Gaussian 16, Revision A.03,
 Gaussian 16:  ES64L-G16RevA.03 25-Dec-2016

 -----------------------------------
 #p cam-b3lyp/Def2SVP td=(nstates=5)
 -----------------------------------

 --------------------------------
 TDDFT excited states in gaussian
 --------------------------------
 Symbolic Z-matrix:
 Charge =  0 Multiplicity = 1

                         Standard orientation:
 ---------------------------------------------------------------------
 Center     Atomic      Atomic             Coordinates (Angstroms)
 Number     Number       Type             X           Y           Z
 ---------------------------------------------------------------------
      1         12           0       -0.731818    0.085937   -0.367333
      2          6           0        2.749173    0.093407    0.158108
      3          6           0       -0.634029   -3.325703    0.299720
      4          6           0       -4.061446    0.021636   -0.399026
      5          6           0       -0.671232    3.543461   -0.075352
      6          7           0        0.913141   -1.371650    0.331882
      7          6           0        2.284700   -1.211542    0.364790
      8          6           0        3.088269   -2.494930    0.379776
      9          6           0        1.999454   -3.594132    0.401422
     10          6           0        0.675389   -2.762996    0.359082
     11          6           0        2.104472   -4.640306   -0.781392
     12          6           0        4.108782   -2.681552    1.589680
     13          6           0        3.745571   -2.049312    2.943178
     14          1           0        3.231451   -2.981576    4.079901
     15          7           0       -2.114360   -1.412712   -0.102145
     16          6           0       -1.884726   -2.743949    0.099854
     17          6           0       -3.156990   -3.479556    0.085552
     18          6           0       -4.183785   -2.508627   -0.123491
     19          6           0       -3.447683   -1.209940   -0.207909
     20          6           0       -3.259773   -4.991570    0.246862
     21          6           0       -5.689674   -2.966127   -0.090135
     22          8           0       -5.925807   -4.141754    0.151101
     23          6           0       -6.852657   -1.902593   -0.272920
     24          7           0       -2.127397    1.543921   -0.128545
     25          6           0       -3.483126    1.304468   -0.340923
     26          6           0       -4.317943    2.706193   -0.366954
     27          6           0       -3.118179    3.765778   -0.094792
     28          6           0       -1.908433    2.887809   -0.109574
     29          6           0       -5.070920    2.931482   -1.711136
     30          6           0       -3.230788    4.584753    1.261983
     31          6           0       -3.121728    6.116800    1.217883
     32          7           0        0.737050    1.587200   -0.148838
     33          6           0        0.647696    2.950540   -0.030631
     34          6           0        2.008445    3.495051    0.161256
     35          6           0        2.870289    2.366434    0.117960
     36          6           0        2.014278    1.238768   -0.024354
     37          6           0        2.403140    4.929658    0.377929
     38          6           0        4.284749    1.977383    0.272171
     39          8           0        5.334641    2.631838    0.351403
     40          6           0        4.251947    0.466281    0.098115
     41          6           0        4.947255    0.026417   -1.064327
     42          8           0        4.437964    0.096682   -2.212800
     43          8           0        6.210873   -0.506056   -0.740149
     44          6           0        6.982179   -1.149000   -1.799150
     45          1           0       -0.647670   -4.416913    0.329400
     46          1           0       -5.139318    0.025154   -0.571632
     47          1           0       -0.732813    4.633075   -0.052724
     48          1           0        3.633660   -2.441524   -0.561693
     49          1           0        2.022788   -4.006289    1.409577
     50          1           0        2.401732   -5.609978   -0.382147
     51          1           0        2.859312   -4.246089   -1.462296
     52          1           0        1.146762   -4.767112   -1.287275
     53          1           0        4.983359   -2.153170    1.208056
     54          1           0        4.350011   -3.739859    1.691762
     55          1           0        3.000749   -1.263632    2.812211
     56          1           0        4.617698   -1.507696    3.307053
     57          1           0       -3.591660   -5.324701    1.230236
     58          1           0       -2.372202   -5.488797   -0.144595
     59          1           0       -3.981410   -5.406243   -0.456757
     60          1           0       -6.591659   -1.297747   -1.141666
     61          1           0       -6.891359   -1.304635    0.637212
     62          1           0       -7.854108   -2.332325   -0.249984
     63          1           0       -5.106963    2.595074    0.376225
     64          1           0       -3.072680    4.421254   -0.964789
     65          1           0       -4.427558    3.539951   -2.346365
     66          1           0       -6.070522    3.343583   -1.572562
     67          1           0       -5.312430    2.013011   -2.245845
     68          1           0       -2.490639    4.161001    1.941501
     69          1           0       -4.239532    4.325434    1.583347
     70          1           0       -2.865403    6.537484    2.190601
     71          1           0       -4.126645    6.409676    0.914635
     72          1           0       -2.344109    6.305894    0.477550
     73          1           0        1.517374    5.381516    0.823592
     74          1           0        2.502421    5.297632   -0.643249
     75          1           0        3.349195    5.079536    0.898972
     76          1           0        4.747067    0.136218    1.011093
     77          1           0        7.324432   -0.521430   -2.622065
     78          1           0        6.410347   -1.972520   -2.227852
     79          1           0        7.785684   -1.694389   -1.303873
 ---------------------------------------------------------------------

 SCF Done:  E(RCAM-B3LYP) =  -2034.89678086     A.U. after   17 cycles

 Excitation energies and oscillator strengths:

 Excited State   1:      Singlet-A      1.7180 eV  721.69 nm  f=0.3752  <S**2>=0.000
     155 ->158         0.18157
     156 ->157         0.68505
     155 <-158         0.10793
 This state for optimization and/or second-order correction.
 Total Energy, E(TD-HF/TD-DFT) =  -2034.83364696
 Copying the excited state density for this state as the 1-particle RhoCI density.

 Excited State   2:      Singlet-A      2.3104 eV  536.64 nm  f=0.0713  <S**2>=0.000
     155 ->157         0.61629
     156 ->158        -0.33581

 Excited State   3:      Singlet-A      3.4966 eV  354.58 nm  f=0.5424  <S**2>=0.000
     152 ->157        -0.13843
     154 ->157         0.23237
     155 ->157         0.28424
     156 ->158         0.55893
     156 ->160        -0.13083

 Excited State   4:      Singlet-A      3.5868 eV  345.67 nm  f=0.0760  <S**2>=0.000
     153 ->157        -0.31216
     154 ->157         0.58421
     156 ->158        -0.14944

 Excited State   5:      Singlet-A      3.6386 eV  340.75 nm  f=0.0168  <S**2>=0.000
     150 ->157         0.11215
     151 ->157         0.31545
     151 ->159        -0.22462
     151 ->161         0.12072
     152 ->157         0.35933
     152 ->159        -0.26057
     152 ->161         0.10419
     153 ->157         0.20858
     154 ->157         0.10312

 The electronic state is 1-A.
 Alpha  occ. eigenvalues --  -46.88934 -19.25801 -19.20244 -19.19623 -19.19201
 Alpha  occ. eigenvalues --  -14.42646 -14.42090 -14.39966 -14.39323 -10.40032
 Alpha  occ. eigenvalues --  -10.36501 -10.35359 -10.32124 -10.31887 -10.31357
 Alpha  occ. eigenvalues --  -10.30944 -10.30646 -10.30593 -10.30096 -10.29848
 Alpha  occ. eigenvalues --  -10.29307 -10.29009 -10.28473 -10.28378 -10.28315
 Alpha  occ. eigenvalues --  -10.28313 -10.28313 -10.28039 -10.27769 -10.27750
 Alpha  occ. eigenvalues --  -10.27477 -10.27399 -10.27162 -10.27147 -10.26804
 Alpha  occ. eigenvalues --  -10.26739 -10.26667 -10.26591 -10.26578 -10.26062
 Alpha  occ. eigenvalues --  -10.25867 -10.25465 -10.25182  -3.17561  -1.92419
 Alpha  occ. eigenvalues --   -1.92032  -1.91865  -1.14980  -1.10423  -1.09064
 Alpha  occ. eigenvalues --   -1.07031  -1.04154  -1.03555  -1.02621  -1.01888
 Alpha  occ. eigenvalues --   -0.93142  -0.89172  -0.88856  -0.88057  -0.86814
 Alpha  occ. eigenvalues --   -0.86088  -0.85569  -0.84532  -0.83922  -0.82809
 Alpha  occ. eigenvalues --   -0.81670  -0.81017  -0.80091  -0.78176  -0.77226
 Alpha  occ. eigenvalues --   -0.76779  -0.76529  -0.74911  -0.72340  -0.71758
 Alpha  occ. eigenvalues --   -0.69302  -0.68918  -0.68441  -0.66818  -0.65787
 Alpha  occ. eigenvalues --   -0.65195  -0.64586  -0.64208  -0.62449  -0.60240
 Alpha  occ. eigenvalues --   -0.59631  -0.59073  -0.58661  -0.57748  -0.57192
 Alpha  occ. eigenvalues --   -0.56150  -0.55612  -0.54955  -0.54439  -0.54200
 Alpha  occ. eigenvalues --   -0.53772  -0.53092  -0.52623  -0.52350  -0.52133
 Alpha  occ. eigenvalues --   -0.51570  -0.51194  -0.50954  -0.50716  -0.50308
 Alpha  occ. eigenvalues --   -0.49987  -0.49366  -0.49358  -0.49264  -0.48972
 Alpha  occ. eigenvalues --   -0.48580  -0.48354  -0.48143  -0.47373  -0.47207
 Alpha  occ. eigenvalues --   -0.46618  -0.46454  -0.46245  -0.46167  -0.45776
 Alpha  occ. eigenvalues --   -0.45387  -0.44974  -0.44795  -0.44617  -0.44561
 Alpha  occ. eigenvalues --   -0.44187  -0.43929  -0.43233  -0.43037  -0.42934
 Alpha  occ. eigenvalues --   -0.42681  -0.42398  -0.42265  -0.42102  -0.41567
 Alpha  occ. eigenvalues --   -0.41068  -0.40611  -0.40278  -0.39861  -0.39701
 Alpha  occ. eigenvalues --   -0.38908  -0.37649  -0.37516  -0.37082  -0.37015
 Alpha  occ. eigenvalues --   -0.36631  -0.34760  -0.34413  -0.33200  -0.31415
 Alpha  occ. eigenvalues --   -0.31205  -0.30981  -0.30266  -0.29605  -0.24143
 Alpha  occ. eigenvalues --   -0.20832
 Alpha virt. eigenvalues --   -0.08186  -0.01808   0.00275   0.01649   0.02051
 Alpha virt. eigenvalues --    0.03435   0.05033   0.05220   0.07265   0.07683
 Alpha virt. eigenvalues --    0.08610   0.08796   0.09198   0.09449   0.10215

 Mulliken charges:
               1
     1  Mg   0.851598
     2  C   -0.100169
     3  C   -0.078316
     4  C   -0.099244
     5  C   -0.088970
     6  N   -0.279379
     7  C   -0.081179
     8  C   -0.019344
     9  C   -0.002818
    10  C   -0.000089
    11  C    0.073887
    12  C    0.027096
    13  C   -0.064899
    14  H    0.020882
    15  N   -0.362131
    16  C    0.140217
    17  C   -0.140677
    18  C   -0.078376
    19  C    0.187268
    20  C    0.142637
    21  C    0.026519
    22  O   -0.197134
    23  C    0.035350
    24  N   -0.347408
    25  C    0.055850
    26  C   -0.054222
    27  C   -0.028373
    28  C    0.061112
    29  C    0.055236
    30  C    0.021387
    31  C    0.018571
    32  N   -0.317880
    33  C    0.107217
    34  C   -0.195294
    35  C   -0.057889
    36  C    0.233656
    37  C    0.136020
    38  C    0.071817
    39  O   -0.182079
    40  C    0.008147
    41  C    0.252103
    42  O   -0.249969
    43  O   -0.351338
    44  C    0.193051
    45  H   -0.033196
    46  H   -0.057979
    47  H   -0.041237
    48  H    0.023642
    49  H    0.018846
    50  H    0.021276
    51  H    0.018759
    52  H    0.026163
    53  H    0.015704
    54  H    0.022978
    55  H    0.041904
    56  H    0.033122
    57  H    0.040404
    58  H    0.001798
    59  H    0.020843
    60  H    0.054661
    61  H    0.038697
    62  H    0.026076
    63  H    0.018362
    64  H    0.011704
    65  H    0.016646
    66  H    0.016003
    67  H    0.011105
    68  H    0.024245
    69  H    0.000206
    70  H    0.028356
    71  H    0.019645
    72  H    0.018976
    73  H    0.013663
    74  H    0.031449
    75  H    0.042857
    76  H    0.030564
    77  H    0.050924
    78  H    0.016627
    79  H    0.033761
 Sum of Mulliken charges =  -0.00000

 Dipole moment (field-independent basis, Debye):
    X=             -2.2574    Y=             -0.2810    Z=             -0.8541  Tot=              2.4298
 Quadrupole moment (field-independent basis, Debye-Ang):
   XX=           -256.1188   YY=           -249.9024   ZZ=           -260.8524
   XY=            -47.7721   XZ=              0.9092   YZ=              3.9614

 Normal termination of Gaussian 16 at Wed Sep 15 16:10:33 2021.
