 Gaussian 16, Revision A.03,
 Gaussian 16:  ES64L-G16RevA.03 25-Dec-2016

 -----------------------------------
 #p cam-b3lyp/Def2SVP td=(nstates=5)
 -----------------------------------

 --------------------------------
 TDDFT excited states in gaussian
 --------------------------------
 Symbolic Z-matrix:
 Charge =  0 Multiplicity = 1

                         Standard orientation:
 ---------------------------------------------------------------------
 Center     Atomic      Atomic             Coordinates (Angstroms)
 Number     Number       Type             X           Y           Z
 ---------------------------------------------------------------------
      1         12           0      -17.614089   -0.753928    0.099971
      2          6           0      -17.521317    2.437455   -1.169000
      3          6           0      -17.102520    0.632540    3.336579
      4          6           0      -17.144162   -3.826556    1.429555
      5          6           0      -17.760982   -2.070378   -2.981590
      6          7           0      -17.338488    1.313743    0.974573
      7          6           0      -17.330010    2.453485    0.216103
      8          6           0      -17.238403    3.700580    1.098318
      9          6           0      -16.905495    3.038673    2.514443
     10          6           0      -17.122580    1.573227    2.274641
     11          6           0      -15.493478    3.424227    3.089991
     12          6           0      -18.581673    4.563346    1.130533
     13          6           0      -18.583647    6.070555    1.042734
     14          1           0      -17.631767    6.830485    1.896544
     15          7           0      -17.229554   -1.537368    2.128353
     16          6           0      -17.237564   -0.844959    3.288612
     17          6           0      -17.213007   -1.716060    4.415569
     18          6           0      -17.257528   -3.045567    3.889193
     19          6           0      -17.139055   -2.823651    2.417101
     20          6           0      -17.112706   -1.117254    5.781362
     21          6           0      -17.183547   -4.367038    4.634963
     22          8           0      -16.949340   -5.436657    4.063874
     23          6           0      -17.379903   -4.407992    6.140285
     24          7           0      -17.315041   -2.710374   -0.686714
     25          6           0      -17.271788   -3.828949    0.083960
     26          6           0      -17.367612   -5.084629   -0.780977
     27          6           0      -17.746563   -4.488572   -2.189838
     28          6           0      -17.610251   -2.997996   -1.949505
     29          6           0      -16.219361   -6.136273   -0.808495
     30          6           0      -19.134908   -4.942565   -2.806926
     31          6           0      -20.383908   -4.119280   -2.573377
     32          7           0      -17.538563   -0.026384   -1.707658
     33          6           0      -17.750002   -0.624073   -2.924186
     34          6           0      -17.695472    0.280939   -4.013776
     35          6           0      -17.655815    1.516199   -3.374689
     36          6           0      -17.585162    1.275195   -1.978439
     37          6           0      -17.786407    0.102372   -5.523672
     38          6           0      -17.610021    2.901794   -3.548357
     39          8           0      -17.571760    3.528780   -4.591034
     40          6           0      -17.493482    3.637755   -2.098007
     41          6           0      -16.249417    4.397279   -2.081430
     42          8           0      -15.099185    3.918625   -2.134736
     43          8           0      -16.437678    5.743212   -2.051856
     44          6           0      -15.302791    6.624176   -2.349662
     45          1           0      -17.031451    1.174511    4.281528
     46          1           0      -17.281893   -4.825292    1.848599
     47          1           0      -18.169839   -2.424065   -3.929605
     48          1           0      -16.478715    4.361902    0.679675
     49          1           0      -17.587530    3.391497    3.288219
     50          1           0      -15.651205    3.913486    4.050549
     51          1           0      -15.033317    4.024451    2.304890
     52          1           0      -14.859252    2.583131    3.371660
     53          1           0      -18.998002    4.265482    2.093007
     54          1           0      -19.333370    4.139956    0.465192
     55          1           0      -19.600528    6.448337    1.148959
     56          1           0      -18.225696    6.300698    0.039887
     57          1           0      -17.845703   -1.660616    6.376546
     58          1           0      -17.435909   -0.076017    5.772341
     59          1           0      -16.133063   -1.163113    6.258291
     60          1           0      -18.193391   -3.776866    6.499300
     61          1           0      -16.414842   -4.305150    6.638346
     62          1           0      -17.709922   -5.428735    6.335701
     63          1           0      -18.165519   -5.650852   -0.300042
     64          1           0      -17.098157   -4.848058   -2.987980
     65          1           0      -15.703339   -6.106653   -1.768046
     66          1           0      -16.696688   -7.109467   -0.695033
     67          1           0      -15.569166   -5.883406    0.028284
     68          1           0      -19.327298   -5.944291   -2.425106
     69          1           0      -19.049616   -5.013253   -3.891518
     70          1           0      -21.202897   -4.725589   -2.185687
     71          1           0      -20.738992   -3.601684   -3.465498
     72          1           0      -20.088935   -3.372081   -1.836614
     73          1           0      -17.952857   -0.951956   -5.747850
     74          1           0      -16.865829    0.464088   -5.982405
     75          1           0      -18.621269    0.698104   -5.891665
     76          1           0      -18.334224    4.328558   -2.167905
     77          1           0      -15.589915    7.614133   -2.704396
     78          1           0      -14.520735    6.189722   -2.971625
     79          1           0      -14.884642    6.876973   -1.375196
     80         12           0       17.685905   -0.545318   -0.252903
     81          6           0       15.185402    1.809558    0.043757
     82          6           0       19.991300    2.132817    0.330744
     83          6           0       20.161092   -2.589563   -0.842542
     84          6           0       15.372067   -2.960927   -1.133917
     85          7           0       17.553767    1.802073   -0.061145
     86          6           0       16.429369    2.425445    0.248755
     87          6           0       16.719867    3.793599    0.927988
     88          6           0       18.197077    4.019161    0.450578
     89          6           0       18.670169    2.576439    0.211087
     90          6           0       18.279091    4.898642   -0.847506
     91          6           0       16.573871    3.556631    2.447640
     92          6           0       16.668169    4.796898    3.346681
     93          1           0       17.139014    6.119034    2.774783
     94          7           0       19.757239   -0.386691   -0.173314
     95          6           0       20.497863    0.808768    0.123835
     96          6           0       21.886670    0.393268    0.265358
     97          6           0       21.924350   -1.016727    0.030320
     98          6           0       20.578477   -1.406694   -0.387507
     99          6           0       23.073564    1.347530    0.663917
    100          6           0       23.151526   -1.970280    0.210116
    101          8           0       23.037091   -3.110386   -0.148054
    102          6           0       24.436328   -1.457789    0.775263
    103          7           0       17.749425   -2.549218   -0.816094
    104          6           0       18.912498   -3.212898   -1.003289
    105          6           0       18.717105   -4.643726   -1.503332
    106          6           0       17.178362   -4.789373   -1.457543
    107          6           0       16.725883   -3.313515   -1.108061
    108          6           0       19.323394   -4.958820   -2.920048
    109          6           0       16.611634   -5.896741   -0.606125
    110          6           0       17.109219   -6.134564    0.840050
    111          7           0       15.689985   -0.650125   -0.531070
    112          6           0       14.866339   -1.683342   -0.875692
    113          6           0       13.506522   -1.198112   -0.769388
    114          6           0       13.533662    0.183932   -0.375510
    115          6           0       14.924415    0.456256   -0.260833
    116          6           0       12.295428   -2.032954   -1.046740
    117          6           0       12.776132    1.363405   -0.123135
    118          8           0       11.551325    1.612339   -0.157898
    119          6           0       13.906799    2.530218   -0.108098
    120          6           0       13.476660    3.536028    0.960977
    121          8           0       13.221065    3.279806    2.075107
    122          8           0       13.401900    4.766896    0.373613
    123          6           0       13.369706    5.930793    1.235206
    124          1           0       20.688767    2.964976    0.442976
    125          1           0       20.948871   -3.300353   -1.100752
    126          1           0       14.594127   -3.670590   -1.420521
    127          1           0       16.102667    4.595173    0.522489
    128          1           0       18.677015    4.467334    1.320912
    129          1           0       18.610823    5.901993   -0.583258
    130          1           0       17.289570    4.909236   -1.304896
    131          1           0       19.018023    4.545049   -1.566626
    132          1           0       17.406531    2.925526    2.757178
    133          1           0       15.704457    2.944448    2.685364
    134          1           0       17.082500    4.581971    4.331941
    135          1           0       15.642506    4.963231    3.676529
    136          1           0       23.920348    1.263640   -0.017919
    137          1           0       23.320648    1.090085    1.693730
    138          1           0       22.711004    2.374744    0.718137
    139          1           0       24.848486   -2.355091    1.237401
    140          1           0       24.285358   -0.761935    1.599757
    141          1           0       25.090394   -0.821894    0.178723
    142          1           0       19.203886   -5.270026   -0.756074
    143          1           0       16.732387   -4.904903   -2.445374
    144          1           0       18.633304   -5.665220   -3.380665
    145          1           0       20.271531   -5.432121   -2.664008
    146          1           0       19.531377   -4.035040   -3.459841
    147          1           0       17.048416   -6.759281   -1.108340
    148          1           0       15.526249   -5.985687   -0.549080
    149          1           0       17.583810   -7.087072    1.072081
    150          1           0       16.277959   -6.178392    1.543706
    151          1           0       17.832809   -5.361954    1.100446
    152          1           0       11.446056   -1.359356   -0.936641
    153          1           0       12.189661   -2.802558   -0.280955
    154          1           0       12.320477   -2.596134   -1.979175
    155          1           0       13.913406    2.922185   -1.125372
    156          1           0       12.466428    6.297454    0.747401
    157          1           0       14.285832    6.521313    1.211689
    158          1           0       13.133382    5.714074    2.277301
 ---------------------------------------------------------------------

 SCF Done:  E(RCAM-B3LYP) =  -4069.82809389     A.U. after   19 cycles

 Excitation energies and oscillator strengths:

 Excited State   1:      Singlet-A      1.7199 eV  720.86 nm  f=0.4160  <S**2>=0.000
     309 -> 316        0.17811
     311 -> 313        0.68656
     309 <- 316        0.10694
 This state for optimization and/or second-order correction.
 Total Energy, E(TD-HF/TD-DFT) =  -4069.76488692
 Copying the excited state density for this state as the 1-particle RhoCI density.

 Excited State   2:      Singlet-A      1.7339 eV  715.08 nm  f=0.3758  <S**2>=0.000
     310 -> 315       -0.19618
     312 -> 314        0.68088
     310 <- 315       -0.11069

 Excited State   3:      Singlet-A      2.1904 eV  566.02 nm  f=0.1723  <S**2>=0.000
     309 -> 313        0.66246
     311 -> 316       -0.23740

 Excited State   4:      Singlet-A      2.2194 eV  558.64 nm  f=0.0935  <S**2>=0.000
     310 -> 314        0.63501
     312 -> 315        0.29924

 Excited State   5:      Singlet-A      3.0076 eV  412.24 nm  f=0.0000  <S**2>=0.000
     312 -> 313        0.70710

 The electronic state is 1-A.
 Alpha  occ. eigenvalues --  -46.89065 -46.88242 -19.25034 -19.24357 -19.20233
 Alpha  occ. eigenvalues --  -19.19072 -19.18987 -19.18832 -19.18557 -19.18487
 Alpha  occ. eigenvalues --  -14.42092 -14.41707 -14.41703 -14.41500 -14.39537
 Alpha  occ. eigenvalues --  -14.39460 -14.39280 -14.39247 -10.38898 -10.38888
 Alpha  occ. eigenvalues --  -10.35322 -10.35251 -10.35028 -10.34484 -10.31581
 Alpha  occ. eigenvalues --  -10.31435 -10.31032 -10.30834 -10.30686 -10.30593
 Alpha  occ. eigenvalues --  -10.30564 -10.30401 -10.30386 -10.30256 -10.30087
 Alpha  occ. eigenvalues --  -10.30032 -10.30010 -10.29841 -10.29597 -10.29286
 Alpha  occ. eigenvalues --  -10.28981 -10.28968 -10.28748 -10.28572 -10.28540
 Alpha  occ. eigenvalues --  -10.28431 -10.28413 -10.28317 -10.28232 -10.28051
 Alpha  occ. eigenvalues --  -10.27965 -10.27957 -10.27933 -10.27776 -10.27755
 Alpha  occ. eigenvalues --  -10.27668 -10.27640 -10.27629 -10.27598 -10.27556
 Alpha  occ. eigenvalues --  -10.27555 -10.27460 -10.27417 -10.27274 -10.26871
 Alpha  occ. eigenvalues --  -10.26827 -10.26717 -10.26565 -10.26531 -10.26440
 Alpha  occ. eigenvalues --  -10.26436 -10.26378 -10.26251 -10.26241 -10.26195
 Alpha  occ. eigenvalues --  -10.26186 -10.26138 -10.26018 -10.25759 -10.25717
 Alpha  occ. eigenvalues --  -10.25670 -10.25245 -10.25165 -10.25005 -10.24919
 Alpha  occ. eigenvalues --  -10.24579  -3.17674  -3.16879  -1.92557  -1.92090
 Alpha  occ. eigenvalues --   -1.92023  -1.91778  -1.91351  -1.91169  -1.17583
 Alpha  occ. eigenvalues --   -1.15817  -1.11500  -1.09850  -1.09772  -1.09418
 Alpha  occ. eigenvalues --   -1.07979  -1.05811  -1.05333  -1.05209  -1.04601
 Alpha  occ. eigenvalues --   -1.04113  -1.04055  -1.03439  -1.03026  -1.02050
 Alpha  occ. eigenvalues --   -0.92993  -0.92573  -0.89354  -0.88982  -0.88643
 Alpha  occ. eigenvalues --   -0.88513  -0.88217  -0.88161  -0.87741  -0.87378
 Alpha  occ. eigenvalues --   -0.87282  -0.86406  -0.86382  -0.85656  -0.84244
 Alpha  occ. eigenvalues --   -0.84042  -0.83727  -0.83710  -0.82643  -0.82404
 Alpha  occ. eigenvalues --   -0.81802  -0.81741  -0.81399  -0.81126  -0.80283
 Alpha  occ. eigenvalues --   -0.80255  -0.78350  -0.77970  -0.77439  -0.77335
 Alpha  occ. eigenvalues --   -0.77059  -0.76797  -0.76211  -0.75847  -0.75487
 Alpha  occ. eigenvalues --   -0.75453  -0.73502  -0.72658  -0.71981  -0.71505
 Alpha  occ. eigenvalues --   -0.70246  -0.69596  -0.69174  -0.68858  -0.68090
 Alpha  occ. eigenvalues --   -0.68082  -0.67090  -0.66179  -0.65594  -0.65164
 Alpha  occ. eigenvalues --   -0.65082  -0.64897  -0.64731  -0.64274  -0.64170
 Alpha  occ. eigenvalues --   -0.64131  -0.62346  -0.62203  -0.60484  -0.60140
 Alpha  occ. eigenvalues --   -0.59795  -0.59626  -0.59139  -0.59028  -0.58797
 Alpha  occ. eigenvalues --   -0.58254  -0.58119  -0.57894  -0.57872  -0.57254
 Alpha  occ. eigenvalues --   -0.56204  -0.56199  -0.56115  -0.55627  -0.55365
 Alpha  occ. eigenvalues --   -0.55326  -0.54942  -0.54840  -0.54202  -0.54034
 Alpha  occ. eigenvalues --   -0.53612  -0.53497  -0.53262  -0.53090  -0.52941
 Alpha  occ. eigenvalues --   -0.52750  -0.52559  -0.52370  -0.52286  -0.52183
 Alpha  occ. eigenvalues --   -0.52060  -0.52043  -0.51786  -0.51396  -0.50738
 Alpha  occ. eigenvalues --   -0.50718  -0.50695  -0.50526  -0.50232  -0.50125
 Alpha  occ. eigenvalues --   -0.49965  -0.49804  -0.49670  -0.49537  -0.49500
 Alpha  occ. eigenvalues --   -0.49301  -0.49289  -0.49191  -0.49053  -0.48756
 Alpha  occ. eigenvalues --   -0.48749  -0.48722  -0.48523  -0.48210  -0.48174
 Alpha  occ. eigenvalues --   -0.48117  -0.47954  -0.47785  -0.47616  -0.47507
 Alpha  occ. eigenvalues --   -0.47106  -0.46825  -0.46816  -0.46600  -0.46523
 Alpha  occ. eigenvalues --   -0.46481  -0.46128  -0.45934  -0.45920  -0.45848
 Alpha  occ. eigenvalues --   -0.45813  -0.45559  -0.45275  -0.45183  -0.44987
 Alpha  occ. eigenvalues --   -0.44950  -0.44718  -0.44445  -0.43903  -0.43888
 Alpha  occ. eigenvalues --   -0.43838  -0.43589  -0.43338  -0.43332  -0.43240
 Alpha  occ. eigenvalues --   -0.43173  -0.42955  -0.42924  -0.42835  -0.42673
 Alpha  occ. eigenvalues --   -0.42283  -0.42186  -0.42064  -0.41969  -0.41855
 Alpha  occ. eigenvalues --   -0.41842  -0.41786  -0.41546  -0.41478  -0.41410
 Alpha  occ. eigenvalues --   -0.41279  -0.41073  -0.40968  -0.40582  -0.40201
 Alpha  occ. eigenvalues --   -0.39952  -0.39797  -0.39532  -0.39484  -0.39419
 Alpha  occ. eigenvalues --   -0.38475  -0.38377  -0.38195  -0.37930  -0.37487
 Alpha  occ. eigenvalues --   -0.37303  -0.37107  -0.36569  -0.36363  -0.35989
 Alpha  occ. eigenvalues --   -0.35828  -0.35628  -0.35110  -0.34515  -0.33937
 Alpha  occ. eigenvalues --   -0.33396  -0.33321  -0.32842  -0.31558  -0.31295
 Alpha  occ. eigenvalues --   -0.31180  -0.30988  -0.30849  -0.30394  -0.30378
 Alpha  occ. eigenvalues --   -0.30054  -0.29796  -0.29339  -0.23795  -0.23785
 Alpha  occ. eigenvalues --   -0.21426  -0.21072
 Alpha virt. eigenvalues --   -0.09045  -0.08411  -0.01863  -0.01151   0.00214
 Alpha virt. eigenvalues --    0.00267   0.01884   0.02515   0.02633   0.03049
 Alpha virt. eigenvalues --    0.04802   0.05358   0.05877   0.06092   0.06192

 Mulliken charges:
               1
     1  Mg   0.838564
     2  C    0.011581
     3  C   -0.053513
     4  C   -0.054109
     5  C   -0.074685
     6  N   -0.259001
     7  C   -0.044590
     8  C   -0.039950
     9  C   -0.067792
    10  C    0.025091
    11  C    0.071330
    12  C    0.050810
    13  C   -0.046911
    14  H    0.016677
    15  N   -0.276102
    16  C    0.108819
    17  C   -0.140158
    18  C   -0.038901
    19  C    0.073835
    20  C    0.126632
    21  C   -0.001518
    22  O   -0.216472
    23  C    0.046172
    24  N   -0.278489
    25  C    0.028295
    26  C   -0.031852
    27  C    0.005493
    28  C    0.043833
    29  C    0.083017
    30  C   -0.011472
    31  C    0.012534
    32  N   -0.385135
    33  C    0.091411
    34  C   -0.180235
    35  C    0.092695
    36  C    0.102484
    37  C    0.138695
    38  C   -0.042521
    39  O   -0.171712
    40  C    0.016087
    41  C    0.193088
    42  O   -0.252815
    43  O   -0.327455
    44  C    0.186347
    45  H   -0.035427
    46  H   -0.008374
    47  H   -0.024030
    48  H    0.024631
    49  H    0.018060
    50  H    0.010034
    51  H    0.028681
    52  H    0.019133
    53  H   -0.011601
    54  H    0.007763
    55  H    0.032175
    56  H    0.033353
    57  H    0.009116
    58  H    0.014659
    59  H    0.039686
    60  H    0.033168
    61  H    0.047686
    62  H    0.024793
    63  H    0.009773
    64  H    0.009941
    65  H    0.015202
    66  H    0.018480
    67  H    0.029911
    68  H    0.004372
    69  H    0.004776
    70  H    0.014745
    71  H    0.015358
    72  H    0.016087
    73  H    0.004372
    74  H    0.043869
    75  H    0.038501
    76  H    0.030512
    77  H    0.035018
    78  H    0.058333
    79  H    0.019144
    80  Mg   0.826075
    81  C   -0.012379
    82  C   -0.069429
    83  C   -0.074890
    84  C   -0.110738
    85  N   -0.226791
    86  C   -0.083292
    87  C   -0.038287
    88  C   -0.040656
    89  C    0.001531
    90  C    0.086684
    91  C    0.038272
    92  C   -0.033794
    93  H    0.030023
    94  N   -0.395495
    95  C    0.163733
    96  C   -0.171009
    97  C   -0.041666
    98  C    0.168868
    99  C    0.109761
   100  C    0.017382
   101  O   -0.181351
   102  C    0.052869
   103  N   -0.266012
   104  C   -0.012129
   105  C   -0.046945
   106  C   -0.006090
   107  C    0.066914
   108  C    0.084005
   109  C    0.038649
   110  C   -0.018426
   111  N   -0.393985
   112  C    0.127049
   113  C   -0.170445
   114  C    0.015107
   115  C    0.149503
   116  C    0.114101
   117  C    0.076164
   118  O   -0.199636
   119  C   -0.076680
   120  C    0.177552
   121  O   -0.154527
   122  O   -0.338130
   123  C    0.149818
   124  H   -0.021780
   125  H   -0.018216
   126  H   -0.032740
   127  H   -0.002258
   128  H   -0.002043
   129  H    0.017237
   130  H    0.023496
   131  H    0.018036
   132  H    0.001258
   133  H    0.042104
   134  H    0.018669
   135  H    0.015676
   136  H    0.037158
   137  H    0.036333
   138  H    0.006394
   139  H    0.032679
   140  H   -0.000072
   141  H    0.047117
   142  H    0.021784
   143  H    0.003791
   144  H    0.024786
   145  H    0.025971
   146  H    0.031887
   147  H    0.004409
   148  H    0.015919
   149  H    0.010586
   150  H    0.010212
   151  H    0.020191
   152  H    0.037383
   153  H    0.019416
   154  H    0.024934
   155  H    0.054968
   156  H    0.050969
   157  H    0.046094
   158  H    0.046373
 Sum of Mulliken charges =  -0.00000

 Dipole moment (field-independent basis, Debye):
    X=              1.4609    Y=              1.0404    Z=              3.5992  Tot=              4.0213
 Quadrupole moment (field-independent basis, Debye-Ang):
   XX=           -289.6421   YY=           -476.8992   ZZ=           -502.2535
   XY=             39.5459   XZ=            -41.1046   YZ=             33.9832

 Normal termination of Gaussian 16 at Fri Sep  3 03:35:35 2021.
