 Gaussian 16, Revision A.03,
 Gaussian 16:  ES64L-G16RevA.03 25-Dec-2016

 -----------------------------------
 #p cam-b3lyp/Def2SVP td=(nstates=5)
 -----------------------------------

 --------------------------------
 TDDFT excited states in gaussian
 --------------------------------
 Symbolic Z-matrix:
 Charge =  0 Multiplicity = 1

                         Standard orientation:
 ---------------------------------------------------------------------
 Center     Atomic      Atomic             Coordinates (Angstroms)
 Number     Number       Type             X           Y           Z
 ---------------------------------------------------------------------
      1         12           0      -13.415985    0.663963   -0.025654
      2          6           0      -11.654236   -1.812591   -1.572447
      3          6           0      -14.693598   -1.758698    2.213170
      4          6           0      -15.339812    3.019538    1.375556
      5          6           0      -12.059712    2.937422   -2.214417
      6          7           0      -13.458552   -1.554451    0.102438
      7          6           0      -12.539441   -2.346331   -0.597720
      8          6           0      -12.619290   -3.840778   -0.175574
      9          6           0      -13.653225   -3.712290    0.974498
     10          6           0      -14.027974   -2.245350    1.083951
     11          6           0      -14.956782   -4.617893    1.025897
     12          6           0      -11.261435   -4.526677    0.293812
     13          6           0      -11.475092   -6.002864    0.723583
     14          1           0      -10.900064   -7.011098   -0.272235
     15          7           0      -14.817328    0.630794    1.644770
     16          6           0      -14.987382   -0.406888    2.535853
     17          6           0      -15.993654    0.050450    3.486991
     18          6           0      -16.179176    1.446163    3.225628
     19          6           0      -15.422312    1.780898    2.060566
     20          6           0      -16.536280   -0.861880    4.518410
     21          6           0      -17.191927    2.339437    4.023740
     22          8           0      -17.519939    3.492056    3.676168
     23          6           0      -17.885174    1.785955    5.241343
     24          7           0      -13.673670    2.571972   -0.367261
     25          6           0      -14.568270    3.413470    0.352011
     26          6           0      -14.740799    4.742801   -0.347275
     27          6           0      -13.415890    4.814402   -1.104029
     28          6           0      -12.961646    3.365891   -1.214470
     29          6           0      -15.986946    4.778644   -1.294421
     30          6           0      -12.328552    5.596692   -0.333961
     31          6           0      -12.280535    7.093611   -0.483668
     32          7           0      -12.138612    0.674905   -1.643900
     33          6           0      -11.551858    1.659860   -2.342958
     34          6           0      -10.674924    1.089944   -3.322765
     35          6           0      -10.652747   -0.263912   -3.063136
     36          6           0      -11.535386   -0.472449   -1.991965
     37          6           0       -9.912785    1.920101   -4.295864
     38          6           0      -10.074518   -1.471265   -3.474836
     39          8           0       -9.244997   -1.721884   -4.327750
     40          6           0      -10.713411   -2.566191   -2.497854
     41          6           0      -11.375982   -3.598184   -3.340005
     42          8           0      -12.357697   -3.458106   -4.028043
     43          8           0      -10.834535   -4.803961   -3.142993
     44          6           0      -11.458040   -5.953117   -3.905845
     45          1           0      -14.918916   -2.527585    2.954932
     46          1           0      -15.956340    3.799708    1.826508
     47          1           0      -11.492527    3.611411   -2.859232
     48          1           0      -13.049444   -4.409091   -1.000311
     49          1           0      -13.162385   -3.914721    1.926913
     50          1           0      -15.278437   -4.945940    2.014700
     51          1           0      -14.891199   -5.402003    0.271385
     52          1           0      -15.758189   -3.941071    0.729958
     53          1           0      -10.903213   -3.861213    1.078306
     54          1           0      -10.552770   -4.478351   -0.532862
     55          1           0      -12.523765   -6.170404    0.969185
     56          1           0      -10.903467   -6.141850    1.640734
     57          1           0      -17.581431   -1.055763    4.276467
     58          1           0      -16.302140   -0.397771    5.476485
     59          1           0      -15.984451   -1.801875    4.532641
     60          1           0      -18.500955    2.559230    5.700656
     61          1           0      -17.072073    1.617720    5.948839
     62          1           0      -18.459330    0.869019    5.111004
     63          1           0      -14.857373    5.554174    0.371719
     64          1           0      -13.511003    5.234405   -2.105144
     65          1           0      -15.806089    4.205410   -2.202872
     66          1           0      -16.247230    5.808986   -1.538251
     67          1           0      -16.800474    4.344213   -0.714483
     68          1           0      -11.323190    5.222040   -0.522038
     69          1           0      -12.407361    5.374211    0.730271
     70          1           0      -12.417164    7.509608    0.514111
     71          1           0      -13.208869    7.315958   -1.010070
     72          1           0      -11.409911    7.468248   -1.022209
     73          1           0       -8.899982    2.093453   -3.934246
     74          1           0      -10.376031    2.831292   -4.675576
     75          1           0       -9.800344    1.287932   -5.176841
     76          1           0       -9.907481   -3.019077   -1.919927
     77          1           0      -12.532109   -5.908730   -3.724212
     78          1           0      -11.125005   -6.931284   -3.557904
     79          1           0      -11.229521   -5.812114   -4.962482
     80         12           0       13.568462    0.597853   -0.057189
     81          6           0       11.171827   -1.787743    0.550172
     82          6           0       15.969310   -2.019893   -0.264452
     83          6           0       16.110074    2.826073   -0.127316
     84          6           0       11.366014    3.072222    0.469464
     85          7           0       13.558633   -1.656295    0.129531
     86          6           0       12.428637   -2.381395    0.397301
     87          6           0       12.715405   -3.883911    0.350923
     88          6           0       14.312211   -3.879466    0.283464
     89          6           0       14.647317   -2.437539    0.037066
     90          6           0       15.011819   -4.528568    1.533631
     91          6           0       12.055485   -4.624352   -0.900489
     92          6           0       11.361117   -5.959818   -0.783127
     93          1           0       12.036941   -7.044430   -0.021917
     94          7           0       15.765235    0.458367   -0.232429
     95          6           0       16.498181   -0.649596   -0.479213
     96          6           0       17.849883   -0.322270   -0.787778
     97          6           0       17.920893    1.106575   -0.788280
     98          6           0       16.567640    1.506130   -0.298997
     99          6           0       18.828544   -1.434425   -0.986154
    100          6           0       19.134685    1.998740   -0.984961
    101          8           0       19.129630    3.197438   -0.688014
    102          6           0       20.423616    1.424161   -1.545982
    103          7           0       13.753294    2.689710    0.297715
    104          6           0       14.898243    3.388282    0.078376
    105          6           0       14.629101    4.891673    0.115889
    106          6           0       13.054133    4.946155    0.132755
    107          6           0       12.689057    3.484629    0.302514
    108          6           0       15.321788    5.810506    1.165234
    109          6           0       12.351981    5.673640   -1.088784
    110          6           0       11.908439    4.882088   -2.300832
    111          7           0       11.703082    0.677358    0.505469
    112          6           0       10.827241    1.731788    0.559870
    113          6           0        9.514187    1.354782    0.938000
    114          6           0        9.579455   -0.034525    0.900099
    115          6           0       10.921139   -0.393627    0.611101
    116          6           0        8.239409    2.143450    1.207969
    117          6           0        8.871410   -1.225988    1.076797
    118          8           0        7.709252   -1.368588    1.409669
    119          6           0        9.872204   -2.498516    0.882334
    120          6           0        9.886283   -3.250366    2.131083
    121          8           0       10.322338   -2.842478    3.225828
    122          8           0        9.314456   -4.479371    2.029039
    123          6           0        8.975678   -5.207471    3.256987
    124          1           0       16.594582   -2.905630   -0.391799
    125          1           0       16.852217    3.568304   -0.427910
    126          1           0       10.576729    3.802460    0.282995
    127          1           0       12.266860   -4.346100    1.231219
    128          1           0       14.676779   -4.489972   -0.542828
    129          1           0       15.615284   -5.362876    1.177702
    130          1           0       14.191929   -4.771191    2.209881
    131          1           0       15.761465   -3.906558    2.023689
    132          1           0       12.918244   -4.731900   -1.558129
    133          1           0       11.457286   -3.932348   -1.492329
    134          1           0       11.046056   -6.303472   -1.768362
    135          1           0       10.476077   -5.771475   -0.176475
    136          1           0       19.390417   -1.153498   -1.876182
    137          1           0       18.313875   -2.364385   -1.229065
    138          1           0       19.510287   -1.631565   -0.158128
    139          1           0       20.277479    0.736971   -2.379881
    140          1           0       21.059412    1.083608   -0.727587
    141          1           0       20.930527    2.286887   -1.979296
    142          1           0       15.083864    5.243292   -0.810457
    143          1           0       12.662516    5.574218    0.932045
    144          1           0       14.596243    6.156675    1.901200
    145          1           0       15.700564    6.670096    0.612552
    146          1           0       16.114914    5.207436    1.605859
    147          1           0       13.049043    6.436293   -1.433339
    148          1           0       11.450288    6.181245   -0.745418
    149          1           0       12.292511    5.309528   -3.227353
    150          1           0       10.825055    4.794002   -2.392432
    151          1           0       12.322864    3.885687   -2.147306
    152          1           0        8.432611    3.202587    1.033403
    153          1           0        7.918428    1.963506    2.234286
    154          1           0        7.464361    1.788994    0.529020
    155          1           0        9.318408   -3.062088    0.130910
    156          1           0        8.187579   -5.949852    3.130261
    157          1           0        8.802709   -4.589557    4.137591
    158          1           0        9.831786   -5.857190    3.439426
 ---------------------------------------------------------------------

 SCF Done:  E(RCAM-B3LYP) =  -4069.85664571     A.U. after   18 cycles

 Excitation energies and oscillator strengths:

 Excited State   1:      Singlet-A      1.6534 eV  749.88 nm  f=0.4117  <S**2>=0.000
     309 -> 315       -0.16003
     312 -> 314        0.69046
     309 <- 315       -0.10383
 This state for optimization and/or second-order correction.
 Total Energy, E(TD-HF/TD-DFT) =  -4069.79588447
 Copying the excited state density for this state as the 1-particle RhoCI density.

 Excited State   2:      Singlet-A      1.7200 eV  720.85 nm  f=0.4018  <S**2>=0.000
     310 -> 316       -0.17804
     311 -> 313        0.68623
     310 <- 316       -0.10689

 Excited State   3:      Singlet-A      2.1905 eV  566.02 nm  f=0.1713  <S**2>=0.000
     310 -> 313        0.66245
     311 -> 316        0.23742

 Excited State   4:      Singlet-A      2.2510 eV  550.79 nm  f=0.1093  <S**2>=0.000
     309 -> 314        0.63835
     312 -> 315        0.28836

 Excited State   5:      Singlet-A      2.9175 eV  424.96 nm  f=0.0000  <S**2>=0.000
     312 -> 313        0.70706

 The electronic state is 1-A.
 Alpha  occ. eigenvalues --  -46.89108 -46.87470 -19.25086 -19.24885 -19.19341
 Alpha  occ. eigenvalues --  -19.18875 -19.18709 -19.18600 -19.18539 -19.18524
 Alpha  occ. eigenvalues --  -14.42687 -14.42136 -14.41709 -14.41544 -14.39581
 Alpha  occ. eigenvalues --  -14.39502 -14.38833 -14.38818 -10.38950 -10.38497
 Alpha  occ. eigenvalues --  -10.35364 -10.35185 -10.34906 -10.34527 -10.32263
 Alpha  occ. eigenvalues --  -10.32021 -10.31638 -10.31326 -10.31076 -10.30878
 Alpha  occ. eigenvalues --  -10.30531 -10.30429 -10.30130 -10.30075 -10.30053
 Alpha  occ. eigenvalues --  -10.29979 -10.29884 -10.29529 -10.29432 -10.29234
 Alpha  occ. eigenvalues --  -10.29011 -10.28961 -10.28948 -10.28579 -10.28566
 Alpha  occ. eigenvalues --  -10.28457 -10.28447 -10.28359 -10.28276 -10.28064
 Alpha  occ. eigenvalues --  -10.28022 -10.28008 -10.28003 -10.27976 -10.27755
 Alpha  occ. eigenvalues --  -10.27724 -10.27684 -10.27501 -10.27460 -10.27423
 Alpha  occ. eigenvalues --  -10.27341 -10.27328 -10.27316 -10.27089 -10.26914
 Alpha  occ. eigenvalues --  -10.26866 -10.26734 -10.26639 -10.26607 -10.26502
 Alpha  occ. eigenvalues --  -10.26420 -10.26320 -10.26231 -10.26180 -10.26133
 Alpha  occ. eigenvalues --  -10.26070 -10.25806 -10.25715 -10.25713 -10.25546
 Alpha  occ. eigenvalues --  -10.25495 -10.25208 -10.25072 -10.25036 -10.24984
 Alpha  occ. eigenvalues --  -10.24622  -3.17717  -3.16250  -1.92600  -1.92133
 Alpha  occ. eigenvalues --   -1.92066  -1.91152  -1.90721  -1.90548  -1.16881
 Alpha  occ. eigenvalues --   -1.15870  -1.10404  -1.09893  -1.09460  -1.08251
 Alpha  occ. eigenvalues --   -1.07111  -1.05863  -1.05408  -1.05377  -1.04643
 Alpha  occ. eigenvalues --   -1.04156  -1.03890  -1.03482  -1.03069  -1.01929
 Alpha  occ. eigenvalues --   -0.93301  -0.92617  -0.89053  -0.89024  -0.88747
 Alpha  occ. eigenvalues --   -0.88629  -0.88259  -0.88203  -0.87874  -0.87784
 Alpha  occ. eigenvalues --   -0.87421  -0.87140  -0.86538  -0.86425  -0.84296
 Alpha  occ. eigenvalues --   -0.84288  -0.83939  -0.83769  -0.82686  -0.82498
 Alpha  occ. eigenvalues --   -0.81844  -0.81551  -0.81183  -0.81171  -0.80606
 Alpha  occ. eigenvalues --   -0.80327  -0.78392  -0.78355  -0.77527  -0.77482
 Alpha  occ. eigenvalues --   -0.77185  -0.77104  -0.76257  -0.76181  -0.75497
 Alpha  occ. eigenvalues --   -0.75173  -0.73545  -0.73188  -0.71779  -0.71550
 Alpha  occ. eigenvalues --   -0.69635  -0.69414  -0.69217  -0.68922  -0.68288
 Alpha  occ. eigenvalues --   -0.68132  -0.67132  -0.66051  -0.65767  -0.65638
 Alpha  occ. eigenvalues --   -0.65125  -0.64925  -0.64773  -0.64592  -0.64214
 Alpha  occ. eigenvalues --   -0.64154  -0.62251  -0.62053  -0.60222  -0.60183
 Alpha  occ. eigenvalues --   -0.59961  -0.59839  -0.59085  -0.59071  -0.58849
 Alpha  occ. eigenvalues --   -0.58299  -0.58294  -0.57987  -0.57917  -0.57296
 Alpha  occ. eigenvalues --   -0.56519  -0.56247  -0.56052  -0.55413  -0.54994
 Alpha  occ. eigenvalues --   -0.54985  -0.54882  -0.54725  -0.54216  -0.54082
 Alpha  occ. eigenvalues --   -0.53436  -0.53321  -0.53307  -0.53135  -0.52908
 Alpha  occ. eigenvalues --   -0.52793  -0.52685  -0.52597  -0.52256  -0.52226
 Alpha  occ. eigenvalues --   -0.52088  -0.51733  -0.51638  -0.51441  -0.51297
 Alpha  occ. eigenvalues --   -0.50761  -0.50569  -0.50340  -0.50274  -0.50221
 Alpha  occ. eigenvalues --   -0.49956  -0.49871  -0.49846  -0.49702  -0.49543
 Alpha  occ. eigenvalues --   -0.49241  -0.49235  -0.49097  -0.48915  -0.48802
 Alpha  occ. eigenvalues --   -0.48765  -0.48729  -0.48568  -0.48232  -0.48216
 Alpha  occ. eigenvalues --   -0.48054  -0.47829  -0.47711  -0.47550  -0.47471
 Alpha  occ. eigenvalues --   -0.47148  -0.47091  -0.46898  -0.46859  -0.46524
 Alpha  occ. eigenvalues --   -0.46490  -0.46424  -0.46171  -0.46002  -0.45962
 Alpha  occ. eigenvalues --   -0.45892  -0.45821  -0.45467  -0.45320  -0.45242
 Alpha  occ. eigenvalues --   -0.44993  -0.44664  -0.44491  -0.44195  -0.43946
 Alpha  occ. eigenvalues --   -0.43929  -0.43723  -0.43682  -0.43628  -0.43523
 Alpha  occ. eigenvalues --   -0.43375  -0.43306  -0.43216  -0.42968  -0.42816
 Alpha  occ. eigenvalues --   -0.42233  -0.41975  -0.41885  -0.41830  -0.41780
 Alpha  occ. eigenvalues --   -0.41596  -0.41524  -0.41521  -0.41324  -0.41117
 Alpha  occ. eigenvalues --   -0.41095  -0.40849  -0.40627  -0.40608  -0.40381
 Alpha  occ. eigenvalues --   -0.40014  -0.39992  -0.39838  -0.39789  -0.39525
 Alpha  occ. eigenvalues --   -0.38514  -0.38409  -0.38237  -0.38024  -0.37446
 Alpha  occ. eigenvalues --   -0.37345  -0.36903  -0.36633  -0.36611  -0.36536
 Alpha  occ. eigenvalues --   -0.36032  -0.35680  -0.34558  -0.34186  -0.33978
 Alpha  occ. eigenvalues --   -0.33448  -0.33246  -0.32885  -0.31428  -0.31338
 Alpha  occ. eigenvalues --   -0.31223  -0.31211  -0.30892  -0.30619  -0.30447
 Alpha  occ. eigenvalues --   -0.30421  -0.30096  -0.29065  -0.24575  -0.23838
 Alpha  occ. eigenvalues --   -0.21469  -0.21083
 Alpha virt. eigenvalues --   -0.09088  -0.09037  -0.01513  -0.01194   0.00224
 Alpha virt. eigenvalues --    0.00440   0.01845   0.02390   0.02472   0.03453
 Alpha virt. eigenvalues --    0.04694   0.04752   0.05396   0.06148   0.06251

 Mulliken charges:
               1
     1  Mg   0.828586
     2  C    0.007527
     3  C   -0.059492
     4  C   -0.069249
     5  C   -0.093641
     6  N   -0.267927
     7  C   -0.051150
     8  C    0.020176
     9  C   -0.103956
    10  C    0.038316
    11  C    0.063735
    12  C    0.034981
    13  C   -0.056585
    14  H    0.031763
    15  N   -0.358581
    16  C    0.139240
    17  C   -0.203047
    18  C   -0.035947
    19  C    0.110417
    20  C    0.139560
    21  C    0.019205
    22  O   -0.225673
    23  C    0.056042
    24  N   -0.391540
    25  C    0.083640
    26  C   -0.019334
    27  C   -0.020655
    28  C    0.118515
    29  C    0.088234
    30  C   -0.004973
    31  C    0.053352
    32  N   -0.339604
    33  C    0.089731
    34  C   -0.168136
    35  C    0.069314
    36  C    0.103929
    37  C    0.108012
    38  C    0.017720
    39  O   -0.153734
    40  C   -0.052478
    41  C    0.180634
    42  O   -0.217142
    43  O   -0.331491
    44  C    0.179243
    45  H   -0.027507
    46  H   -0.006638
    47  H   -0.026971
    48  H    0.017511
    49  H    0.009535
    50  H    0.020268
    51  H    0.021690
    52  H    0.015328
    53  H    0.011123
    54  H    0.033070
    55  H    0.029927
    56  H    0.029453
    57  H    0.042839
    58  H    0.027722
    59  H    0.001120
    60  H    0.024351
    61  H    0.024902
    62  H    0.039933
    63  H    0.000214
    64  H   -0.003901
    65  H    0.020408
    66  H    0.019159
    67  H    0.019127
    68  H   -0.002419
    69  H   -0.003803
    70  H    0.012719
    71  H   -0.002572
    72  H    0.028738
    73  H    0.038495
    74  H    0.023560
    75  H    0.027346
    76  H    0.043391
    77  H    0.041420
    78  H    0.041636
    79  H    0.051291
    80  Mg   0.838572
    81  C    0.011633
    82  C   -0.053553
    83  C   -0.054121
    84  C   -0.074738
    85  N   -0.258996
    86  C   -0.044622
    87  C   -0.039978
    88  C   -0.067755
    89  C    0.025078
    90  C    0.071346
    91  C    0.050764
    92  C   -0.046882
    93  H    0.016536
    94  N   -0.276118
    95  C    0.108832
    96  C   -0.140184
    97  C   -0.038853
    98  C    0.073773
    99  C    0.126609
   100  C   -0.001538
   101  O   -0.216481
   102  C    0.046156
   103  N   -0.278512
   104  C    0.028273
   105  C   -0.031847
   106  C    0.005476
   107  C    0.043859
   108  C    0.083012
   109  C   -0.011459
   110  C    0.012502
   111  N   -0.385139
   112  C    0.091430
   113  C   -0.180237
   114  C    0.092704
   115  C    0.102477
   116  C    0.138690
   117  C   -0.042459
   118  O   -0.171680
   119  C    0.016056
   120  C    0.193089
   121  O   -0.252981
   122  O   -0.327375
   123  C    0.186420
   124  H   -0.035455
   125  H   -0.008345
   126  H   -0.023961
   127  H    0.024536
   128  H    0.018122
   129  H    0.010036
   130  H    0.028568
   131  H    0.019015
   132  H   -0.011534
   133  H    0.007905
   134  H    0.032339
   135  H    0.033328
   136  H    0.009183
   137  H    0.014698
   138  H    0.039582
   139  H    0.033238
   140  H    0.047609
   141  H    0.024847
   142  H    0.009845
   143  H    0.009881
   144  H    0.015130
   145  H    0.018538
   146  H    0.029828
   147  H    0.004401
   148  H    0.004775
   149  H    0.014847
   150  H    0.015447
   151  H    0.016077
   152  H    0.004383
   153  H    0.043719
   154  H    0.038687
   155  H    0.030675
   156  H    0.035036
   157  H    0.058170
   158  H    0.019071
 Sum of Mulliken charges =  -0.00000

 Dipole moment (field-independent basis, Debye):
    X=              2.3029    Y=             -3.3866    Z=             -0.1860  Tot=              4.0996
 Quadrupole moment (field-independent basis, Debye-Ang):
   XX=           -490.7458   YY=           -459.3318   ZZ=           -523.0178
   XY=              0.5177   XZ=            -83.1335   YZ=            -23.3410

 Normal termination of Gaussian 16 at Thu Sep  2 12:02:00 2021.
