 Gaussian 16, Revision A.03,
 Gaussian 16:  ES64L-G16RevA.03 25-Dec-2016

 -----------------------------------
 #p cam-b3lyp/Def2SVP td=(nstates=5)
 -----------------------------------

 --------------------------------
 TDDFT excited states in gaussian
 --------------------------------
 Symbolic Z-matrix:
 Charge =  0 Multiplicity = 1

                         Standard orientation:
 ---------------------------------------------------------------------
 Center     Atomic      Atomic             Coordinates (Angstroms)
 Number     Number       Type             X           Y           Z
 ---------------------------------------------------------------------
      1         12           0      -24.844633    0.560596   -0.029491
      2          6           0      -21.724579   -0.621489    0.790112
      3          6           0      -26.213862   -2.445544    1.292613
      4          6           0      -27.905126    1.325569   -1.245169
      5          6           0      -23.525412    3.232297   -1.569722
      6          7           0      -24.043516   -1.324237    0.930594
      7          6           0      -22.709139   -1.552886    1.134356
      8          6           0      -22.485675   -2.857378    1.902669
      9          6           0      -23.954076   -3.486427    1.853091
     10          6           0      -24.797910   -2.362444    1.327002
     11          6           0      -24.050942   -4.834128    1.048095
     12          6           0      -21.966648   -2.640537    3.397115
     13          6           0      -20.865275   -3.474819    4.005673
     14          1           0      -20.923565   -4.952083    3.841800
     15          7           0      -26.838075   -0.386223    0.046019
     16          6           0      -27.201745   -1.472908    0.761948
     17          6           0      -28.616687   -1.637761    0.776604
     18          6           0      -29.152753   -0.520479    0.061792
     19          6           0      -27.929417    0.150629   -0.470561
     20          6           0      -29.189468   -2.850408    1.436473
     21          6           0      -30.599896   -0.223034   -0.292094
     22          8           0      -30.913886    0.613327   -1.144731
     23          6           0      -31.725684   -0.977116    0.393612
     24          7           0      -25.610684    2.010047   -1.388992
     25          6           0      -26.937329    2.190411   -1.622448
     26          6           0      -27.179379    3.492111   -2.384695
     27          6           0      -25.763357    4.181125   -2.322100
     28          6           0      -24.905714    3.086754   -1.717983
     29          6           0      -27.839382    3.491631   -3.795223
     30          6           0      -25.682626    5.580478   -1.580679
     31          6           0      -25.332942    5.649750   -0.109194
     32          7           0      -23.031807    1.155568   -0.432253
     33          6           0      -22.570623    2.341141   -0.945677
     34          6           0      -21.156341    2.420238   -0.998364
     35          6           0      -20.766977    1.294714   -0.279016
     36          6           0      -21.941252    0.574825    0.060728
     37          6           0      -20.189473    3.465259   -1.539694
     38          6           0      -19.685328    0.556158    0.207507
     39          8           0      -18.497093    0.780260    0.067413
     40          6           0      -20.224267   -0.796022    0.942278
     41          6           0      -19.665329   -1.941529    0.234992
     42          8           0      -19.912020   -2.265158   -0.943733
     43          8           0      -18.767180   -2.646913    0.972293
     44          6           0      -17.901175   -3.618231    0.294553
     45          1           0      -26.522168   -3.360610    1.801842
     46          1           0      -28.901602    1.742759   -1.403375
     47          1           0      -23.098247    4.225346   -1.719295
     48          1           0      -21.697873   -3.420521    1.400701
     49          1           0      -24.297696   -3.772404    2.847338
     50          1           0      -24.415664   -5.600706    1.730928
     51          1           0      -23.051395   -4.979589    0.638037
     52          1           0      -24.809651   -4.856133    0.265216
     53          1           0      -22.884737   -2.801803    3.962370
     54          1           0      -21.805375   -1.583211    3.604573
     55          1           0      -20.721228   -3.196819    5.049712
     56          1           0      -19.966834   -3.217590    3.445822
     57          1           0      -30.022850   -2.475482    2.029496
     58          1           0      -28.478386   -3.279016    2.143138
     59          1           0      -29.528655   -3.646730    0.773081
     60          1           0      -31.582394   -1.109759    1.466388
     61          1           0      -31.978338   -1.865335   -0.187089
     62          1           0      -32.582790   -0.308770    0.305869
     63          1           0      -27.948273    3.983738   -1.788318
     64          1           0      -25.407976    4.503996   -3.299929
     65          1           0      -27.104283    3.753867   -4.555982
     66          1           0      -28.610078    4.261823   -3.769662
     67          1           0      -28.246129    2.489855   -3.929003
     68          1           0      -26.656312    6.051616   -1.708028
     69          1           0      -24.942650    6.213872   -2.070434
     70          1           0      -26.062733    6.231578    0.454309
     71          1           0      -24.344207    6.067286    0.085578
     72          1           0      -25.340551    4.612598    0.226054
     73          1           0      -20.759572    4.310033   -1.928171
     74          1           0      -19.572753    3.013010   -2.316781
     75          1           0      -19.544944    3.793609   -0.724783
     76          1           0      -19.730353   -0.696001    1.909225
     77          1           0      -16.973680   -3.832947    0.825534
     78          1           0      -17.719843   -3.429023   -0.763048
     79          1           0      -18.416611   -4.572629    0.403147
     80         12           0       25.051927    0.033618    0.297216
     81          6           0       21.741114   -1.091338   -0.110745
     82          6           0       25.644293   -1.132738   -2.924977
     83          6           0       28.069347    1.440572    0.382182
     84          6           0       23.969600    1.881959    3.027710
     85          7           0       23.720876   -0.853417   -1.364356
     86          6           0       22.435200   -1.353999   -1.298431
     87          6           0       22.052209   -2.308893   -2.409526
     88          6           0       23.316427   -2.339861   -3.301169
     89          6           0       24.297348   -1.393457   -2.534461
     90          6           0       23.916056   -3.785897   -3.533509
     91          6           0       20.762774   -1.925707   -3.264316
     92          6           0       20.446059   -0.434345   -3.462142
     93          1           0       20.759569    0.210474   -4.844711
     94          7           0       26.601592    0.125929   -1.051011
     95          6           0       26.681232   -0.457595   -2.283442
     96          6           0       28.025356   -0.261561   -2.844583
     97          6           0       28.760294    0.494341   -1.880638
     98          6           0       27.781263    0.727768   -0.774938
     99          6           0       28.466057   -0.816514   -4.193871
    100          6           0       30.223012    0.962144   -2.226669
    101          8           0       30.665393    0.687342   -3.333391
    102          6           0       31.046229    1.842079   -1.194645
    103          7           0       25.830856    1.524942    1.437217
    104          6           0       27.186351    1.844113    1.402457
    105          6           0       27.569570    2.860892    2.619722
    106          6           0       26.113576    3.047725    3.313552
    107          6           0       25.267806    2.085667    2.543065
    108          6           0       28.655451    2.276583    3.570511
    109          6           0       25.520741    4.520826    3.261006
    110          6           0       25.028037    5.171768    4.562744
    111          7           0       23.254859    0.272619    1.380050
    112          6           0       22.928672    1.053497    2.459163
    113          6           0       21.494156    0.862362    2.760132
    114          6           0       21.037798   -0.088467    1.808247
    115          6           0       22.158000   -0.359983    0.973940
    116          6           0       20.679894    1.539705    3.827378
    117          6           0       19.818217   -0.778120    1.346901
    118          8           0       18.672739   -0.865926    1.812768
    119          6           0       20.313171   -1.618492    0.179169
    120          6           0       20.213403   -3.018346    0.421361
    121          8           0       21.053564   -3.634862    1.126587
    122          8           0       19.108182   -3.581034   -0.247382
    123          6           0       18.958379   -5.032641   -0.234396
    124          1           0       25.938341   -1.625806   -3.853537
    125          1           0       29.096429    1.784160    0.518799
    126          1           0       23.725209    2.447083    3.929082
    127          1           0       21.877646   -3.239025   -1.870037
    128          1           0       23.053158   -1.780179   -4.197963
    129          1           0       23.769170   -4.076215   -4.573780
    130          1           0       23.371054   -4.446840   -2.859011
    131          1           0       24.986749   -3.810901   -3.328092
    132          1           0       19.969659   -2.347405   -2.645568
    133          1           0       20.793878   -2.459863   -4.214230
    134          1           0       20.950150    0.168603   -2.706132
    135          1           0       19.390804   -0.281505   -3.239800
    136          1           0       28.509191   -0.081956   -4.998055
    137          1           0       27.939336   -1.741676   -4.428177
    138          1           0       29.471073   -1.233200   -4.129770
    139          1           0       30.953879    1.355735   -0.223245
    140          1           0       30.602473    2.837296   -1.190595
    141          1           0       32.052307    2.093767   -1.530146
    142          1           0       28.047668    3.719546    2.149244
    143          1           0       26.201568    2.679242    4.335849
    144          1           0       28.137179    1.801749    4.403334
    145          1           0       29.394004    3.017855    3.875944
    146          1           0       29.305250    1.536773    3.103316
    147          1           0       24.732035    4.510252    2.508036
    148          1           0       26.383336    5.084207    2.905175
    149          1           0       24.344999    6.000329    4.373525
    150          1           0       25.957848    5.522265    5.010180
    151          1           0       24.538300    4.357558    5.097310
    152          1           0       21.198179    2.483622    3.994029
    153          1           0       20.849474    0.895163    4.689860
    154          1           0       19.608183    1.592389    3.633397
    155          1           0       19.637679   -1.299099   -0.614124
    156          1           0       18.770967   -5.508930    0.727995
    157          1           0       19.842211   -5.501396   -0.668070
    158          1           0       18.209820   -5.269337   -0.990705
 ---------------------------------------------------------------------

 SCF Done:  E(RCAM-B3LYP) =  -4069.82488733     A.U. after   19 cycles

 Excitation energies and oscillator strengths:

 Excited State   1:      Singlet-A      1.7179 eV  721.74 nm  f=0.5172  <S**2>=0.000
     309 -> 315       -0.17711
     311 -> 313        0.14942
     312 -> 314        0.66865
     309 <- 315       -0.10532
 This state for optimization and/or second-order correction.
 Total Energy, E(TD-HF/TD-DFT) =  -4069.76175744
 Copying the excited state density for this state as the 1-particle RhoCI density.

 Excited State   2:      Singlet-A      1.7200 eV  720.83 nm  f=0.2766  <S**2>=0.000
     310 -> 316        0.17387
     311 -> 313        0.67011
     312 -> 314       -0.14905
     310 <- 316        0.10438

 Excited State   3:      Singlet-A      2.1905 eV  566.01 nm  f=0.1753  <S**2>=0.000
     310 -> 313        0.66247
     311 -> 316       -0.23743

 Excited State   4:      Singlet-A      2.3104 eV  536.64 nm  f=0.0713  <S**2>=0.000
     309 -> 314        0.61632
     312 -> 315        0.33583

 Excited State   5:      Singlet-A      3.0037 eV  412.78 nm  f=0.0000  <S**2>=0.000
     312 -> 313        0.70710

 The electronic state is 1-A.
 Alpha  occ. eigenvalues --  -46.89102 -46.88920 -19.25785 -19.25072 -19.20229
 Alpha  occ. eigenvalues --  -19.19609 -19.19186 -19.18869 -19.18593 -19.18526
 Alpha  occ. eigenvalues --  -14.42631 -14.42129 -14.42077 -14.41537 -14.39952
 Alpha  occ. eigenvalues --  -14.39574 -14.39496 -14.39308 -10.40016 -10.38937
 Alpha  occ. eigenvalues --  -10.36488 -10.35358 -10.35343 -10.34520 -10.32107
 Alpha  occ. eigenvalues --  -10.31873 -10.31620 -10.31342 -10.31069 -10.30930
 Alpha  occ. eigenvalues --  -10.30871 -10.30632 -10.30579 -10.30423 -10.30123
 Alpha  occ. eigenvalues --  -10.30082 -10.30069 -10.30046 -10.29877 -10.29833
 Alpha  occ. eigenvalues --  -10.29294 -10.29005 -10.28991 -10.28573 -10.28457
 Alpha  occ. eigenvalues --  -10.28450 -10.28364 -10.28353 -10.28300 -10.28300
 Alpha  occ. eigenvalues --  -10.28298 -10.28268 -10.28025 -10.28001 -10.27996
 Alpha  occ. eigenvalues --  -10.27970 -10.27754 -10.27735 -10.27677 -10.27495
 Alpha  occ. eigenvalues --  -10.27463 -10.27453 -10.27382 -10.27310 -10.27147
 Alpha  occ. eigenvalues --  -10.27135 -10.26908 -10.26861 -10.26789 -10.26725
 Alpha  occ. eigenvalues --  -10.26653 -10.26601 -10.26579 -10.26564 -10.26412
 Alpha  occ. eigenvalues --  -10.26227 -10.26175 -10.26061 -10.26050 -10.25852
 Alpha  occ. eigenvalues --  -10.25708 -10.25451 -10.25202 -10.25167 -10.25035
 Alpha  occ. eigenvalues --  -10.24616  -3.17711  -3.17547  -1.92593  -1.92405
 Alpha  occ. eigenvalues --   -1.92127  -1.92060  -1.92018  -1.91851  -1.15856
 Alpha  occ. eigenvalues --   -1.14964  -1.10410  -1.09885  -1.09454  -1.09049
 Alpha  occ. eigenvalues --   -1.07015  -1.05850  -1.05370  -1.04637  -1.04150
 Alpha  occ. eigenvalues --   -1.04140  -1.03541  -1.03475  -1.02607  -1.01873
 Alpha  occ. eigenvalues --   -0.93127  -0.92610  -0.89159  -0.89018  -0.88840
 Alpha  occ. eigenvalues --   -0.88253  -0.88197  -0.88043  -0.87778  -0.87415
 Alpha  occ. eigenvalues --   -0.86800  -0.86418  -0.86074  -0.85555  -0.84517
 Alpha  occ. eigenvalues --   -0.84281  -0.83908  -0.83762  -0.82794  -0.82679
 Alpha  occ. eigenvalues --   -0.81838  -0.81656  -0.81162  -0.81003  -0.80319
 Alpha  occ. eigenvalues --   -0.80076  -0.78386  -0.78162  -0.77475  -0.77211
 Alpha  occ. eigenvalues --   -0.77096  -0.76764  -0.76514  -0.76248  -0.75490
 Alpha  occ. eigenvalues --   -0.74897  -0.73539  -0.72326  -0.71744  -0.71543
 Alpha  occ. eigenvalues --   -0.69630  -0.69286  -0.69210  -0.68904  -0.68427
 Alpha  occ. eigenvalues --   -0.68126  -0.67126  -0.66804  -0.65773  -0.65631
 Alpha  occ. eigenvalues --   -0.65181  -0.65118  -0.64766  -0.64572  -0.64207
 Alpha  occ. eigenvalues --   -0.64194  -0.62434  -0.62240  -0.60226  -0.60177
 Alpha  occ. eigenvalues --   -0.59831  -0.59616  -0.59065  -0.59059  -0.58646
 Alpha  occ. eigenvalues --   -0.58291  -0.57909  -0.57733  -0.57290  -0.57178
 Alpha  occ. eigenvalues --   -0.56240  -0.56136  -0.55597  -0.55402  -0.54978
 Alpha  occ. eigenvalues --   -0.54940  -0.54876  -0.54424  -0.54186  -0.54071
 Alpha  occ. eigenvalues --   -0.53757  -0.53299  -0.53127  -0.53078  -0.52787
 Alpha  occ. eigenvalues --   -0.52610  -0.52593  -0.52336  -0.52220  -0.52118
 Alpha  occ. eigenvalues --   -0.52080  -0.51555  -0.51433  -0.51179  -0.50939
 Alpha  occ. eigenvalues --   -0.50754  -0.50702  -0.50563  -0.50294  -0.50268
 Alpha  occ. eigenvalues --   -0.49973  -0.49840  -0.49536  -0.49351  -0.49343
 Alpha  occ. eigenvalues --   -0.49249  -0.49228  -0.49090  -0.48958  -0.48793
 Alpha  occ. eigenvalues --   -0.48759  -0.48565  -0.48559  -0.48339  -0.48210
 Alpha  occ. eigenvalues --   -0.48130  -0.47821  -0.47544  -0.47359  -0.47193
 Alpha  occ. eigenvalues --   -0.47141  -0.46853  -0.46604  -0.46518  -0.46440
 Alpha  occ. eigenvalues --   -0.46231  -0.46164  -0.46152  -0.45956  -0.45885
 Alpha  occ. eigenvalues --   -0.45761  -0.45373  -0.45312  -0.44986  -0.44959
 Alpha  occ. eigenvalues --   -0.44780  -0.44603  -0.44547  -0.44482  -0.44173
 Alpha  occ. eigenvalues --   -0.43939  -0.43923  -0.43915  -0.43623  -0.43369
 Alpha  occ. eigenvalues --   -0.43218  -0.43209  -0.43022  -0.42960  -0.42920
 Alpha  occ. eigenvalues --   -0.42667  -0.42383  -0.42250  -0.42224  -0.42087
 Alpha  occ. eigenvalues --   -0.41878  -0.41823  -0.41553  -0.41515  -0.41315
 Alpha  occ. eigenvalues --   -0.41110  -0.41054  -0.40620  -0.40597  -0.40264
 Alpha  occ. eigenvalues --   -0.39987  -0.39848  -0.39832  -0.39688  -0.39519
 Alpha  occ. eigenvalues --   -0.38892  -0.38509  -0.38231  -0.37633  -0.37501
 Alpha  occ. eigenvalues --   -0.37338  -0.37067  -0.37001  -0.36615  -0.36605
 Alpha  occ. eigenvalues --   -0.36026  -0.35666  -0.34746  -0.34552  -0.34397
 Alpha  occ. eigenvalues --   -0.33436  -0.33186  -0.32879  -0.31402  -0.31332
 Alpha  occ. eigenvalues --   -0.31217  -0.31190  -0.30966  -0.30886  -0.30414
 Alpha  occ. eigenvalues --   -0.30252  -0.30090  -0.29590  -0.24129  -0.23831
 Alpha  occ. eigenvalues --   -0.21463  -0.20818
 Alpha virt. eigenvalues --   -0.09082  -0.08172  -0.01794  -0.01188   0.00230
 Alpha virt. eigenvalues --    0.00290   0.01665   0.01850   0.02065   0.02479
 Alpha virt. eigenvalues --    0.03451   0.04764   0.05048   0.05235   0.06154

 Mulliken charges:
               1
     1  Mg   0.838518
     2  C    0.011619
     3  C   -0.053534
     4  C   -0.054110
     5  C   -0.074701
     6  N   -0.258995
     7  C   -0.044618
     8  C   -0.039992
     9  C   -0.067771
    10  C    0.025073
    11  C    0.071346
    12  C    0.050802
    13  C   -0.046907
    14  H    0.016635
    15  N   -0.276102
    16  C    0.108801
    17  C   -0.140181
    18  C   -0.038866
    19  C    0.073776
    20  C    0.126618
    21  C   -0.001544
    22  O   -0.216478
    23  C    0.046159
    24  N   -0.278479
    25  C    0.028267
    26  C   -0.031848
    27  C    0.005469
    28  C    0.043841
    29  C    0.083015
    30  C   -0.011457
    31  C    0.012515
    32  N   -0.385119
    33  C    0.091405
    34  C   -0.180242
    35  C    0.092708
    36  C    0.102449
    37  C    0.138699
    38  C   -0.042504
    39  O   -0.171655
    40  C    0.016085
    41  C    0.193117
    42  O   -0.252923
    43  O   -0.327420
    44  C    0.186364
    45  H   -0.035449
    46  H   -0.008356
    47  H   -0.023979
    48  H    0.024599
    49  H    0.018099
    50  H    0.010038
    51  H    0.028616
    52  H    0.019036
    53  H   -0.011570
    54  H    0.007814
    55  H    0.032254
    56  H    0.033356
    57  H    0.009158
    58  H    0.014684
    59  H    0.039603
    60  H    0.033215
    61  H    0.047627
    62  H    0.024832
    63  H    0.009815
    64  H    0.009926
    65  H    0.015166
    66  H    0.018524
    67  H    0.029844
    68  H    0.004398
    69  H    0.004798
    70  H    0.014799
    71  H    0.015397
    72  H    0.016072
    73  H    0.004397
    74  H    0.043837
    75  H    0.038581
    76  H    0.030587
    77  H    0.035095
    78  H    0.058264
    79  H    0.019089
    80  Mg   0.851618
    81  C   -0.100134
    82  C   -0.078309
    83  C   -0.099241
    84  C   -0.088974
    85  N   -0.279398
    86  C   -0.081157
    87  C   -0.019356
    88  C   -0.002822
    89  C   -0.000108
    90  C    0.073893
    91  C    0.027099
    92  C   -0.064910
    93  H    0.020900
    94  N   -0.362113
    95  C    0.140207
    96  C   -0.140677
    97  C   -0.078383
    98  C    0.187250
    99  C    0.142638
   100  C    0.026515
   101  O   -0.197142
   102  C    0.035348
   103  N   -0.347431
   104  C    0.055847
   105  C   -0.054211
   106  C   -0.028385
   107  C    0.061116
   108  C    0.055241
   109  C    0.021388
   110  C    0.018574
   111  N   -0.317885
   112  C    0.107230
   113  C   -0.195287
   114  C   -0.057886
   115  C    0.233643
   116  C    0.136019
   117  C    0.071844
   118  O   -0.182054
   119  C    0.008127
   120  C    0.252100
   121  O   -0.249982
   122  O   -0.351323
   123  C    0.193051
   124  H   -0.033194
   125  H   -0.057999
   126  H   -0.041245
   127  H    0.023638
   128  H    0.018856
   129  H    0.021282
   130  H    0.018760
   131  H    0.026147
   132  H    0.015718
   133  H    0.022988
   134  H    0.041894
   135  H    0.033148
   136  H    0.040404
   137  H    0.001798
   138  H    0.020829
   139  H    0.054657
   140  H    0.038698
   141  H    0.026060
   142  H    0.018358
   143  H    0.011693
   144  H    0.016638
   145  H    0.015988
   146  H    0.011097
   147  H    0.024257
   148  H    0.000200
   149  H    0.028362
   150  H    0.019631
   151  H    0.018973
   152  H    0.013662
   153  H    0.031440
   154  H    0.042878
   155  H    0.030588
   156  H    0.050920
   157  H    0.016614
   158  H    0.033785
 Sum of Mulliken charges =  -0.00000

 Dipole moment (field-independent basis, Debye):
    X=              0.0982    Y=             -0.3509    Z=              4.0462  Tot=              4.0625
 Quadrupole moment (field-independent basis, Debye-Ang):
   XX=           -325.9980   YY=           -461.2410   ZZ=           -507.7294
   XY=             32.0787   XZ=            -55.5353   YZ=             11.0261

 Normal termination of Gaussian 16 at Fri Sep  3 05:30:05 2021.
