 Gaussian 16, Revision A.03,
 Gaussian 16:  ES64L-G16RevA.03 25-Dec-2016

 -----------------------------------
 #p cam-b3lyp/Def2SVP td=(nstates=5)
 -----------------------------------

 --------------------------------
 TDDFT excited states in gaussian
 --------------------------------
 Symbolic Z-matrix:
 Charge =  0 Multiplicity = 1

                         Standard orientation:
 ---------------------------------------------------------------------
 Center     Atomic      Atomic             Coordinates (Angstroms)
 Number     Number       Type             X           Y           Z
 ---------------------------------------------------------------------
      1         12           0       21.357405   -0.806569    0.152112
      2          6           0       22.572054    2.286366   -0.873461
      3          6           0       18.213496    0.543513    0.341809
      4          6           0       20.287887   -3.767503    1.457189
      5          6           0       24.735042   -1.912971    0.124449
      6          7           0       20.501010    1.183437   -0.186739
      7          6           0       21.189685    2.241423   -0.718880
      8          6           0       20.164601    3.355197   -0.946254
      9          6           0       18.885247    2.880657   -0.280418
     10          6           0       19.215280    1.409302   -0.056447
     11          6           0       18.379073    3.577635    0.953881
     12          6           0       19.986275    3.829477   -2.466616
     13          6           0       18.795504    4.803050   -2.742065
     14          1           0       19.053975    6.330717   -2.667965
     15          7           0       19.480662   -1.532094    0.660320
     16          6           0       18.323564   -0.825768    0.702448
     17          6           0       17.312901   -1.719987    1.204443
     18          6           0       17.926152   -2.965288    1.530571
     19          6           0       19.281622   -2.802471    1.250322
     20          6           0       15.891086   -1.265467    1.325408
     21          6           0       17.238751   -4.178572    2.222007
     22          8           0       17.883238   -5.052558    2.773690
     23          6           0       15.798546   -4.308509    2.372993
     24          7           0       22.327399   -2.472423    0.667256
     25          6           0       21.692625   -3.615837    1.151400
     26          6           0       22.672211   -4.778592    1.387252
     27          6           0       23.971492   -4.240876    0.696643
     28          6           0       23.632313   -2.782099    0.438202
     29          6           0       22.728934   -5.328806    2.752152
     30          6           0       24.561640   -5.015702   -0.607770
     31          6           0       25.978166   -5.598042   -0.594175
     32          7           0       23.349540    0.030160   -0.239446
     33          6           0       24.582661   -0.556555   -0.184555
     34          6           0       25.608015    0.363666   -0.545132
     35          6           0       24.842252    1.534627   -0.915156
     36          6           0       23.472946    1.286347   -0.617629
     37          6           0       27.049582    0.028010   -0.602439
     38          6           0       24.952828    2.849303   -1.504233
     39          8           0       25.871250    3.489458   -1.977322
     40          6           0       23.408738    3.401679   -1.482621
     41          6           0       23.320760    4.748260   -0.862314
     42          8           0       23.541041    4.964994    0.309110
     43          8           0       22.955746    5.697733   -1.741579
     44          6           0       22.584103    7.053608   -1.181544
     45          1           0       17.201057    0.953208    0.352871
     46          1           0       19.919996   -4.703334    1.882615
     47          1           0       25.688025   -2.445628    0.154801
     48          1           0       20.636714    4.158984   -0.381502
     49          1           0       18.054224    2.995036   -0.975973
     50          1           0       18.627731    2.817725    1.694059
     51          1           0       17.322354    3.836787    0.886832
     52          1           0       18.986507    4.442331    1.221999
     53          1           0       19.818259    2.878088   -2.971768
     54          1           0       20.904420    4.299647   -2.816851
     55          1           0       17.981232    4.653123   -2.034243
     56          1           0       18.398881    4.571806   -3.730649
     57          1           0       15.630385   -0.277012    0.945851
     58          1           0       15.696245   -1.201840    2.395452
     59          1           0       15.175403   -1.993037    0.942091
     60          1           0       15.211753   -3.472602    2.752439
     61          1           0       15.462166   -5.186631    2.924065
     62          1           0       15.487939   -4.540022    1.354373
     63          1           0       22.196555   -5.499402    0.721647
     64          1           0       24.632839   -4.240486    1.562935
     65          1           0       22.408577   -6.362799    2.882764
     66          1           0       22.099785   -4.700548    3.383222
     67          1           0       23.729304   -5.344123    3.184548
     68          1           0       24.529496   -4.315483   -1.442275
     69          1           0       23.991787   -5.864199   -0.988379
     70          1           0       26.718370   -5.018399   -1.146346
     71          1           0       26.038245   -6.661977   -0.821615
     72          1           0       26.357020   -5.500539    0.423298
     73          1           0       27.310085   -0.528126    0.297779
     74          1           0       27.680301    0.904744   -0.747048
     75          1           0       27.167938   -0.757621   -1.349375
     76          1           0       23.133757    3.524845   -2.529649
     77          1           0       22.696579    7.695775   -2.054792
     78          1           0       23.278630    7.300982   -0.378965
     79          1           0       21.535879    6.992473   -0.888618
     80         12           0      -22.378664    0.367456   -0.311583
     81          6           0      -18.838367    0.524882    0.097321
     82          6           0      -21.807447   -2.002548   -2.562978
     83          6           0      -25.614615   -0.572623   -0.053947
     84          6           0      -22.554246    2.171557    2.756737
     85          7           0      -20.599743   -0.501933   -1.189789
     86          6           0      -19.231832   -0.244381   -0.954200
     87          6           0      -18.282944   -1.100599   -1.850778
     88          6           0      -19.310132   -1.863276   -2.734639
     89          6           0      -20.673593   -1.371510   -2.204447
     90          6           0      -18.978074   -1.549222   -4.202912
     91          6           0      -17.268922   -2.084566   -1.122484
     92          6           0      -15.784482   -1.770178   -1.267804
     93          1           0      -14.876658   -2.878066   -1.839913
     94          7           0      -23.571348   -0.982682   -1.217578
     95          6           0      -23.117301   -1.910825   -2.154411
     96          6           0      -24.197541   -2.623030   -2.707126
     97          6           0      -25.361936   -2.151694   -2.129345
     98          6           0      -24.928628   -1.228311   -1.100280
     99          6           0      -24.178971   -3.736986   -3.818720
    100          6           0      -26.736143   -2.624103   -2.542479
    101          8           0      -26.947686   -3.347042   -3.470253
    102          6           0      -27.962458   -1.974185   -1.731650
    103          7           0      -23.867520    0.676280    1.173024
    104          6           0      -25.141672    0.205859    1.007789
    105          6           0      -25.933890    0.544007    2.336454
    106          6           0      -25.056812    1.497570    3.164868
    107          6           0      -23.718824    1.446547    2.333134
    108          6           0      -27.359612    0.971109    2.131783
    109          6           0      -24.815990    0.896874    4.544223
    110          6           0      -24.451530    1.844317    5.656204
    111          7           0      -21.006491    1.410395    1.026929
    112          6           0      -21.238448    2.103607    2.190916
    113          6           0      -20.027466    2.649711    2.686293
    114          6           0      -18.990158    2.137688    1.871406
    115          6           0      -19.665995    1.288719    0.950063
    116          6           0      -19.835956    3.450186    3.911576
    117          6           0      -17.554074    2.034889    1.578995
    118          8           0      -16.611452    2.626891    2.121690
    119          6           0      -17.376629    1.004830    0.398256
    120          6           0      -16.936808    1.706820   -0.777938
    121          8           0      -17.728276    2.415785   -1.443461
    122          8           0      -15.617120    1.471605   -0.915540
    123          6           0      -14.940066    1.919605   -2.163303
    124          1           0      -21.656809   -2.759329   -3.336115
    125          1           0      -26.671100   -0.849061   -0.043570
    126          1           0      -22.558187    2.831405    3.626441
    127          1           0      -17.684797   -0.444761   -2.483315
    128          1           0      -19.292430   -2.942996   -2.589482
    129          1           0      -19.795223   -1.950001   -4.802002
    130          1           0      -18.046139   -1.969149   -4.581170
    131          1           0      -18.911247   -0.477480   -4.393348
    132          1           0      -17.380644   -3.021520   -1.668177
    133          1           0      -17.554795   -2.210969   -0.078206
    134          1           0      -15.419985   -1.471511   -0.284333
    135          1           0      -15.662671   -0.930973   -1.953547
    136          1           0      -24.715211   -4.584758   -3.391813
    137          1           0      -23.164253   -4.042346   -4.073599
    138          1           0      -24.560627   -3.440690   -4.795746
    139          1           0      -28.863533   -2.330118   -2.230231
    140          1           0      -27.777349   -0.904115   -1.828343
    141          1           0      -27.796297   -2.362608   -0.726897
    142          1           0      -25.986210   -0.420065    2.843577
    143          1           0      -25.425678    2.514389    3.299117
    144          1           0      -27.634538    1.643507    2.943974
    145          1           0      -27.949303    0.054267    2.144543
    146          1           0      -27.567967    1.391369    1.148570
    147          1           0      -24.063922    0.107361    4.541892
    148          1           0      -25.672925    0.323862    4.898310
    149          1           0      -24.591999    2.890683    5.385729
    150          1           0      -23.400875    1.682908    5.898249
    151          1           0      -24.943565    1.556412    6.585192
    152          1           0      -20.728731    4.024125    4.161882
    153          1           0      -19.002045    4.118135    3.694492
    154          1           0      -19.651101    2.724621    4.704047
    155          1           0      -16.774327    0.129665    0.642061
    156          1           0      -13.955562    2.168368   -1.764433
    157          1           0      -15.439220    2.746979   -2.666823
    158          1           0      -14.706720    1.077543   -2.815773
 ---------------------------------------------------------------------

 SCF Done:  E(RCAM-B3LYP) =  -4069.81387719     A.U. after   18 cycles

 Excitation energies and oscillator strengths:

 Excited State   1:      Singlet-A      1.6981 eV  730.13 nm  f=0.4081  <S**2>=0.000
     310 -> 315       -0.17918
     312 -> 313        0.68568
     310 <- 315       -0.10834
 This state for optimization and/or second-order correction.
 Total Energy, E(TD-HF/TD-DFT) =  -4069.75147280
 Copying the excited state density for this state as the 1-particle RhoCI density.

 Excited State   2:      Singlet-A      1.7225 eV  719.77 nm  f=0.3791  <S**2>=0.000
     309 -> 316       -0.17107
     311 -> 314        0.68736
     309 <- 316       -0.10385

 Excited State   3:      Singlet-A      2.2224 eV  557.88 nm  f=0.0946  <S**2>=0.000
     310 -> 313        0.63227
     312 -> 315        0.30140

 Excited State   4:      Singlet-A      2.2584 eV  548.99 nm  f=0.1173  <S**2>=0.000
     309 -> 314        0.63726
     311 -> 316        0.28973

 Excited State   5:      Singlet-A      3.1421 eV  394.60 nm  f=0.0000  <S**2>=0.000
     312 -> 314        0.70710

 The electronic state is 1-A.
 Alpha  occ. eigenvalues --  -46.88547 -46.87874 -19.26551 -19.24414 -19.19698
 Alpha  occ. eigenvalues --  -19.19682 -19.19077 -19.18773 -19.18657 -19.18253
 Alpha  occ. eigenvalues --  -14.42711 -14.42571 -14.42218 -14.42039 -14.39542
 Alpha  occ. eigenvalues --  -14.39045 -14.38505 -14.38435 -10.39549 -10.37962
 Alpha  occ. eigenvalues --  -10.35582 -10.35511 -10.35430 -10.34644 -10.32888
 Alpha  occ. eigenvalues --  -10.32102 -10.31673 -10.31595 -10.31530 -10.31124
 Alpha  occ. eigenvalues --  -10.31110 -10.31026 -10.30638 -10.30515 -10.30439
 Alpha  occ. eigenvalues --  -10.29802 -10.29694 -10.29654 -10.29605 -10.29055
 Alpha  occ. eigenvalues --  -10.28991 -10.28723 -10.28379 -10.28293 -10.28249
 Alpha  occ. eigenvalues --  -10.28177 -10.28135 -10.28109 -10.28069 -10.28061
 Alpha  occ. eigenvalues --  -10.27996 -10.27811 -10.27654 -10.27530 -10.27527
 Alpha  occ. eigenvalues --  -10.27519 -10.27349 -10.27257 -10.27223 -10.27212
 Alpha  occ. eigenvalues --  -10.27151 -10.27137 -10.27125 -10.27056 -10.27029
 Alpha  occ. eigenvalues --  -10.26957 -10.26948 -10.26938 -10.26874 -10.26860
 Alpha  occ. eigenvalues --  -10.26854 -10.26481 -10.26392 -10.26292 -10.26249
 Alpha  occ. eigenvalues --  -10.26152 -10.26036 -10.25876 -10.25787 -10.25743
 Alpha  occ. eigenvalues --  -10.25589 -10.25489 -10.25473 -10.25238 -10.25199
 Alpha  occ. eigenvalues --  -10.24873  -3.17145  -3.16534  -1.92022  -1.91581
 Alpha  occ. eigenvalues --   -1.91472  -1.91450  -1.90991  -1.90837  -1.16687
 Alpha  occ. eigenvalues --   -1.15842  -1.12015  -1.10980  -1.09487  -1.08705
 Alpha  occ. eigenvalues --   -1.07439  -1.06728  -1.05238  -1.04155  -1.04107
 Alpha  occ. eigenvalues --   -1.03313  -1.03217  -1.02872  -1.02349  -1.01782
 Alpha  occ. eigenvalues --   -0.92430  -0.92251  -0.89700  -0.89387  -0.89210
 Alpha  occ. eigenvalues --   -0.88747  -0.88708  -0.88330  -0.87568  -0.87369
 Alpha  occ. eigenvalues --   -0.86971  -0.86700  -0.86680  -0.86543  -0.84855
 Alpha  occ. eigenvalues --   -0.84639  -0.84276  -0.83703  -0.83335  -0.82639
 Alpha  occ. eigenvalues --   -0.82468  -0.81948  -0.81408  -0.81172  -0.80739
 Alpha  occ. eigenvalues --   -0.80348  -0.78791  -0.77793  -0.77765  -0.77415
 Alpha  occ. eigenvalues --   -0.77279  -0.76722  -0.76296  -0.75890  -0.75166
 Alpha  occ. eigenvalues --   -0.75146  -0.72790  -0.72776  -0.71813  -0.71760
 Alpha  occ. eigenvalues --   -0.69385  -0.69296  -0.68944  -0.68651  -0.68224
 Alpha  occ. eigenvalues --   -0.67795  -0.67280  -0.66915  -0.65736  -0.65638
 Alpha  occ. eigenvalues --   -0.65545  -0.65422  -0.65035  -0.64675  -0.64600
 Alpha  occ. eigenvalues --   -0.64201  -0.62279  -0.61421  -0.60527  -0.60182
 Alpha  occ. eigenvalues --   -0.59751  -0.59671  -0.59470  -0.58951  -0.58826
 Alpha  occ. eigenvalues --   -0.58559  -0.58249  -0.57955  -0.57297  -0.57182
 Alpha  occ. eigenvalues --   -0.56448  -0.56359  -0.56083  -0.55751  -0.55405
 Alpha  occ. eigenvalues --   -0.55012  -0.54781  -0.54732  -0.54571  -0.54316
 Alpha  occ. eigenvalues --   -0.53853  -0.53802  -0.53205  -0.53154  -0.52964
 Alpha  occ. eigenvalues --   -0.52911  -0.52589  -0.52514  -0.52440  -0.52343
 Alpha  occ. eigenvalues --   -0.52073  -0.51717  -0.51517  -0.51310  -0.51274
 Alpha  occ. eigenvalues --   -0.50988  -0.50840  -0.50611  -0.50490  -0.50387
 Alpha  occ. eigenvalues --   -0.50299  -0.50194  -0.50002  -0.49929  -0.49904
 Alpha  occ. eigenvalues --   -0.49434  -0.49342  -0.49210  -0.49135  -0.48988
 Alpha  occ. eigenvalues --   -0.48961  -0.48621  -0.48462  -0.48293  -0.48226
 Alpha  occ. eigenvalues --   -0.48100  -0.47719  -0.47552  -0.47519  -0.47446
 Alpha  occ. eigenvalues --   -0.47100  -0.46994  -0.46834  -0.46588  -0.46535
 Alpha  occ. eigenvalues --   -0.46456  -0.46332  -0.46248  -0.46125  -0.46062
 Alpha  occ. eigenvalues --   -0.45651  -0.45343  -0.45191  -0.45148  -0.45109
 Alpha  occ. eigenvalues --   -0.44960  -0.44796  -0.44771  -0.44403  -0.44356
 Alpha  occ. eigenvalues --   -0.44237  -0.44160  -0.44008  -0.43747  -0.43680
 Alpha  occ. eigenvalues --   -0.43504  -0.43367  -0.43325  -0.43118  -0.42834
 Alpha  occ. eigenvalues --   -0.42806  -0.42699  -0.42597  -0.42342  -0.41972
 Alpha  occ. eigenvalues --   -0.41954  -0.41823  -0.41698  -0.41675  -0.41505
 Alpha  occ. eigenvalues --   -0.41279  -0.40961  -0.40624  -0.40375  -0.40247
 Alpha  occ. eigenvalues --   -0.40196  -0.40147  -0.39502  -0.39274  -0.39195
 Alpha  occ. eigenvalues --   -0.38785  -0.38426  -0.38259  -0.37769  -0.37644
 Alpha  occ. eigenvalues --   -0.37258  -0.37258  -0.36882  -0.36741  -0.36286
 Alpha  occ. eigenvalues --   -0.36048  -0.36039  -0.34380  -0.34201  -0.34064
 Alpha  occ. eigenvalues --   -0.33980  -0.32980  -0.32968  -0.31826  -0.31305
 Alpha  occ. eigenvalues --   -0.30964  -0.30928  -0.30795  -0.30589  -0.30205
 Alpha  occ. eigenvalues --   -0.29715  -0.29044  -0.28966  -0.24308  -0.24202
 Alpha  occ. eigenvalues --   -0.21288  -0.21124
 Alpha virt. eigenvalues --   -0.08793  -0.08789  -0.01871  -0.01734   0.00531
 Alpha virt. eigenvalues --    0.00620   0.02148   0.02701   0.02734   0.03380
 Alpha virt. eigenvalues --    0.04513   0.04704   0.04709   0.05247   0.05599

 Mulliken charges:
               1
     1  Mg   0.828787
     2  C    0.048454
     3  C   -0.079072
     4  C   -0.067472
     5  C   -0.103373
     6  N   -0.255717
     7  C   -0.052031
     8  C   -0.000617
     9  C   -0.103456
    10  C    0.035595
    11  C    0.099454
    12  C    0.042556
    13  C   -0.062451
    14  H    0.013897
    15  N   -0.403934
    16  C    0.147248
    17  C   -0.142781
    18  C   -0.017902
    19  C    0.106307
    20  C    0.100422
    21  C    0.025240
    22  O   -0.202188
    23  C    0.059510
    24  N   -0.343342
    25  C    0.041659
    26  C   -0.041094
    27  C   -0.002479
    28  C    0.022965
    29  C    0.094415
    30  C    0.043912
    31  C   -0.014168
    32  N   -0.286854
    33  C    0.153000
    34  C   -0.160750
    35  C   -0.026713
    36  C    0.074253
    37  C    0.149296
    38  C    0.065580
    39  O   -0.154843
    40  C   -0.074525
    41  C    0.174486
    42  O   -0.224076
    43  O   -0.340826
    44  C    0.172988
    45  H   -0.041500
    46  H    0.001668
    47  H   -0.024259
    48  H    0.009401
    49  H   -0.002362
    50  H    0.017514
    51  H    0.021553
    52  H    0.015336
    53  H    0.009106
    54  H    0.039087
    55  H    0.023345
    56  H    0.035799
    57  H    0.015676
    58  H    0.027334
    59  H    0.025092
    60  H    0.036056
    61  H    0.023047
    62  H    0.027262
    63  H    0.010690
    64  H    0.008018
    65  H    0.017731
    66  H    0.025462
    67  H    0.006143
    68  H    0.012070
    69  H    0.010582
    70  H    0.018371
    71  H    0.023278
    72  H   -0.001753
    73  H    0.012728
    74  H    0.047932
    75  H    0.021397
    76  H    0.037229
    77  H    0.044532
    78  H    0.065046
    79  H    0.042029
    80  Mg   0.849668
    81  C   -0.035895
    82  C   -0.127577
    83  C   -0.088474
    84  C   -0.059141
    85  N   -0.306901
    86  C   -0.024905
    87  C   -0.013018
    88  C   -0.067178
    89  C    0.093631
    90  C    0.060691
    91  C    0.056389
    92  C   -0.082512
    93  H    0.016127
    94  N   -0.421948
    95  C    0.201587
    96  C   -0.158763
    97  C   -0.012241
    98  C    0.124724
    99  C    0.150612
   100  C   -0.039999
   101  O   -0.163459
   102  C    0.032943
   103  N   -0.321067
   104  C    0.081256
   105  C   -0.032064
   106  C   -0.024578
   107  C    0.083678
   108  C    0.078931
   109  C   -0.005224
   110  C    0.032825
   111  N   -0.303140
   112  C    0.079951
   113  C   -0.204841
   114  C    0.040287
   115  C    0.083710
   116  C    0.124726
   117  C    0.054346
   118  O   -0.186698
   119  C   -0.001729
   120  C    0.227738
   121  O   -0.252752
   122  O   -0.320014
   123  C    0.163808
   124  H   -0.039036
   125  H   -0.061689
   126  H   -0.037163
   127  H    0.007674
   128  H    0.019298
   129  H    0.005402
   130  H    0.019842
   131  H    0.021152
   132  H    0.017031
   133  H    0.023309
   134  H    0.047027
   135  H    0.015728
   136  H    0.039296
   137  H   -0.011740
   138  H    0.038989
   139  H    0.030998
   140  H    0.046621
   141  H    0.048740
   142  H    0.020567
   143  H    0.012726
   144  H    0.018382
   145  H    0.010041
   146  H    0.016852
   147  H    0.005615
   148  H   -0.002396
   149  H    0.015946
   150  H    0.008816
   151  H    0.008766
   152  H    0.009195
   153  H    0.043162
   154  H    0.037471
   155  H    0.028140
   156  H    0.043796
   157  H    0.067970
   158  H    0.039962
 Sum of Mulliken charges =  -0.00000

 Dipole moment (field-independent basis, Debye):
    X=             -5.8374    Y=             -3.4776    Z=             -1.2690  Tot=              6.9122
 Quadrupole moment (field-independent basis, Debye-Ang):
   XX=           -659.3812   YY=           -516.0654   ZZ=           -513.7847
   XY=            -73.4037   XZ=            -48.1996   YZ=             -0.5001

 Normal termination of Gaussian 16 at Thu Sep 16 00:40:30 2021.
