 Gaussian 16, Revision A.03,
 Gaussian 16:  ES64L-G16RevA.03 25-Dec-2016

 -----------------------------------
 #p cam-b3lyp/Def2SVP td=(nstates=5)
 -----------------------------------

 --------------------------------
 TDDFT excited states in gaussian
 --------------------------------
 Symbolic Z-matrix:
 Charge =  0 Multiplicity = 1

                         Standard orientation:
 ---------------------------------------------------------------------
 Center     Atomic      Atomic             Coordinates (Angstroms)
 Number     Number       Type             X           Y           Z
 ---------------------------------------------------------------------
      1         12           0       -4.722145   -0.305866    0.846891
      2          6           0       -4.828180    3.061955    0.201662
      3          6           0       -1.891236    0.204968    2.713019
      4          6           0       -4.533855   -3.721650    1.417081
      5          6           0       -7.312104   -0.821075   -1.399670
      6          7           0       -3.427951    1.448295    1.378821
      7          6           0       -3.767773    2.728639    1.046159
      8          6           0       -2.829085    3.681029    1.611483
      9          6           0       -1.736923    2.841381    2.255062
     10          6           0       -2.336099    1.375442    2.100857
     11          6           0       -0.274865    2.951335    1.699873
     12          6           0       -3.532838    4.670952    2.601087
     13          6           0       -2.962256    6.129285    2.676383
     14          1           0       -1.465527    6.317171    2.359938
     15          7           0       -3.436973   -1.546098    2.025504
     16          6           0       -2.330210   -1.107371    2.731913
     17          6           0       -1.695510   -2.266027    3.392332
     18          6           0       -2.474929   -3.445390    3.021653
     19          6           0       -3.546115   -2.942200    2.144222
     20          6           0       -0.441923   -2.193475    4.248823
     21          6           0       -2.310550   -4.857037    3.534526
     22          8           0       -3.118914   -5.729290    3.170980
     23          6           0       -1.218832   -5.309241    4.430473
     24          7           0       -5.714644   -2.047696    0.062360
     25          6           0       -5.485677   -3.288282    0.502443
     26          6           0       -6.510160   -4.273114   -0.085149
     27          6           0       -7.607468   -3.327235   -0.821326
     28          6           0       -6.866678   -1.955821   -0.639056
     29          6           0       -5.823024   -5.322084   -1.012767
     30          6           0       -9.010532   -3.288231   -0.155969
     31          6           0      -10.147531   -3.934810   -0.961298
     32          7           0       -5.835072    0.843537   -0.435505
     33          6           0       -6.862576    0.502911   -1.318250
     34          6           0       -7.370998    1.713966   -1.999862
     35          6           0       -6.560054    2.715627   -1.416023
     36          6           0       -5.648636    2.139985   -0.490823
     37          6           0       -8.457146    1.825029   -2.952466
     38          6           0       -6.371255    4.179010   -1.338480
     39          8           0       -6.962313    5.089466   -1.855648
     40          6           0       -5.209496    4.443123   -0.315623
     41          6           0       -4.188044    5.271537   -0.976030
     42          8           0       -3.463337    4.786458   -1.859787
     43          8           0       -4.028608    6.515589   -0.446804
     44          6           0       -2.906521    7.331642   -0.899724
     45          1           0       -0.992477    0.401828    3.301191
     46          1           0       -4.435511   -4.797290    1.579152
     47          1           0       -8.205438   -1.015814   -1.996565
     48          1           0       -2.400624    4.255272    0.789319
     49          1           0       -1.734379    2.957288    3.339505
     50          1           0       -0.016769    3.632432    0.888300
     51          1           0        0.038813    1.955490    1.387786
     52          1           0        0.467171    3.163427    2.470009
     53          1           0       -3.591777    4.218058    3.590864
     54          1           0       -4.603137    4.669231    2.395647
     55          1           0       -3.147563    6.551504    3.664458
     56          1           0       -3.391521    6.792091    1.925619
     57          1           0       -0.112724   -1.174075    4.447228
     58          1           0        0.401092   -2.674457    3.751957
     59          1           0       -0.661402   -2.531936    5.261272
     60          1           0       -1.438613   -6.346726    4.680497
     61          1           0       -1.126632   -4.714329    5.340084
     62          1           0       -0.258674   -5.157268    3.937124
     63          1           0       -7.042618   -4.713057    0.758182
     64          1           0       -7.692707   -3.538289   -1.887238
     65          1           0       -6.109088   -6.350591   -0.792271
     66          1           0       -4.738031   -5.272882   -0.916774
     67          1           0       -6.093427   -4.999261   -2.018417
     68          1           0       -9.350538   -2.279003    0.073289
     69          1           0       -9.011460   -3.777124    0.818487
     70          1           0       -9.739637   -4.719824   -1.598173
     71          1           0      -10.583609   -3.167635   -1.600350
     72          1           0      -10.906105   -4.235963   -0.239994
     73          1           0       -8.844567    2.840274   -3.034886
     74          1           0       -9.295773    1.165866   -2.729032
     75          1           0       -8.035106    1.692700   -3.948802
     76          1           0       -5.748612    4.965671    0.475295
     77          1           0       -2.967393    7.637739   -1.944447
     78          1           0       -1.955702    6.854560   -0.662350
     79          1           0       -2.904216    8.277018   -0.357400
     80         12           0        4.107291   -0.872449   -0.940652
     81          6           0        6.997506    0.831299   -0.329466
     82          6           0        2.389470    2.219829   -0.969397
     83          6           0        1.214784   -2.518872   -1.309336
     84          6           0        5.891084   -3.807854   -0.956560
     85          7           0        4.554853    1.229792   -0.375100
     86          6           0        5.871675    1.696017   -0.271776
     87          6           0        5.929555    3.239314   -0.090561
     88          6           0        4.418441    3.557613   -0.243577
     89          6           0        3.701429    2.241837   -0.486386
     90          6           0        3.636235    4.418427    0.837706
     91          6           0        6.834471    4.048633   -1.120454
     92          6           0        6.782661    5.578219   -0.861290
     93          1           0        8.076249    6.133734   -0.263897
     94          7           0        2.043094   -0.206892   -1.167163
     95          6           0        1.631896    1.091072   -1.381486
     96          6           0        0.180413    1.029654   -1.507295
     97          6           0       -0.150080   -0.360832   -1.597116
     98          6           0        1.045745   -1.112991   -1.381431
     99          6           0       -0.627716    2.265498   -1.608459
    100          6           0       -1.622535   -0.883667   -1.735332
    101          8           0       -1.946190   -2.081376   -1.602397
    102          6           0       -2.747709    0.090718   -1.967812
    103          7           0        3.642853   -2.767370   -1.071666
    104          6           0        2.320275   -3.272357   -1.218491
    105          6           0        2.283799   -4.767005   -0.993578
    106          6           0        3.722703   -5.122491   -1.362868
    107          6           0        4.495356   -3.824333   -1.177100
    108          6           0        1.918094   -5.155438    0.478370
    109          6           0        3.871692   -5.558038   -2.837787
    110          6           0        3.622835   -7.000537   -3.188146
    111          7           0        6.052139   -1.497413   -0.662247
    112          6           0        6.672056   -2.674921   -0.841902
    113          6           0        8.072277   -2.519823   -0.578905
    114          6           0        8.270691   -1.168365   -0.391776
    115          6           0        7.006093   -0.568246   -0.494699
    116          6           0        9.030206   -3.658050   -0.640129
    117          6           0        9.259848   -0.207657   -0.146510
    118          8           0       10.466665   -0.300062   -0.030614
    119          6           0        8.458630    1.176865   -0.094641
    120          6           0        8.735313    1.815338    1.220283
    121          8           0        8.383576    1.427772    2.307874
    122          8           0        9.324539    3.004836    1.066054
    123          6           0        9.611552    3.781669    2.333104
    124          1           0        1.960441    3.212622   -1.119269
    125          1           0        0.280302   -3.069183   -1.435953
    126          1           0        6.541357   -4.676928   -1.073189
    127          1           0        6.253476    3.454580    0.927741
    128          1           0        4.255852    4.104003   -1.173103
    129          1           0        2.873106    5.096742    0.455172
    130          1           0        4.343623    4.858877    1.540573
    131          1           0        3.045314    3.681808    1.381881
    132          1           0        6.456719    3.728377   -2.090678
    133          1           0        7.859373    3.689680   -1.027382
    134          1           0        5.887549    5.828608   -0.291918
    135          1           0        6.686306    6.052353   -1.837585
    136          1           0       -1.215668    2.355918   -0.694893
    137          1           0       -1.154039    2.197568   -2.560559
    138          1           0        0.014157    3.139809   -1.717487
    139          1           0       -3.685005   -0.450050   -2.098790
    140          1           0       -2.527349    0.512098   -2.949579
    141          1           0       -2.868508    0.891620   -1.238855
    142          1           0        1.552982   -5.246007   -1.645752
    143          1           0        4.157391   -5.889629   -0.722379
    144          1           0        2.753048   -4.968681    1.152582
    145          1           0        1.612635   -6.200878    0.528939
    146          1           0        1.062314   -4.532098    0.735227
    147          1           0        4.835470   -5.284640   -3.265427
    148          1           0        3.218224   -4.949492   -3.463045
    149          1           0        2.806034   -7.008058   -3.909302
    150          1           0        3.191721   -7.403272   -2.271474
    151          1           0        4.511212   -7.553002   -3.494632
    152          1           0        9.525918   -3.684138   -1.609757
    153          1           0        8.685380   -4.644095   -0.327307
    154          1           0        9.811836   -3.406187    0.076824
    155          1           0        8.824345    1.812788   -0.901167
    156          1           0        8.683177    3.811737    2.903893
    157          1           0        9.894889    4.818005    2.147325
    158          1           0       10.393244    3.251076    2.877176
 ---------------------------------------------------------------------

 SCF Done:  E(RCAM-B3LYP) =  -4069.87605054     A.U. after   18 cycles

 Excitation energies and oscillator strengths:

 Excited State   1:      Singlet-A      1.6403 eV  755.88 nm  f=0.4534  <S**2>=0.000
     309 -> 315       -0.12067
     309 -> 316       -0.10111
     311 -> 313        0.68981
 This state for optimization and/or second-order correction.
 Total Energy, E(TD-HF/TD-DFT) =  -4069.81577195
 Copying the excited state density for this state as the 1-particle RhoCI density.

 Excited State   2:      Singlet-A      1.7216 eV  720.17 nm  f=0.3505  <S**2>=0.000
     310 -> 315        0.12091
     310 -> 316       -0.14247
     312 -> 314        0.68212

 Excited State   3:      Singlet-A      2.1209 eV  584.58 nm  f=0.0000  <S**2>=0.000
     312 -> 313        0.70312

 Excited State   4:      Singlet-A      2.2376 eV  554.09 nm  f=0.0153  <S**2>=0.000
     309 -> 313       -0.26503
     310 -> 314        0.57444
     312 -> 315       -0.17589
     312 -> 316        0.21577

 Excited State   5:      Singlet-A      2.2549 eV  549.85 nm  f=0.1455  <S**2>=0.000
     309 -> 313        0.57873
     310 -> 314        0.25454
     311 -> 315        0.20055
     311 -> 316        0.17487

 The electronic state is 1-A.
 Alpha  occ. eigenvalues --  -46.88724 -46.87532 -19.26364 -19.25006 -19.19764
 Alpha  occ. eigenvalues --  -19.19384 -19.19070 -19.18830 -19.18464 -19.18213
 Alpha  occ. eigenvalues --  -14.42777 -14.41757 -14.41751 -14.41562 -14.39236
 Alpha  occ. eigenvalues --  -14.39127 -14.38884 -14.38846 -10.39958 -10.38613
 Alpha  occ. eigenvalues --  -10.34993 -10.34956 -10.34901 -10.34810 -10.32737
 Alpha  occ. eigenvalues --  -10.32397 -10.32060 -10.31347 -10.30689 -10.30681
 Alpha  occ. eigenvalues --  -10.30646 -10.30444 -10.30434 -10.30059 -10.29901
 Alpha  occ. eigenvalues --  -10.29891 -10.29766 -10.29569 -10.29557 -10.29545
 Alpha  occ. eigenvalues --  -10.29270 -10.29039 -10.28970 -10.28965 -10.28688
 Alpha  occ. eigenvalues --  -10.28627 -10.28511 -10.28427 -10.28284 -10.28147
 Alpha  occ. eigenvalues --  -10.28098 -10.28061 -10.27887 -10.27819 -10.27657
 Alpha  occ. eigenvalues --  -10.27655 -10.27624 -10.27510 -10.27448 -10.27438
 Alpha  occ. eigenvalues --  -10.27434 -10.27379 -10.27159 -10.27154 -10.27107
 Alpha  occ. eigenvalues --  -10.26844 -10.26790 -10.26538 -10.26375 -10.26348
 Alpha  occ. eigenvalues --  -10.26172 -10.26166 -10.26033 -10.25967 -10.25930
 Alpha  occ. eigenvalues --  -10.25920 -10.25829 -10.25789 -10.25581 -10.25525
 Alpha  occ. eigenvalues --  -10.25208 -10.25205 -10.25184 -10.25097 -10.25083
 Alpha  occ. eigenvalues --  -10.25006  -3.17134  -3.16313  -1.92056  -1.91574
 Alpha  occ. eigenvalues --   -1.91440  -1.91216  -1.90784  -1.90611  -1.17000
 Alpha  occ. eigenvalues --   -1.16829  -1.10996  -1.10453  -1.08765  -1.08134
 Alpha  occ. eigenvalues --   -1.07543  -1.07232  -1.05443  -1.05198  -1.03978
 Alpha  occ. eigenvalues --   -1.03909  -1.03181  -1.03120  -1.01954  -1.00737
 Alpha  occ. eigenvalues --   -0.93356  -0.92546  -0.89279  -0.89103  -0.88851
 Alpha  occ. eigenvalues --   -0.88686  -0.88114  -0.87924  -0.87559  -0.87144
 Alpha  occ. eigenvalues --   -0.87056  -0.86661  -0.86323  -0.86082  -0.84364
 Alpha  occ. eigenvalues --   -0.84012  -0.84004  -0.83483  -0.82580  -0.82352
 Alpha  occ. eigenvalues --   -0.81774  -0.81459  -0.81246  -0.81227  -0.80499
 Alpha  occ. eigenvalues --   -0.80437  -0.78330  -0.78293  -0.77651  -0.77587
 Alpha  occ. eigenvalues --   -0.77303  -0.77128  -0.76278  -0.76210  -0.75195
 Alpha  occ. eigenvalues --   -0.74745  -0.73198  -0.72497  -0.71872  -0.71426
 Alpha  occ. eigenvalues --   -0.69491  -0.69342  -0.69008  -0.68343  -0.68173
 Alpha  occ. eigenvalues --   -0.68035  -0.66837  -0.66031  -0.65901  -0.65837
 Alpha  occ. eigenvalues --   -0.65235  -0.65019  -0.64964  -0.64650  -0.64275
 Alpha  occ. eigenvalues --   -0.64179  -0.62843  -0.62145  -0.60242  -0.60034
 Alpha  occ. eigenvalues --   -0.59862  -0.59428  -0.59261  -0.59103  -0.58926
 Alpha  occ. eigenvalues --   -0.58831  -0.58325  -0.58170  -0.57976  -0.57175
 Alpha  occ. eigenvalues --   -0.56515  -0.56210  -0.56144  -0.55987  -0.55290
 Alpha  occ. eigenvalues --   -0.54951  -0.54927  -0.54810  -0.54430  -0.54238
 Alpha  occ. eigenvalues --   -0.53500  -0.53379  -0.53374  -0.52878  -0.52748
 Alpha  occ. eigenvalues --   -0.52741  -0.52451  -0.52300  -0.52220  -0.52099
 Alpha  occ. eigenvalues --   -0.51766  -0.51745  -0.51514  -0.51427  -0.51383
 Alpha  occ. eigenvalues --   -0.51312  -0.51207  -0.50388  -0.50234  -0.50113
 Alpha  occ. eigenvalues --   -0.49986  -0.49957  -0.49780  -0.49759  -0.49637
 Alpha  occ. eigenvalues --   -0.49531  -0.49346  -0.48968  -0.48903  -0.48813
 Alpha  occ. eigenvalues --   -0.48591  -0.48362  -0.48182  -0.48153  -0.48082
 Alpha  occ. eigenvalues --   -0.47774  -0.47675  -0.47385  -0.47300  -0.47199
 Alpha  occ. eigenvalues --   -0.47071  -0.46951  -0.46875  -0.46635  -0.46489
 Alpha  occ. eigenvalues --   -0.46380  -0.46061  -0.45941  -0.45880  -0.45793
 Alpha  occ. eigenvalues --   -0.45718  -0.45570  -0.45446  -0.45303  -0.45194
 Alpha  occ. eigenvalues --   -0.44844  -0.44712  -0.44493  -0.44263  -0.44190
 Alpha  occ. eigenvalues --   -0.43806  -0.43724  -0.43654  -0.43583  -0.43527
 Alpha  occ. eigenvalues --   -0.43370  -0.43285  -0.43051  -0.42942  -0.42839
 Alpha  occ. eigenvalues --   -0.42592  -0.42363  -0.42056  -0.41934  -0.41721
 Alpha  occ. eigenvalues --   -0.41693  -0.41572  -0.41312  -0.41229  -0.41044
 Alpha  occ. eigenvalues --   -0.40921  -0.40718  -0.40644  -0.40575  -0.40437
 Alpha  occ. eigenvalues --   -0.40155  -0.40081  -0.39929  -0.39823  -0.39302
 Alpha  occ. eigenvalues --   -0.38480  -0.38145  -0.37989  -0.37576  -0.37500
 Alpha  occ. eigenvalues --   -0.37235  -0.37029  -0.36976  -0.36669  -0.36628
 Alpha  occ. eigenvalues --   -0.36524  -0.35945  -0.34373  -0.34221  -0.34065
 Alpha  occ. eigenvalues --   -0.33871  -0.33291  -0.32995  -0.31474  -0.31263
 Alpha  occ. eigenvalues --   -0.31017  -0.30805  -0.30689  -0.30604  -0.30361
 Alpha  occ. eigenvalues --   -0.29947  -0.29308  -0.28955  -0.24638  -0.23730
 Alpha  occ. eigenvalues --   -0.21112  -0.20688
 Alpha virt. eigenvalues --   -0.09065  -0.08167  -0.01613  -0.01565   0.00422
 Alpha virt. eigenvalues --    0.00582   0.02382   0.02615   0.03207   0.03376
 Alpha virt. eigenvalues --    0.04106   0.04532   0.04855   0.05141   0.06086

 Mulliken charges:
               1
     1  Mg   0.758980
     2  C   -0.010965
     3  C   -0.060358
     4  C   -0.036125
     5  C   -0.074081
     6  N   -0.244523
     7  C   -0.069948
     8  C   -0.013040
     9  C    0.008965
    10  C   -0.051368
    11  C    0.048166
    12  C    0.069287
    13  C   -0.063451
    14  H   -0.001506
    15  N   -0.380878
    16  C    0.182093
    17  C   -0.148926
    18  C   -0.018980
    19  C    0.106027
    20  C    0.107325
    21  C   -0.005767
    22  O   -0.232105
    23  C    0.073658
    24  N   -0.259345
    25  C    0.056973
    26  C   -0.047829
    27  C   -0.048768
    28  C    0.020711
    29  C    0.078693
    30  C    0.027693
    31  C    0.003139
    32  N   -0.351226
    33  C    0.115699
    34  C   -0.150965
    35  C   -0.007723
    36  C    0.090921
    37  C    0.122358
    38  C    0.012619
    39  O   -0.146898
    40  C    0.023984
    41  C    0.220228
    42  O   -0.253024
    43  O   -0.320442
    44  C    0.184883
    45  H   -0.049687
    46  H   -0.000158
    47  H   -0.029403
    48  H    0.020710
    49  H    0.008092
    50  H    0.015921
    51  H    0.031713
    52  H    0.008532
    53  H   -0.005138
    54  H    0.002354
    55  H    0.032376
    56  H    0.046266
    57  H    0.002423
    58  H    0.044107
    59  H    0.029215
    60  H    0.036916
    61  H    0.020651
    62  H    0.031495
    63  H    0.013014
    64  H    0.014382
    65  H    0.022846
    66  H    0.033327
    67  H    0.008310
    68  H    0.007242
    69  H    0.001364
    70  H    0.019825
    71  H    0.010197
    72  H    0.017992
    73  H    0.024109
    74  H    0.026615
    75  H    0.031849
    76  H    0.037048
    77  H    0.048368
    78  H    0.031844
    79  H    0.033394
    80  Mg   0.824569
    81  C    0.007695
    82  C   -0.061121
    83  C   -0.070390
    84  C   -0.094687
    85  N   -0.268012
    86  C   -0.051954
    87  C    0.020199
    88  C   -0.103668
    89  C    0.034706
    90  C    0.062825
    91  C    0.035074
    92  C   -0.056618
    93  H    0.031715
    94  N   -0.359616
    95  C    0.139445
    96  C   -0.214381
    97  C   -0.030243
    98  C    0.110641
    99  C    0.146366
   100  C    0.030029
   101  O   -0.225119
   102  C    0.008623
   103  N   -0.391851
   104  C    0.081631
   105  C   -0.018460
   106  C   -0.020501
   107  C    0.117824
   108  C    0.083107
   109  C   -0.004944
   110  C    0.053267
   111  N   -0.339626
   112  C    0.089402
   113  C   -0.169164
   114  C    0.069244
   115  C    0.103006
   116  C    0.108235
   117  C    0.017270
   118  O   -0.154275
   119  C   -0.052463
   120  C    0.180689
   121  O   -0.218041
   122  O   -0.331345
   123  C    0.179411
   124  H   -0.026048
   125  H   -0.003921
   126  H   -0.027160
   127  H    0.016470
   128  H    0.010730
   129  H    0.020216
   130  H    0.021138
   131  H    0.014392
   132  H    0.011749
   133  H    0.033162
   134  H    0.029140
   135  H    0.029829
   136  H    0.047537
   137  H    0.037521
   138  H    0.001280
   139  H    0.064538
   140  H    0.031754
   141  H    0.090912
   142  H    0.001810
   143  H   -0.004368
   144  H    0.017667
   145  H    0.021844
   146  H    0.020176
   147  H   -0.002290
   148  H   -0.003425
   149  H    0.013078
   150  H   -0.002503
   151  H    0.028722
   152  H    0.038259
   153  H    0.023106
   154  H    0.026868
   155  H    0.043299
   156  H    0.040693
   157  H    0.041704
   158  H    0.051359
 Sum of Mulliken charges =  -0.00000

 Dipole moment (field-independent basis, Debye):
    X=             -0.1643    Y=              2.3445    Z=              1.2467  Tot=              2.6604
 Quadrupole moment (field-independent basis, Debye-Ang):
   XX=           -553.3157   YY=           -487.0162   ZZ=           -503.5338
   XY=             21.3687   XZ=            -13.1610   YZ=             23.1230

 Normal termination of Gaussian 16 at Thu Sep  2 07:17:44 2021.
