 Gaussian 16, Revision A.03,
 Gaussian 16:  ES64L-G16RevA.03 25-Dec-2016

 -----------------------------------
 #p cam-b3lyp/Def2SVP td=(nstates=5)
 -----------------------------------

 --------------------------------
 TDDFT excited states in gaussian
 --------------------------------
 Symbolic Z-matrix:
 Charge =  0 Multiplicity = 1

                         Standard orientation:
 ---------------------------------------------------------------------
 Center     Atomic      Atomic             Coordinates (Angstroms)
 Number     Number       Type             X           Y           Z
 ---------------------------------------------------------------------
      1         12           0       24.588698   -0.434234    0.167497
      2          6           0       23.369707    2.722492    0.732228
      3          6           0       24.874024    0.339824   -3.160694
      4          6           0       25.716021   -3.657123   -0.441010
      5          6           0       23.866041   -1.303132    3.445170
      6          7           0       24.121651    1.336620   -1.129002
      7          6           0       23.713042    2.530861   -0.607225
      8          6           0       23.597879    3.540826   -1.643797
      9          6           0       23.857025    2.810955   -2.952290
     10          6           0       24.289892    1.372118   -2.428703
     11          6           0       22.708106    2.739373   -4.016619
     12          6           0       24.565474    4.746318   -1.388690
     13          6           0       24.077713    6.162252   -1.852576
     14          1           0       23.106156    6.215778   -3.047920
     15          7           0       25.314571   -1.450301   -1.570228
     16          6           0       25.356099   -0.919181   -2.847962
     17          6           0       25.896804   -1.937731   -3.770825
     18          6           0       26.159664   -3.134896   -2.974901
     19          6           0       25.756881   -2.783893   -1.601917
     20          6           0       26.081493   -1.738638   -5.266341
     21          6           0       26.830064   -4.411869   -3.425139
     22          8           0       27.047900   -5.306416   -2.589211
     23          6           0       27.229428   -4.710036   -4.821800
     24          7           0       24.700111   -2.259153    1.304058
     25          6           0       25.242945   -3.387193    0.837143
     26          6           0       25.382977   -4.429930    1.958666
     27          6           0       25.022991   -3.615683    3.318129
     28          6           0       24.572308   -2.269181    2.649857
     29          6           0       24.489162   -5.679278    1.688124
     30          6           0       26.211392   -3.377841    4.289697
     31          6           0       26.139884   -4.131564    5.626175
     32          7           0       23.715520    0.463946    1.790798
     33          6           0       23.464642   -0.011994    3.079818
     34          6           0       22.839172    1.047924    3.901465
     35          6           0       22.785905    2.115296    2.974264
     36          6           0       23.315540    1.710371    1.719846
     37          6           0       22.458849    1.000758    5.298832
     38          6           0       22.466315    3.552719    2.852497
     39          8           0       22.083438    4.357347    3.659789
     40          6           0       22.796833    3.977908    1.377489
     41          6           0       21.599342    4.604216    0.794802
     42          8           0       20.610016    3.913193    0.502825
     43          8           0       21.733273    5.924182    0.489977
     44          6           0       20.675711    6.578040   -0.274345
     45          1           0       24.953640    0.618530   -4.213525
     46          1           0       26.038621   -4.677361   -0.660062
     47          1           0       23.775980   -1.581840    4.497056
     48          1           0       22.571641    3.909724   -1.637571
     49          1           0       24.780105    3.153271   -3.421544
     50          1           0       21.743518    3.222028   -3.856080
     51          1           0       22.505111    1.687750   -4.217576
     52          1           0       23.012334    3.078021   -5.007312
     53          1           0       25.551134    4.515782   -1.793131
     54          1           0       24.855072    4.746295   -0.338033
     55          1           0       24.935042    6.791222   -2.093996
     56          1           0       23.471242    6.668855   -1.102395
     57          1           0       25.898528   -0.715126   -5.591706
     58          1           0       25.377813   -2.348858   -5.833227
     59          1           0       27.133486   -1.845874   -5.530144
     60          1           0       27.760367   -5.661022   -4.791465
     61          1           0       27.860611   -3.940709   -5.268519
     62          1           0       26.345719   -4.706372   -5.460108
     63          1           0       26.445324   -4.658829    2.044072
     64          1           0       24.172155   -4.043509    3.848242
     65          1           0       25.021448   -6.624947    1.791370
     66          1           0       24.087530   -5.656646    0.674702
     67          1           0       23.660986   -5.565238    2.387972
     68          1           0       26.350701   -2.329550    4.551202
     69          1           0       27.165735   -3.649211    3.837846
     70          1           0       25.567696   -5.049937    5.494169
     71          1           0       25.612357   -3.499143    6.339524
     72          1           0       27.165682   -4.241206    5.975634
     73          1           0       22.345122    1.991035    5.739318
     74          1           0       23.158881    0.439648    5.917562
     75          1           0       21.430228    0.643144    5.347455
     76          1           0       23.615866    4.678075    1.545436
     77          1           0       19.725055    6.658661    0.253479
     78          1           0       20.566072    6.122299   -1.258363
     79          1           0       20.952121    7.615739   -0.460452
     80         12           0      -23.627881   -0.773868    0.158773
     81          6           0      -25.479673    2.146429    0.617966
     82          6           0      -21.856369    0.720460   -2.229868
     83          6           0      -22.898424   -3.879589   -1.069024
     84          6           0      -25.543239   -2.309388    2.630584
     85          7           0      -23.557122    1.287977   -0.600315
     86          6           0      -24.377166    2.273206   -0.255290
     87          6           0      -23.896864    3.601538   -0.944195
     88          6           0      -22.816384    3.086912   -1.925239
     89          6           0      -22.732769    1.598037   -1.602518
     90          6           0      -23.232851    3.198527   -3.475282
     91          6           0      -23.317370    4.710794    0.046294
     92          6           0      -23.770100    6.083951   -0.314792
     93          1           0      -22.743607    7.196154   -0.464982
     94          7           0      -22.507336   -1.462928   -1.418175
     95          6           0      -21.817428   -0.674119   -2.300220
     96          6           0      -20.886545   -1.522036   -3.057870
     97          6           0      -21.202525   -2.864784   -2.709011
     98          6           0      -22.288617   -2.762006   -1.720253
     99          6           0      -19.885862   -0.957968   -4.116406
    100          6           0      -20.610465   -4.185981   -3.285818
    101          8           0      -20.942639   -5.307285   -2.918136
    102          6           0      -19.560417   -4.080435   -4.326257
    103          7           0      -24.145308   -2.742985    0.652811
    104          6           0      -23.786030   -3.909813   -0.028482
    105          6           0      -24.584634   -5.110680    0.542544
    106          6           0      -24.873093   -4.662601    2.042159
    107          6           0      -24.831901   -3.138644    1.735611
    108          6           0      -25.818211   -5.481761   -0.308296
    109          6           0      -23.853812   -5.038345    3.079884
    110          6           0      -22.574383   -4.268867    3.223347
    111          7           0      -25.054254   -0.217514    1.544978
    112          6           0      -25.780957   -0.938213    2.464295
    113          6           0      -26.735311   -0.097173    3.190388
    114          6           0      -26.736459    1.150991    2.419042
    115          6           0      -25.690901    0.988887    1.428681
    116          6           0      -27.639106   -0.522649    4.230661
    117          6           0      -27.358146    2.459614    2.256788
    118          8           0      -28.275892    2.972283    2.778845
    119          6           0      -26.489217    3.192809    1.107214
    120          6           0      -27.313498    3.847940    0.027899
    121          8           0      -27.648051    3.318169   -1.027606
    122          8           0      -27.543046    5.175098    0.389300
    123          6           0      -28.310066    6.014727   -0.548680
    124          1           0      -21.068303    1.077465   -2.896709
    125          1           0      -22.635827   -4.836637   -1.525438
    126          1           0      -26.037884   -2.825783    3.455440
    127          1           0      -24.679815    4.055686   -1.552028
    128          1           0      -21.846736    3.582692   -1.879940
    129          1           0      -22.856307    4.157200   -3.832596
    130          1           0      -24.304681    3.229964   -3.669263
    131          1           0      -22.734093    2.391472   -4.013219
    132          1           0      -22.227300    4.721922    0.046025
    133          1           0      -23.549255    4.566029    1.101554
    134          1           0      -24.357399    6.383195    0.552899
    135          1           0      -24.419584    6.196487   -1.182445
    136          1           0      -20.423845   -0.969501   -5.063905
    137          1           0      -18.951578   -1.519842   -4.126005
    138          1           0      -19.724110    0.118178   -4.045839
    139          1           0      -19.619752   -3.342999   -5.126583
    140          1           0      -19.449730   -5.038974   -4.832655
    141          1           0      -18.581027   -4.091045   -3.847091
    142          1           0      -23.853268   -5.918365    0.547723
    143          1           0      -25.841141   -5.012732    2.400032
    144          1           0      -26.774624   -5.528714    0.212480
    145          1           0      -25.656147   -6.338610   -0.962628
    146          1           0      -25.993065   -4.712618   -1.060383
    147          1           0      -23.501786   -6.066832    3.009647
    148          1           0      -24.341512   -4.987087    4.053449
    149          1           0      -22.819442   -3.562671    4.016451
    150          1           0      -22.273780   -3.677798    2.357982
    151          1           0      -21.777447   -4.949961    3.523594
    152          1           0      -27.711692    0.318498    4.920322
    153          1           0      -27.167626   -1.362642    4.740174
    154          1           0      -28.619066   -0.746000    3.810043
    155          1           0      -25.920015    3.982734    1.597263
    156          1           0      -29.234193    5.479681   -0.769010
    157          1           0      -27.772760    6.136426   -1.488841
    158          1           0      -28.578510    7.032417   -0.264745
 ---------------------------------------------------------------------

 SCF Done:  E(RCAM-B3LYP) =  -4069.85692722     A.U. after   19 cycles

 Excitation energies and oscillator strengths:

 Excited State   1:      Singlet-A      1.6811 eV  737.52 nm  f=0.3775  <S**2>=0.000
     309 -> 316        0.17703
     312 -> 313        0.68654
     309 <- 316        0.10856
 This state for optimization and/or second-order correction.
 Total Energy, E(TD-HF/TD-DFT) =  -4069.79514796
 Copying the excited state density for this state as the 1-particle RhoCI density.

 Excited State   2:      Singlet-A      1.7299 eV  716.71 nm  f=0.3907  <S**2>=0.000
     310 -> 315       -0.18861
     311 -> 314        0.68241
     310 <- 315       -0.10885

 Excited State   3:      Singlet-A      2.2550 eV  549.81 nm  f=0.0739  <S**2>=0.000
     310 -> 314        0.62433
     311 -> 315        0.31590

 Excited State   4:      Singlet-A      2.2559 eV  549.59 nm  f=0.1160  <S**2>=0.000
     309 -> 313        0.63155
     312 -> 316       -0.30541

 Excited State   5:      Singlet-A      3.1714 eV  390.95 nm  f=0.0000  <S**2>=0.000
     311 -> 313        0.70710

 The electronic state is 1-A.
 Alpha  occ. eigenvalues --  -46.88905 -46.87913 -19.25993 -19.25014 -19.20094
 Alpha  occ. eigenvalues --  -19.19681 -19.19320 -19.19176 -19.19063 -19.18384
 Alpha  occ. eigenvalues --  -14.42187 -14.41848 -14.41740 -14.41417 -14.39509
 Alpha  occ. eigenvalues --  -14.39277 -14.39264 -14.39219 -10.39685 -10.39579
 Alpha  occ. eigenvalues --  -10.35641 -10.35515 -10.34980 -10.34871 -10.32338
 Alpha  occ. eigenvalues --  -10.31794 -10.31327 -10.30933 -10.30667 -10.30629
 Alpha  occ. eigenvalues --  -10.30585 -10.30580 -10.30434 -10.30125 -10.30036
 Alpha  occ. eigenvalues --  -10.29996 -10.29939 -10.29878 -10.29743 -10.29469
 Alpha  occ. eigenvalues --  -10.29381 -10.29324 -10.29172 -10.28774 -10.28713
 Alpha  occ. eigenvalues --  -10.28657 -10.28414 -10.28374 -10.28300 -10.28292
 Alpha  occ. eigenvalues --  -10.28285 -10.28211 -10.28021 -10.27919 -10.27902
 Alpha  occ. eigenvalues --  -10.27786 -10.27660 -10.27553 -10.27545 -10.27531
 Alpha  occ. eigenvalues --  -10.27477 -10.27408 -10.27397 -10.27238 -10.27073
 Alpha  occ. eigenvalues --  -10.27006 -10.26883 -10.26698 -10.26503 -10.26121
 Alpha  occ. eigenvalues --  -10.26115 -10.26087 -10.26086 -10.26079 -10.26046
 Alpha  occ. eigenvalues --  -10.26035 -10.26027 -10.25925 -10.25805 -10.25560
 Alpha  occ. eigenvalues --  -10.25533 -10.25527 -10.25372 -10.25369 -10.25270
 Alpha  occ. eigenvalues --  -10.24541  -3.17327  -3.16615  -1.92249  -1.91767
 Alpha  occ. eigenvalues --   -1.91635  -1.91519  -1.91047  -1.90943  -1.16458
 Alpha  occ. eigenvalues --   -1.15149  -1.12939  -1.10967  -1.10153  -1.08938
 Alpha  occ. eigenvalues --   -1.07446  -1.07145  -1.05174  -1.05139  -1.04070
 Alpha  occ. eigenvalues --   -1.03572  -1.03394  -1.02863  -1.02130  -1.00975
 Alpha  occ. eigenvalues --   -0.92506  -0.91863  -0.89146  -0.89025  -0.88626
 Alpha  occ. eigenvalues --   -0.88298  -0.88013  -0.87726  -0.87212  -0.87177
 Alpha  occ. eigenvalues --   -0.86892  -0.86752  -0.86299  -0.86277  -0.84172
 Alpha  occ. eigenvalues --   -0.83964  -0.83589  -0.83583  -0.82535  -0.82344
 Alpha  occ. eigenvalues --   -0.81891  -0.81859  -0.81234  -0.80992  -0.80569
 Alpha  occ. eigenvalues --   -0.80358  -0.78454  -0.78238  -0.77575  -0.77327
 Alpha  occ. eigenvalues --   -0.77264  -0.76727  -0.76255  -0.75843  -0.74909
 Alpha  occ. eigenvalues --   -0.74857  -0.72614  -0.72240  -0.71526  -0.71462
 Alpha  occ. eigenvalues --   -0.69259  -0.69220  -0.68490  -0.68372  -0.68047
 Alpha  occ. eigenvalues --   -0.67745  -0.66938  -0.66751  -0.65855  -0.65701
 Alpha  occ. eigenvalues --   -0.65463  -0.65046  -0.64608  -0.64346  -0.64231
 Alpha  occ. eigenvalues --   -0.64090  -0.62744  -0.61796  -0.60141  -0.59868
 Alpha  occ. eigenvalues --   -0.59605  -0.59587  -0.59238  -0.58869  -0.58769
 Alpha  occ. eigenvalues --   -0.58241  -0.58096  -0.57760  -0.57306  -0.57225
 Alpha  occ. eigenvalues --   -0.56069  -0.55985  -0.55799  -0.55518  -0.55360
 Alpha  occ. eigenvalues --   -0.55341  -0.54830  -0.54740  -0.54092  -0.53993
 Alpha  occ. eigenvalues --   -0.53562  -0.53465  -0.53372  -0.52958  -0.52940
 Alpha  occ. eigenvalues --   -0.52802  -0.52506  -0.52432  -0.52233  -0.52161
 Alpha  occ. eigenvalues --   -0.51767  -0.51678  -0.51616  -0.51521  -0.51375
 Alpha  occ. eigenvalues --   -0.51297  -0.51231  -0.51185  -0.50399  -0.50224
 Alpha  occ. eigenvalues --   -0.50169  -0.50065  -0.49977  -0.49860  -0.49610
 Alpha  occ. eigenvalues --   -0.49518  -0.49386  -0.49141  -0.49009  -0.48599
 Alpha  occ. eigenvalues --   -0.48555  -0.48491  -0.48309  -0.48130  -0.47984
 Alpha  occ. eigenvalues --   -0.47966  -0.47793  -0.47487  -0.47214  -0.47123
 Alpha  occ. eigenvalues --   -0.46956  -0.46786  -0.46714  -0.46587  -0.46303
 Alpha  occ. eigenvalues --   -0.46272  -0.46090  -0.45885  -0.45741  -0.45723
 Alpha  occ. eigenvalues --   -0.45530  -0.45498  -0.45217  -0.45190  -0.44944
 Alpha  occ. eigenvalues --   -0.44936  -0.44628  -0.44546  -0.44382  -0.44343
 Alpha  occ. eigenvalues --   -0.44159  -0.43820  -0.43723  -0.43616  -0.43506
 Alpha  occ. eigenvalues --   -0.43319  -0.43243  -0.43180  -0.43027  -0.42795
 Alpha  occ. eigenvalues --   -0.42657  -0.42636  -0.42160  -0.41876  -0.41860
 Alpha  occ. eigenvalues --   -0.41568  -0.41522  -0.41502  -0.41359  -0.41179
 Alpha  occ. eigenvalues --   -0.41170  -0.40926  -0.40703  -0.40492  -0.40351
 Alpha  occ. eigenvalues --   -0.40228  -0.40008  -0.39553  -0.39124  -0.38657
 Alpha  occ. eigenvalues --   -0.38202  -0.38060  -0.37672  -0.37492  -0.37237
 Alpha  occ. eigenvalues --   -0.36971  -0.36731  -0.36640  -0.36582  -0.36525
 Alpha  occ. eigenvalues --   -0.36040  -0.35905  -0.34456  -0.34277  -0.34055
 Alpha  occ. eigenvalues --   -0.33989  -0.33131  -0.32801  -0.31401  -0.31214
 Alpha  occ. eigenvalues --   -0.31149  -0.31007  -0.30910  -0.30712  -0.30080
 Alpha  occ. eigenvalues --   -0.30018  -0.29550  -0.29522  -0.23978  -0.23898
 Alpha  occ. eigenvalues --   -0.20819  -0.20773
 Alpha virt. eigenvalues --   -0.08458  -0.08307  -0.01738  -0.01374   0.00408
 Alpha virt. eigenvalues --    0.00528   0.02425   0.02529   0.02798   0.03075
 Alpha virt. eigenvalues --    0.04449   0.04570   0.05218   0.05587   0.05987

 Mulliken charges:
               1
     1  Mg   0.814783
     2  C   -0.017245
     3  C   -0.070448
     4  C   -0.047017
     5  C   -0.073593
     6  N   -0.243870
     7  C   -0.051354
     8  C   -0.008499
     9  C    0.010440
    10  C   -0.041632
    11  C    0.066176
    12  C    0.061583
    13  C   -0.064225
    14  H    0.001591
    15  N   -0.381012
    16  C    0.179980
    17  C   -0.151777
    18  C   -0.018603
    19  C    0.094781
    20  C    0.107322
    21  C   -0.005716
    22  O   -0.232205
    23  C    0.074375
    24  N   -0.261006
    25  C    0.046030
    26  C   -0.044089
    27  C   -0.048510
    28  C    0.017406
    29  C    0.079029
    30  C    0.027463
    31  C    0.003020
    32  N   -0.356641
    33  C    0.120862
    34  C   -0.150014
    35  C   -0.006758
    36  C    0.104747
    37  C    0.121497
    38  C    0.014247
    39  O   -0.146094
    40  C    0.025569
    41  C    0.218330
    42  O   -0.248934
    43  O   -0.321504
    44  C    0.184522
    45  H   -0.049198
    46  H    0.001144
    47  H   -0.028724
    48  H    0.022822
    49  H    0.008038
    50  H    0.027347
    51  H    0.010390
    52  H    0.004942
    53  H   -0.006415
    54  H    0.001672
    55  H    0.031416
    56  H    0.046797
    57  H    0.002022
    58  H    0.041587
    59  H    0.029972
    60  H    0.037779
    61  H    0.020631
    62  H    0.031142
    63  H    0.014361
    64  H    0.014665
    65  H    0.025723
    66  H    0.024976
    67  H    0.008083
    68  H    0.007537
    69  H    0.001712
    70  H    0.019686
    71  H    0.010863
    72  H    0.018640
    73  H    0.025097
    74  H    0.026385
    75  H    0.033605
    76  H    0.036816
    77  H    0.048243
    78  H    0.035140
    79  H    0.032094
    80  Mg   0.845355
    81  C    0.027400
    82  C   -0.076824
    83  C   -0.074871
    84  C   -0.103117
    85  N   -0.243953
    86  C   -0.032160
    87  C    0.000731
    88  C   -0.076720
    89  C    0.082357
    90  C    0.038846
    91  C    0.070129
    92  C   -0.093368
    93  H    0.009699
    94  N   -0.370819
    95  C    0.094372
    96  C   -0.139756
    97  C   -0.061982
    98  C    0.101682
    99  C    0.093658
   100  C    0.039038
   101  O   -0.200708
   102  C    0.041871
   103  N   -0.293935
   104  C    0.034434
   105  C    0.001885
   106  C   -0.010284
   107  C    0.025398
   108  C    0.092681
   109  C    0.017551
   110  C    0.022126
   111  N   -0.363043
   112  C    0.153949
   113  C   -0.162533
   114  C   -0.039993
   115  C    0.088735
   116  C    0.123002
   117  C    0.056388
   118  O   -0.102381
   119  C   -0.071456
   120  C    0.218771
   121  O   -0.220150
   122  O   -0.352122
   123  C    0.187111
   124  H   -0.036729
   125  H   -0.006454
   126  H   -0.034616
   127  H    0.020332
   128  H    0.017639
   129  H    0.008615
   130  H    0.029585
   131  H    0.017101
   132  H    0.013841
   133  H    0.013001
   134  H    0.031509
   135  H    0.030108
   136  H    0.034912
   137  H    0.042264
   138  H    0.009180
   139  H    0.038117
   140  H    0.012062
   141  H    0.038802
   142  H   -0.003739
   143  H   -0.003993
   144  H    0.017236
   145  H    0.021802
   146  H    0.010545
   147  H    0.001290
   148  H   -0.002066
   149  H    0.005382
   150  H    0.031867
   151  H    0.016208
   152  H    0.033351
   153  H    0.015311
   154  H    0.051202
   155  H    0.046728
   156  H    0.036665
   157  H    0.023052
   158  H    0.042893
 Sum of Mulliken charges =  -0.00000

 Dipole moment (field-independent basis, Debye):
    X=              5.5035    Y=              1.9848    Z=             -3.5236  Tot=              6.8296
 Quadrupole moment (field-independent basis, Debye-Ang):
   XX=           -571.0684   YY=           -509.7483   ZZ=           -478.6143
   XY=             18.7419   XZ=            -54.1797   YZ=            -46.5618

 Normal termination of Gaussian 16 at Thu Sep  2 04:15:42 2021.
