 Gaussian 16, Revision A.03,
 Gaussian 16:  ES64L-G16RevA.03 25-Dec-2016

 ----------------------------------------------------------
 #p cam-b3lyp/Def2SVP td=(nstates=5) density=(transition=1)
 ----------------------------------------------------------

 --------------------------------
 TDDFT excited states in gaussian
 --------------------------------
 Symbolic Z-matrix:
 Charge =  0 Multiplicity = 1

                         Standard orientation:
 ---------------------------------------------------------------------
 Center     Atomic      Atomic             Coordinates (Angstroms)
 Number     Number       Type             X           Y           Z
 ---------------------------------------------------------------------
      1         12           0       -0.713334    0.139503    0.370142
      2          6           0        2.777719    0.024653    0.223510
      3          6           0       -0.729155   -3.296722    0.055745
      4          6           0       -4.077530    0.242370   -0.197895
      5          6           0       -0.540041    3.580217    0.017392
      6          7           0        0.853123   -1.383970    0.260285
      7          6           0        2.169328   -1.209056    0.434424
      8          6           0        2.961279   -2.501536    0.680797
      9          6           0        1.852332   -3.595983    0.438250
     10          6           0        0.484815   -2.717500    0.322975
     11          6           0        2.040359   -4.536776   -0.771399
     12          6           0        3.636177   -2.584653    2.050077
     13          6           0        4.880761   -3.490729    2.060815
     14          1           0        5.295580   -4.212396    0.770846
     15          7           0       -2.223600   -1.303079    0.094166
     16          6           0       -2.037398   -2.704309    0.058767
     17          6           0       -3.336130   -3.332377   -0.078529
     18          6           0       -4.337524   -2.300948   -0.222349
     19          6           0       -3.582029   -1.057685   -0.076860
     20          6           0       -3.489971   -4.824784    0.025998
     21          6           0       -5.925263   -2.406548   -0.323758
     22          8           0       -6.664704   -1.452787   -0.298085
     23          6           0       -6.495833   -3.799814   -0.476455
     24          7           0       -2.081363    1.663974   -0.122553
     25          6           0       -3.425628    1.486261   -0.272426
     26          6           0       -4.185537    2.845134   -0.497581
     27          6           0       -3.044765    3.850937   -0.352086
     28          6           0       -1.823142    2.975024   -0.147078
     29          6           0       -5.123662    3.070096   -1.751185
     30          6           0       -3.288850    4.806539    0.839366
     31          6           0       -2.921031    4.333510    2.263219
     32          7           0        0.772131    1.615013    0.306145
     33          6           0        0.702772    2.976405    0.161333
     34          6           0        2.000730    3.563426    0.167803
     35          6           0        2.902812    2.406651    0.185708
     36          6           0        2.119008    1.320656    0.241811
     37          6           0        2.438007    4.960420    0.122621
     38          6           0        4.286105    1.967693    0.064056
     39          8           0        5.330857    2.627416    0.055635
     40          6           0        4.294247    0.410790    0.088414
     41          6           0        4.924999   -0.140329   -1.106595
     42          8           0        4.411795   -0.232868   -2.216685
     43          8           0        6.261374   -0.333217   -0.861219
     44          6           0        7.198984   -0.479669   -1.991493
     45          1           0       -0.636700   -4.377774   -0.069342
     46          1           0       -5.168410    0.291024   -0.194985
     47          1           0       -0.482981    4.670603    0.003908
     48          1           0        3.684759   -2.686089   -0.112995
     49          1           0        1.628336   -4.188721    1.324428
     50          1           0        1.944690   -5.504758   -0.279826
     51          1           0        3.033079   -4.414660   -1.203982
     52          1           0        1.284280   -4.338321   -1.531142
     53          1           0        2.947116   -2.913653    2.826992
     54          1           0        3.957967   -1.593446    2.370668
     55          1           0        4.600255   -4.202790    2.837227
     56          1           0        5.749088   -2.984429    2.484862
     57          1           0       -2.475276   -5.222679    0.008452
     58          1           0       -4.081860   -5.180755   -0.817510
     59          1           0       -4.009033   -5.138124    0.933052
     60          1           0       -6.396144   -4.273439   -1.453646
     61          1           0       -7.539175   -3.765585   -0.162841
     62          1           0       -5.927910   -4.354462    0.270411
     63          1           0       -4.853761    2.846278    0.363267
     64          1           0       -3.003009    4.403498   -1.290026
     65          1           0       -4.951163    4.002517   -2.287419
     66          1           0       -6.151635    3.131264   -1.395344
     67          1           0       -5.040497    2.188441   -2.387388
     68          1           0       -4.346362    5.062810    0.788098
     69          1           0       -2.729331    5.707769    0.587001
     70          1           0       -3.744604    4.682465    2.885641
     71          1           0       -2.013950    4.796283    2.651315
     72          1           0       -2.730526    3.264115    2.346649
     73          1           0        3.262687    5.069980    0.826029
     74          1           0        1.671707    5.701909    0.348834
     75          1           0        2.930897    5.164105   -0.828168
     76          1           0        4.837225    0.165925    1.001154
     77          1           0        6.687230   -0.474943   -2.954507
     78          1           0        7.692129   -1.446547   -1.888246
     79          1           0        7.837021    0.390455   -1.840981
 ---------------------------------------------------------------------

 SCF Done:  E(RCAM-B3LYP) =  -2034.91897101     A.U. after   17 cycles

 Excitation energies and oscillator strengths:

 Excited State   1:      Singlet-A      1.7177 eV  721.80 nm  f=0.4111  <S**2>=0.000
     155 ->158         0.18163
     156 ->157         0.68396
     155 <-158         0.10679
 This state for optimization and/or second-order correction.
 Total Energy, E(TD-HF/TD-DFT) =  -2034.85584613
 Copying the excited state density for this state as the 1-particle RhoCI density.

 Excited State   2:      Singlet-A      2.1355 eV  580.59 nm  f=0.1580  <S**2>=0.000
     155 ->157         0.65940
     156 ->158        -0.23547

 Excited State   3:      Singlet-A      3.0860 eV  401.76 nm  f=0.0061  <S**2>=0.000
     153 ->157        -0.11799
     154 ->157         0.68284

 Excited State   4:      Singlet-A      3.3408 eV  371.12 nm  f=0.0078  <S**2>=0.000
     153 ->157         0.67678
     154 ->157         0.10220
     156 ->158         0.11388

 Excited State   5:      Singlet-A      3.5497 eV  349.28 nm  f=0.0002  <S**2>=0.000
     151 ->157        -0.12790
     152 ->157         0.57202
     152 ->159        -0.30364
     152 ->160        -0.17963

 The electronic state is 1-A.
 Alpha  occ. eigenvalues --  -46.88240 -19.23871 -19.19940 -19.18983 -19.18702
 Alpha  occ. eigenvalues --  -14.42276 -14.41888 -14.39426 -14.38160 -10.38680
 Alpha  occ. eigenvalues --  -10.36183 -10.35082 -10.31165 -10.30882 -10.30875
 Alpha  occ. eigenvalues --  -10.30706 -10.30668 -10.30314 -10.29867 -10.28870
 Alpha  occ. eigenvalues --  -10.28849 -10.28572 -10.28268 -10.28150 -10.28107
 Alpha  occ. eigenvalues --  -10.27772 -10.27658 -10.27571 -10.27566 -10.27418
 Alpha  occ. eigenvalues --  -10.27121 -10.26998 -10.26944 -10.26910 -10.26588
 Alpha  occ. eigenvalues --  -10.26342 -10.26319 -10.25979 -10.25914 -10.25845
 Alpha  occ. eigenvalues --  -10.25795 -10.25468 -10.24755  -3.16765  -1.91666
 Alpha  occ. eigenvalues --   -1.91217  -1.91071  -1.15087  -1.11578  -1.08863
 Alpha  occ. eigenvalues --   -1.06641  -1.04446  -1.03325  -1.02444  -1.01018
 Alpha  occ. eigenvalues --   -0.92072  -0.89179  -0.88805  -0.88136  -0.87092
 Alpha  occ. eigenvalues --   -0.86456  -0.86084  -0.84198  -0.83435  -0.82336
 Alpha  occ. eigenvalues --   -0.81962  -0.80997  -0.80169  -0.78124  -0.77137
 Alpha  occ. eigenvalues --   -0.76836  -0.75899  -0.75010  -0.72429  -0.71090
 Alpha  occ. eigenvalues --   -0.69817  -0.68446  -0.67684  -0.66075  -0.64764
 Alpha  occ. eigenvalues --   -0.64699  -0.64440  -0.63724  -0.61398  -0.59769
 Alpha  occ. eigenvalues --   -0.59089  -0.59080  -0.58314  -0.57665  -0.57408
 Alpha  occ. eigenvalues --   -0.55853  -0.55434  -0.55169  -0.54659  -0.53703
 Alpha  occ. eigenvalues --   -0.53346  -0.52866  -0.52677  -0.52324  -0.52132
 Alpha  occ. eigenvalues --   -0.51974  -0.51609  -0.50801  -0.50635  -0.50221
 Alpha  occ. eigenvalues --   -0.49667  -0.49580  -0.49364  -0.49057  -0.48999
 Alpha  occ. eigenvalues --   -0.48540  -0.48228  -0.48126  -0.47621  -0.47110
 Alpha  occ. eigenvalues --   -0.46744  -0.46254  -0.46122  -0.45823  -0.45644
 Alpha  occ. eigenvalues --   -0.45244  -0.45026  -0.44640  -0.44265  -0.43963
 Alpha  occ. eigenvalues --   -0.43639  -0.43403  -0.43184  -0.43054  -0.42786
 Alpha  occ. eigenvalues --   -0.42671  -0.42360  -0.41925  -0.41496  -0.41095
 Alpha  occ. eigenvalues --   -0.40883  -0.40611  -0.40228  -0.39912  -0.38512
 Alpha  occ. eigenvalues --   -0.38388  -0.37838  -0.37686  -0.36625  -0.36119
 Alpha  occ. eigenvalues --   -0.35670  -0.34316  -0.33797  -0.33272  -0.31600
 Alpha  occ. eigenvalues --   -0.30880  -0.30814  -0.29601  -0.28651  -0.23510
 Alpha  occ. eigenvalues --   -0.21314
 Alpha virt. eigenvalues --   -0.08910  -0.01308   0.00606   0.02496   0.02614
 Alpha virt. eigenvalues --    0.05145   0.05335   0.06011   0.07192   0.08031
 Alpha virt. eigenvalues --    0.08710   0.09030   0.09269   0.09820   0.10664

 Mulliken charges:
               1
     1  Mg  12.003014
     2  C    5.978823
     3  C    6.020765
     4  C    6.023321
     5  C    5.993962
     6  N    6.993940
     7  C    6.035365
     8  C    5.985237
     9  C    6.002690
    10  C    5.971087
    11  C    6.002945
    12  C    5.997585
    13  C    5.998664
    14  H    1.004762
    15  N    7.005489
    16  C    5.953832
    17  C    5.981569
    18  C    5.979142
    19  C    5.964619
    20  C    6.006286
    21  C    5.985809
    22  O    7.973663
    23  C    6.004588
    24  N    7.007873
    25  C    5.960238
    26  C    6.009911
    27  C    5.988303
    28  C    6.031766
    29  C    5.998499
    30  C    5.994983
    31  C    5.993207
    32  N    6.999315
    33  C    6.029935
    34  C    6.039179
    35  C    6.001991
    36  C    6.025420
    37  C    5.992393
    38  C    6.013443
    39  O    8.026615
    40  C    6.002430
    41  C    6.005268
    42  O    8.006720
    43  O    8.000447
    44  C    5.998201
    45  H    0.989711
    46  H    0.994048
    47  H    1.010943
    48  H    1.001829
    49  H    1.000955
    50  H    0.998684
    51  H    0.987089
    52  H    1.003148
    53  H    1.008943
    54  H    0.992024
    55  H    1.004711
    56  H    0.997677
    57  H    0.981120
    58  H    0.979999
    59  H    0.977808
    60  H    0.989495
    61  H    0.984634
    62  H    0.997991
    63  H    1.001306
    64  H    1.004086
    65  H    0.989512
    66  H    0.999992
    67  H    1.004070
    68  H    1.012477
    69  H    0.996835
    70  H    1.008856
    71  H    0.994384
    72  H    1.007598
    73  H    1.021696
    74  H    1.021599
    75  H    1.026156
    76  H    1.007303
    77  H    1.003517
    78  H    1.006368
    79  H    1.000140
 Sum of Mulliken charges = 312.00000

 Dipole moment (field-independent basis, Debye):
    X=              8.0070    Y=              7.8712    Z=              0.4010  Tot=             11.2351
 Quadrupole moment (field-independent basis, Debye-Ang):
   XX=            -10.6035   YY=              2.6601   ZZ=              0.5247
   XY=             -5.8686   XZ=             -1.6840   YZ=              0.5609

 Normal termination of Gaussian 16 at Fri Oct  8 17:08:41 2021.
