 Gaussian 16, Revision A.03,
 Gaussian 16:  ES64L-G16RevA.03 25-Dec-2016

 ----------------------------------------------------------
 #p cam-b3lyp/Def2SVP td=(nstates=5) density=(transition=1)
 ----------------------------------------------------------

 --------------------------------
 TDDFT excited states in gaussian
 --------------------------------
 Symbolic Z-matrix:
 Charge =  0 Multiplicity = 1

                         Standard orientation:
 ---------------------------------------------------------------------
 Center     Atomic      Atomic             Coordinates (Angstroms)
 Number     Number       Type             X           Y           Z
 ---------------------------------------------------------------------
      1         12           0       30.040475    0.437750   -0.074749
      2          6           0       27.775523   -2.271762    0.233891
      3          6           0       27.740814    2.381220    1.494359
      4          6           0       32.498924    2.746338    0.356335
      5          6           0       32.429350   -1.819468   -1.175197
      6          7           0       28.053835   -0.068162    0.875977
      7          6           0       27.254468   -1.178699    0.814329
      8          6           0       25.915623   -0.934794    1.405053
      9          6           0       25.840319    0.662191    1.486591
     10          6           0       27.273101    1.025697    1.294736
     11          6           0       24.905780    1.240084    0.436037
     12          6           0       25.851716   -1.713890    2.728135
     13          6           0       24.643033   -2.722153    2.929149
     14          1           0       23.701721   -2.621838    4.167120
     15          7           0       30.161776    2.324601    0.747221
     16          6           0       29.043519    2.985802    1.273843
     17          6           0       29.421715    4.343338    1.528817
     18          6           0       30.820024    4.499600    1.242572
     19          6           0       31.200181    3.173431    0.686427
     20          6           0       28.396569    5.361502    2.011323
     21          6           0       31.695134    5.721111    1.413897
     22          8           0       31.053621    6.755867    1.757726
     23          6           0       33.244005    5.828266    1.328274
     24          7           0       32.200591    0.487266   -0.373871
     25          6           0       32.976556    1.570887   -0.151264
     26          6           0       34.479749    1.315798   -0.439456
     27          6           0       34.430591   -0.130727   -1.041803
     28          6           0       32.902167   -0.538728   -0.796146
     29          6           0       35.002883    2.372543   -1.395784
     30          6           0       35.354526   -1.123660   -0.405252
     31          6           0       36.471964   -1.578543   -1.304328
     32          7           0       30.121967   -1.524934   -0.577862
     33          6           0       31.132856   -2.358722   -1.072501
     34          6           0       30.644595   -3.577055   -1.476650
     35          6           0       29.311619   -3.581644   -1.017545
     36          6           0       29.072820   -2.349073   -0.414078
     37          6           0       31.419908   -4.547470   -2.342406
     38          6           0       28.054946   -4.376813   -1.021785
     39          8           0       27.840984   -5.447687   -1.499205
     40          6           0       27.090801   -3.519759   -0.117264
     41          6           0       25.721177   -3.573743   -0.758247
     42          8           0       24.783161   -4.257579   -0.348444
     43          8           0       25.658826   -2.687795   -1.861179
     44          6           0       24.317213   -2.609467   -2.438389
     45          1           0       26.942868    3.065559    1.790879
     46          1           0       33.299508    3.489285    0.383603
     47          1           0       33.161299   -2.618903   -1.302993
     48          1           0       25.147875   -1.320952    0.734452
     49          1           0       25.453130    0.933121    2.468462
     50          1           0       24.947736    0.710486   -0.514744
     51          1           0       25.241013    2.250559    0.199874
     52          1           0       23.873384    1.337774    0.771690
     53          1           0       25.825004   -0.976776    3.530532
     54          1           0       26.771263   -2.246467    2.970824
     55          1           0       25.193846   -3.660936    2.992893
     56          1           0       24.089832   -2.850645    1.999540
     57          1           0       27.843886    4.984039    2.871665
     58          1           0       27.691876    5.491332    1.190038
     59          1           0       28.771356    6.312747    2.391661
     60          1           0       33.443384    5.678936    0.267598
     61          1           0       33.680220    5.028508    1.926887
     62          1           0       33.619673    6.779683    1.705749
     63          1           0       35.115624    1.358939    0.444436
     64          1           0       34.519069   -0.083705   -2.126884
     65          1           0       34.727245    3.347392   -0.993195
     66          1           0       34.522516    2.221433   -2.363019
     67          1           0       36.053333    2.360578   -1.684023
     68          1           0       34.863757   -2.051166   -0.110321
     69          1           0       35.835799   -0.820260    0.524285
     70          1           0       37.411850   -1.409277   -0.780357
     71          1           0       36.552899   -0.981822   -2.212885
     72          1           0       36.378493   -2.609303   -1.647890
     73          1           0       30.680750   -5.230527   -2.762187
     74          1           0       32.156344   -5.113439   -1.772429
     75          1           0       31.907234   -3.921325   -3.089439
     76          1           0       26.980871   -4.159999    0.758776
     77          1           0       24.165155   -1.644283   -2.921689
     78          1           0       23.551528   -2.595288   -1.664040
     79          1           0       24.095311   -3.432584   -3.118166
     80         12           0      -29.342194   -0.397729    0.598394
     81          6           0      -28.618018    2.020834   -1.946351
     82          6           0      -28.690082   -2.788820   -1.555442
     83          6           0      -30.809542   -2.410575    2.784664
     84          6           0      -30.368106    2.464136    2.668654
     85          7           0      -28.679088   -0.367026   -1.498182
     86          6           0      -28.468596    0.712866   -2.378564
     87          6           0      -28.031060    0.275944   -3.827632
     88          6           0      -28.015575   -1.355283   -3.581693
     89          6           0      -28.466846   -1.558911   -2.138816
     90          6           0      -28.977434   -2.125526   -4.584693
     91          6           0      -26.691742    0.899442   -4.354350
     92          6           0      -26.054577    0.192082   -5.544441
     93          1           0      -26.032184    1.015656   -6.845134
     94          7           0      -29.608629   -2.356331    0.646573
     95          6           0      -29.264732   -3.270478   -0.321407
     96          6           0      -29.560143   -4.631261    0.074629
     97          6           0      -30.179233   -4.485805    1.378927
     98          6           0      -30.147682   -3.009996    1.678913
     99          6           0      -29.229215   -5.845620   -0.657626
    100          6           0      -30.711562   -5.543366    2.330278
    101          8           0      -31.098548   -5.314081    3.441759
    102          6           0      -30.807610   -6.926632    1.743509
    103          7           0      -30.495723   -0.021169    2.441681
    104          6           0      -30.958657   -1.072172    3.164306
    105          6           0      -31.607543   -0.592214    4.490089
    106          6           0      -31.319753    0.949244    4.465245
    107          6           0      -30.635717    1.158092    3.127910
    108          6           0      -33.121613   -0.914397    4.731720
    109          6           0      -30.427857    1.505288    5.630817
    110          6           0      -31.191219    1.661173    6.964678
    111          7           0      -29.512604    1.759595    0.465396
    112          6           0      -29.850467    2.744197    1.365070
    113          6           0      -29.604925    4.002437    0.780842
    114          6           0      -29.192202    3.814285   -0.484780
    115          6           0      -29.155912    2.401535   -0.688797
    116          6           0      -29.749844    5.287750    1.585147
    117          6           0      -28.810731    4.393920   -1.776593
    118          8           0      -28.732960    5.543281   -2.126642
    119          6           0      -28.443968    3.203008   -2.784622
    120          6           0      -29.503137    3.174195   -3.839940
    121          8           0      -30.582832    2.628946   -3.884645
    122          8           0      -28.976654    3.910470   -4.882696
    123          6           0      -29.809527    4.042408   -6.101778
    124          1           0      -28.547367   -3.649375   -2.212173
    125          1           0      -31.403496   -3.104133    3.384742
    126          1           0      -30.612991    3.195573    3.442294
    127          1           0      -28.868001    0.472052   -4.498040
    128          1           0      -27.004795   -1.712929   -3.779329
    129          1           0      -28.465959   -3.007968   -4.968815
    130          1           0      -29.414330   -1.582362   -5.422240
    131          1           0      -29.814210   -2.564119   -4.041923
    132          1           0      -26.106360    0.881886   -3.434122
    133          1           0      -26.675190    1.961345   -4.600663
    134          1           0      -26.599891   -0.730179   -5.742873
    135          1           0      -24.992579    0.057897   -5.340749
    136          1           0      -28.510175   -6.278805    0.037630
    137          1           0      -28.832106   -5.613395   -1.645914
    138          1           0      -30.017703   -6.582186   -0.810748
    139          1           0      -29.901310   -7.482765    1.982793
    140          1           0      -31.277311   -6.953075    0.759830
    141          1           0      -31.711244   -7.322155    2.206449
    142          1           0      -30.924783   -0.924960    5.272464
    143          1           0      -32.263499    1.483083    4.351431
    144          1           0      -33.778939   -0.058570    4.887997
    145          1           0      -33.154154   -1.413689    5.699838
    146          1           0      -33.601465   -1.513364    3.957724
    147          1           0      -30.058972    2.494141    5.360742
    148          1           0      -29.583147    0.817376    5.688066
    149          1           0      -32.264342    1.725563    6.783744
    150          1           0      -30.778233    2.550792    7.440054
    151          1           0      -31.090267    0.810499    7.639332
    152          1           0      -29.107077    6.074569    1.190193
    153          1           0      -29.530897    5.072683    2.631097
    154          1           0      -30.793581    5.601415    1.613814
    155          1           0      -27.444932    3.322859   -3.204417
    156          1           0      -29.675868    5.071660   -6.434524
    157          1           0      -30.869343    3.841721   -5.945591
    158          1           0      -29.305036    3.313354   -6.736627
 ---------------------------------------------------------------------

 SCF Done:  E(RCAM-B3LYP) =  -4069.81744438     A.U. after   19 cycles

 Excitation energies and oscillator strengths:

 Excited State   1:      Singlet-A      1.6837 eV  736.38 nm  f=0.3534  <S**2>=0.000
     309 -> 315        0.17392
     311 -> 313        0.68680
     309 <- 315        0.10794
 This state for optimization and/or second-order correction.
 Total Energy, E(TD-HF/TD-DFT) =  -4069.75556960
 Copying the excited state density for this state as the 1-particle RhoCI density.

 Excited State   2:      Singlet-A      1.6973 eV  730.49 nm  f=0.4051  <S**2>=0.000
     310 -> 316       -0.17773
     312 -> 314        0.68632
     310 <- 316       -0.10764

 Excited State   3:      Singlet-A      2.2114 eV  560.66 nm  f=0.1394  <S**2>=0.000
     310 -> 314        0.65076
     312 -> 316        0.26506

 Excited State   4:      Singlet-A      2.2196 eV  558.59 nm  f=0.1591  <S**2>=0.000
     309 -> 313        0.64871
     311 -> 315       -0.26684

 Excited State   5:      Singlet-A      3.0002 eV  413.26 nm  f=0.0000  <S**2>=0.000
     312 -> 313        0.70711

 The electronic state is 1-A.
 Alpha  occ. eigenvalues --  -46.89035 -46.88566 -19.25657 -19.23838 -19.21037
 Alpha  occ. eigenvalues --  -19.19918 -19.19882 -19.19105 -19.18944 -19.18329
 Alpha  occ. eigenvalues --  -14.42397 -14.42257 -14.42185 -14.41316 -14.40115
 Alpha  occ. eigenvalues --  -14.39622 -14.39025 -14.38844 -10.40382 -10.38971
 Alpha  occ. eigenvalues --  -10.35689 -10.35507 -10.35263 -10.34765 -10.32013
 Alpha  occ. eigenvalues --  -10.31692 -10.31200 -10.31150 -10.30907 -10.30882
 Alpha  occ. eigenvalues --  -10.30861 -10.30694 -10.30662 -10.30578 -10.30363
 Alpha  occ. eigenvalues --  -10.30184 -10.30101 -10.30099 -10.29376 -10.29087
 Alpha  occ. eigenvalues --  -10.29085 -10.28903 -10.28890 -10.28854 -10.28759
 Alpha  occ. eigenvalues --  -10.28597 -10.28569 -10.28564 -10.28483 -10.28431
 Alpha  occ. eigenvalues --  -10.28355 -10.28347 -10.28231 -10.28013 -10.27753
 Alpha  occ. eigenvalues --  -10.27745 -10.27663 -10.27506 -10.27398 -10.27327
 Alpha  occ. eigenvalues --  -10.27179 -10.27060 -10.26998 -10.26990 -10.26938
 Alpha  occ. eigenvalues --  -10.26817 -10.26785 -10.26775 -10.26763 -10.26747
 Alpha  occ. eigenvalues --  -10.26735 -10.26700 -10.26614 -10.26517 -10.26321
 Alpha  occ. eigenvalues --  -10.26150 -10.25979 -10.25877 -10.25706 -10.25595
 Alpha  occ. eigenvalues --  -10.25560 -10.25545 -10.25394 -10.25228 -10.25111
 Alpha  occ. eigenvalues --  -10.24702  -3.17598  -3.17109  -1.92479  -1.92059
 Alpha  occ. eigenvalues --   -1.92005  -1.91904  -1.91545  -1.91433  -1.15701
 Alpha  occ. eigenvalues --   -1.15618  -1.12070  -1.11362  -1.10787  -1.07981
 Alpha  occ. eigenvalues --   -1.07655  -1.07462  -1.05281  -1.04301  -1.03803
 Alpha  occ. eigenvalues --   -1.03385  -1.03292  -1.02780  -1.02499  -1.01588
 Alpha  occ. eigenvalues --   -0.93346  -0.93011  -0.89962  -0.89350  -0.89091
 Alpha  occ. eigenvalues --   -0.88926  -0.88245  -0.88118  -0.87893  -0.87143
 Alpha  occ. eigenvalues --   -0.87041  -0.86841  -0.86017  -0.85982  -0.84867
 Alpha  occ. eigenvalues --   -0.84308  -0.83891  -0.83187  -0.82663  -0.82173
 Alpha  occ. eigenvalues --   -0.82045  -0.81979  -0.80733  -0.80705  -0.80526
 Alpha  occ. eigenvalues --   -0.80072  -0.78109  -0.77843  -0.77491  -0.76970
 Alpha  occ. eigenvalues --   -0.76929  -0.76638  -0.76529  -0.75539  -0.75539
 Alpha  occ. eigenvalues --   -0.74814  -0.73557  -0.72766  -0.72257  -0.71318
 Alpha  occ. eigenvalues --   -0.69639  -0.69443  -0.69019  -0.68746  -0.67746
 Alpha  occ. eigenvalues --   -0.67717  -0.67268  -0.66952  -0.66382  -0.65727
 Alpha  occ. eigenvalues --   -0.65384  -0.65040  -0.64965  -0.64604  -0.64410
 Alpha  occ. eigenvalues --   -0.63885  -0.63155  -0.61456  -0.60563  -0.60127
 Alpha  occ. eigenvalues --   -0.60076  -0.59628  -0.59469  -0.58993  -0.58815
 Alpha  occ. eigenvalues --   -0.58328  -0.58090  -0.57838  -0.56922  -0.56869
 Alpha  occ. eigenvalues --   -0.56261  -0.56125  -0.55861  -0.55765  -0.55662
 Alpha  occ. eigenvalues --   -0.54997  -0.54981  -0.54460  -0.54382  -0.54276
 Alpha  occ. eigenvalues --   -0.54126  -0.53933  -0.53655  -0.53622  -0.53239
 Alpha  occ. eigenvalues --   -0.52732  -0.52654  -0.52374  -0.52318  -0.52078
 Alpha  occ. eigenvalues --   -0.51944  -0.51747  -0.51617  -0.51333  -0.51154
 Alpha  occ. eigenvalues --   -0.50992  -0.50910  -0.50577  -0.50538  -0.50323
 Alpha  occ. eigenvalues --   -0.50185  -0.50075  -0.49900  -0.49797  -0.49690
 Alpha  occ. eigenvalues --   -0.49670  -0.49479  -0.49150  -0.48944  -0.48824
 Alpha  occ. eigenvalues --   -0.48681  -0.48402  -0.48374  -0.48028  -0.47964
 Alpha  occ. eigenvalues --   -0.47808  -0.47762  -0.47744  -0.47246  -0.47049
 Alpha  occ. eigenvalues --   -0.46919  -0.46751  -0.46638  -0.46493  -0.46334
 Alpha  occ. eigenvalues --   -0.46052  -0.45941  -0.45888  -0.45779  -0.45740
 Alpha  occ. eigenvalues --   -0.45527  -0.45442  -0.45340  -0.45296  -0.45184
 Alpha  occ. eigenvalues --   -0.45171  -0.45036  -0.44918  -0.44840  -0.44713
 Alpha  occ. eigenvalues --   -0.44085  -0.44000  -0.43976  -0.43808  -0.43698
 Alpha  occ. eigenvalues --   -0.43472  -0.43300  -0.43180  -0.42755  -0.42684
 Alpha  occ. eigenvalues --   -0.42545  -0.42532  -0.42468  -0.42442  -0.42105
 Alpha  occ. eigenvalues --   -0.42067  -0.41812  -0.41766  -0.41615  -0.41611
 Alpha  occ. eigenvalues --   -0.41424  -0.41142  -0.41112  -0.40943  -0.40772
 Alpha  occ. eigenvalues --   -0.40469  -0.40162  -0.39336  -0.39068  -0.38805
 Alpha  occ. eigenvalues --   -0.38784  -0.38253  -0.38097  -0.37841  -0.37749
 Alpha  occ. eigenvalues --   -0.37360  -0.37285  -0.37005  -0.36538  -0.36454
 Alpha  occ. eigenvalues --   -0.36338  -0.35730  -0.35445  -0.34728  -0.34634
 Alpha  occ. eigenvalues --   -0.33933  -0.33218  -0.32587  -0.31777  -0.31308
 Alpha  occ. eigenvalues --   -0.31154  -0.30827  -0.30610  -0.30565  -0.30105
 Alpha  occ. eigenvalues --   -0.30047  -0.29818  -0.29736  -0.24440  -0.23584
 Alpha  occ. eigenvalues --   -0.21672  -0.20956
 Alpha virt. eigenvalues --   -0.09356  -0.08529  -0.01861  -0.01126   0.00201
 Alpha virt. eigenvalues --    0.00885   0.01772   0.02377   0.02471   0.02680
 Alpha virt. eigenvalues --    0.04118   0.04949   0.04992   0.05680   0.05856

 Mulliken charges:
               1
     1  Mg  12.001561
     2  C    5.973219
     3  C    6.001521
     4  C    6.039200
     5  C    6.012994
     6  N    6.972349
     7  C    6.030090
     8  C    5.989850
     9  C    6.016797
    10  C    5.973970
    11  C    6.005135
    12  C    5.994529
    13  C    6.000572
    14  H    1.005603
    15  N    7.010229
    16  C    5.956873
    17  C    5.980329
    18  C    5.991087
    19  C    5.951228
    20  C    6.003933
    21  C    5.989094
    22  O    7.980345
    23  C    5.998139
    24  N    7.018480
    25  C    5.958325
    26  C    6.011817
    27  C    5.993237
    28  C    6.018945
    29  C    6.003923
    30  C    5.994614
    31  C    5.997797
    32  N    6.998804
    33  C    6.029301
    34  C    6.028731
    35  C    6.005015
    36  C    6.038253
    37  C    5.999412
    38  C    6.018076
    39  O    8.026515
    40  C    6.003476
    41  C    6.003428
    42  O    8.006327
    43  O    7.997970
    44  C    5.996644
    45  H    0.984594
    46  H    0.999184
    47  H    1.015799
    48  H    0.998394
    49  H    0.994432
    50  H    0.984490
    51  H    1.004906
    52  H    0.989081
    53  H    1.011197
    54  H    0.996256
    55  H    0.995221
    56  H    0.998421
    57  H    0.981979
    58  H    0.981391
    59  H    0.984348
    60  H    0.990034
    61  H    0.989925
    62  H    0.989230
    63  H    0.998959
    64  H    1.002008
    65  H    1.008123
    66  H    0.994766
    67  H    0.993149
    68  H    0.994585
    69  H    1.011108
    70  H    1.007264
    71  H    1.005409
    72  H    0.997752
    73  H    1.015306
    74  H    1.021003
    75  H    1.016521
    76  H    1.004617
    77  H    1.007023
    78  H    1.005625
    79  H    1.000163
    80  Mg  12.000004
    81  C    5.999655
    82  C    6.000164
    83  C    6.000249
    84  C    5.999815
    85  N    6.999872
    86  C    6.000392
    87  C    5.999806
    88  C    6.000176
    89  C    5.999663
    90  C    6.000011
    91  C    5.999974
    92  C    6.000008
    93  H    1.000001
    94  N    7.000068
    95  C    5.999468
    96  C    5.999835
    97  C    5.999736
    98  C    5.999665
    99  C    6.000103
   100  C    5.999803
   101  O    7.999654
   102  C    6.000126
   103  N    7.000005
   104  C    5.999594
   105  C    6.000166
   106  C    5.999878
   107  C    6.000366
   108  C    6.000006
   109  C    5.999913
   110  C    6.000017
   111  N    6.999983
   112  C    6.000459
   113  C    6.000305
   114  C    6.000014
   115  C    6.000517
   116  C    5.999937
   117  C    6.000260
   118  O    8.000344
   119  C    6.000082
   120  C    5.999979
   121  O    8.000091
   122  O    8.000015
   123  C    5.999977
   124  H    0.999865
   125  H    0.999935
   126  H    1.000155
   127  H    1.000064
   128  H    0.999936
   129  H    0.999982
   130  H    0.999853
   131  H    1.000068
   132  H    1.000026
   133  H    0.999954
   134  H    1.000077
   135  H    1.000033
   136  H    0.999772
   137  H    0.999757
   138  H    0.999735
   139  H    0.999856
   140  H    0.999912
   141  H    0.999809
   142  H    0.999990
   143  H    1.000000
   144  H    0.999890
   145  H    0.999987
   146  H    1.000048
   147  H    0.999946
   148  H    1.000113
   149  H    1.000033
   150  H    1.000013
   151  H    1.000083
   152  H    1.000204
   153  H    1.000230
   154  H    1.000269
   155  H    1.000110
   156  H    1.000040
   157  H    1.000034
   158  H    1.000067
 Sum of Mulliken charges = 624.00000

 Dipole moment (field-independent basis, Debye):
    X=              1.5530    Y=             -9.7529    Z=             -3.6266  Tot=             10.5206
 Quadrupole moment (field-independent basis, Debye-Ang):
   XX=             94.1239   YY=             -8.5391   ZZ=              0.4089
   XY=           -300.3285   XZ=           -108.4372   YZ=             -1.6111

 Normal termination of Gaussian 16 at Wed Sep 22 18:06:12 2021.
