 Gaussian 16, Revision A.03,
 Gaussian 16:  ES64L-G16RevA.03 25-Dec-2016

 -----------------------------------
 #p cam-b3lyp/Def2SVP td=(nstates=5)
 -----------------------------------

 --------------------------------
 TDDFT excited states in gaussian
 --------------------------------
 Symbolic Z-matrix:
 Charge =  0 Multiplicity = 1

                         Standard orientation:
 ---------------------------------------------------------------------
 Center     Atomic      Atomic             Coordinates (Angstroms)
 Number     Number       Type             X           Y           Z
 ---------------------------------------------------------------------
      1         12           0      -28.510890    0.248817    0.310285
      2          6           0      -26.734319   -1.892736   -1.696534
      3          6           0      -28.106116    2.699144   -2.053923
      4          6           0      -30.206823    2.460342    2.374533
      5          6           0      -28.507103   -2.117474    2.844257
      6          7           0      -27.475521    0.431110   -1.672074
      7          6           0      -26.901372   -0.641562   -2.292681
      8          6           0      -26.410983   -0.280635   -3.610643
      9          6           0      -26.619032    1.221332   -3.723912
     10          6           0      -27.430391    1.527293   -2.389801
     11          6           0      -25.363939    2.146732   -3.886124
     12          6           0      -27.119797   -1.104991   -4.738718
     13          6           0      -26.269692   -1.451177   -6.009721
     14          1           0      -25.138139   -0.475199   -6.387464
     15          7           0      -29.165278    2.274960    0.096996
     16          6           0      -28.893310    3.093170   -0.986048
     17          6           0      -29.494879    4.420293   -0.744504
     18          6           0      -30.131494    4.364939    0.569822
     19          6           0      -29.877538    3.001392    1.066579
     20          6           0      -29.399861    5.599471   -1.698876
     21          6           0      -30.986978    5.424267    1.224634
     22          8           0      -31.520345    5.177064    2.320468
     23          6           0      -31.222481    6.780621    0.673363
     24          7           0      -29.190744    0.224551    2.352765
     25          6           0      -29.888242    1.218557    2.910081
     26          6           0      -30.422787    0.802441    4.290599
     27          6           0      -30.106975   -0.788742    4.386152
     28          6           0      -29.276369   -0.923480    3.061498
     29          6           0      -29.792276    1.664116    5.427676
     30          6           0      -31.349620   -1.720212    4.354421
     31          6           0      -31.650259   -2.473892    5.658633
     32          7           0      -27.722676   -1.621199    0.603598
     33          6           0      -27.782575   -2.481622    1.702286
     34          6           0      -27.074751   -3.745235    1.398957
     35          6           0      -26.648289   -3.506401    0.071210
     36          6           0      -27.054465   -2.213897   -0.355984
     37          6           0      -26.933019   -4.922912    2.231119
     38          6           0      -26.008101   -4.153079   -1.092885
     39          8           0      -25.587554   -5.267547   -1.256723
     40          6           0      -26.007471   -3.105811   -2.262888
     41          6           0      -24.627310   -2.954769   -2.750855
     42          8           0      -23.779695   -2.365848   -2.060747
     43          8           0      -24.421727   -3.375451   -4.029107
     44          6           0      -23.142534   -3.080710   -4.667032
     45          1           0      -27.960432    3.456538   -2.826969
     46          1           0      -30.706606    3.182368    3.024022
     47          1           0      -28.642576   -2.874257    3.619615
     48          1           0      -25.342422   -0.496561   -3.639649
     49          1           0      -27.361982    1.462755   -4.484963
     50          1           0      -24.353677    1.741084   -3.949196
     51          1           0      -25.366788    2.859571   -3.061895
     52          1           0      -25.431199    2.824198   -4.737727
     53          1           0      -28.057940   -0.621005   -5.010547
     54          1           0      -27.560212   -1.997907   -4.295455
     55          1           0      -26.921735   -1.554342   -6.877532
     56          1           0      -25.689876   -2.366644   -5.895878
     57          1           0      -28.950360    5.343934   -2.657815
     58          1           0      -28.767719    6.387025   -1.287721
     59          1           0      -30.396636    5.900573   -2.020681
     60          1           0      -31.946241    7.257468    1.333650
     61          1           0      -31.594441    6.775998   -0.352033
     62          1           0      -30.271986    7.307775    0.589333
     63          1           0      -31.509685    0.868162    4.239590
     64          1           0      -29.461645   -1.036531    5.228843
     65          1           0      -30.527369    2.075887    6.119312
     66          1           0      -29.244672    2.511352    5.013955
     67          1           0      -29.076671    0.990872    5.900241
     68          1           0      -31.295414   -2.484308    3.579873
     69          1           0      -32.259207   -1.175124    4.101219
     70          1           0      -31.278812   -1.896056    6.505018
     71          1           0      -31.113434   -3.421552    5.629179
     72          1           0      -32.716463   -2.696445    5.649474
     73          1           0      -26.675072   -5.814800    1.660496
     74          1           0      -27.825054   -5.147995    2.815350
     75          1           0      -26.027111   -4.798727    2.824601
     76          1           0      -26.669925   -3.596642   -2.976676
     77          1           0      -22.289763   -3.591865   -4.219430
     78          1           0      -22.985186   -2.005229   -4.748232
     79          1           0      -23.154054   -3.453961   -5.690950
     80         12           0       28.483539    0.488476   -0.584632
     81          6           0       26.074488   -2.085363    0.330120
     82          6           0       25.903050    2.748327   -0.430610
     83          6           0       30.723392    2.885384    0.063678
     84          6           0       30.882659   -1.905754   -0.825935
     85          7           0       26.257102    0.337377    0.098855
     86          6           0       25.478645   -0.848807    0.353611
     87          6           0       23.995098   -0.476654    0.426875
     88          6           0       23.924789    0.956708   -0.177587
     89          6           0       25.442850    1.434635   -0.208766
     90          6           0       23.294311    1.002762   -1.649343
     91          6           0       23.294539   -0.699522    1.735276
     92          6           0       24.174369   -0.885857    2.993953
     93          1           0       23.685384   -1.057205    4.443776
     94          7           0       28.343798    2.589387   -0.365468
     95          6           0       27.177139    3.319612   -0.311982
     96          6           0       27.539920    4.769814   -0.248607
     97          6           0       28.908744    4.762269    0.007191
     98          6           0       29.416010    3.392638   -0.029788
     99          6           0       26.492712    5.823998   -0.320852
    100          6           0       29.755879    6.034154    0.302731
    101          8           0       29.169788    7.097674    0.400233
    102          6           0       31.213728    6.026789    0.623749
    103          7           0       30.508639    0.397403   -0.259517
    104          6           0       31.212902    1.596153   -0.152704
    105          6           0       32.721173    1.351548   -0.199319
    106          6           0       32.814042   -0.106487   -0.778779
    107          6           0       31.354474   -0.551663   -0.662965
    108          6           0       33.607870    2.345934   -0.992197
    109          6           0       33.826222   -1.064469   -0.072500
    110          6           0       35.158959   -1.396514   -0.887287
    111          7           0       28.515696   -1.597172   -0.395367
    112          6           0       29.588833   -2.449434   -0.611231
    113          6           0       29.117550   -3.812468   -0.597290
    114          6           0       27.794018   -3.671505   -0.158474
    115          6           0       27.490162   -2.289928   -0.079754
    116          6           0       30.024689   -5.032419   -0.833594
    117          6           0       26.584593   -4.369228    0.154067
    118          8           0       26.432900   -5.606107    0.094629
    119          6           0       25.343310   -3.391471    0.354973
    120          6           0       24.751618   -3.811010    1.641058
    121          8           0       25.352310   -3.998473    2.704323
    122          8           0       23.408353   -3.826865    1.459773
    123          6           0       22.595485   -4.407469    2.574147
    124          1           0       25.084777    3.467718   -0.364165
    125          1           0       31.444285    3.681543    0.262223
    126          1           0       31.650939   -2.653363   -1.032190
    127          1           0       23.638250   -1.191565   -0.314557
    128          1           0       23.467092    1.680962    0.496494
    129          1           0       22.357481    1.538030   -1.499786
    130          1           0       23.182335   -0.013612   -2.027658
    131          1           0       23.980092    1.610169   -2.241059
    132          1           0       22.601177   -1.523521    1.567810
    133          1           0       22.698886    0.211441    1.802857
    134          1           0       24.843236   -0.024634    2.990752
    135          1           0       24.778869   -1.786584    2.885458
    136          1           0       26.454653    6.273768    0.670867
    137          1           0       25.551780    5.348982   -0.596888
    138          1           0       26.741403    6.525834   -1.117665
    139          1           0       31.536219    5.539405    1.543048
    140          1           0       31.608690    7.025710    0.806506
    141          1           0       31.617020    5.622551   -0.304611
    142          1           0       32.900126    1.425220    0.873989
    143          1           0       33.042564    0.035904   -1.835233
    144          1           0       34.114688    3.076205   -0.360556
    145          1           0       32.982598    2.939012   -1.658740
    146          1           0       34.297612    1.756186   -1.596969
    147          1           0       33.400051   -2.020518    0.232835
    148          1           0       34.048335   -0.560483    0.868203
    149          1           0       35.920918   -1.309626   -0.113116
    150          1           0       35.372651   -0.721141   -1.715861
    151          1           0       35.010031   -2.373846   -1.344970
    152          1           0       29.531117   -5.903256   -1.265588
    153          1           0       30.318250   -5.265977    0.189245
    154          1           0       30.777345   -4.801366   -1.587082
    155          1           0       24.661009   -3.499811   -0.489415
    156          1           0       21.538239   -4.356207    2.311653
    157          1           0       22.732798   -3.844425    3.497503
    158          1           0       22.976044   -5.426812    2.621482
 ---------------------------------------------------------------------

 SCF Done:  E(RCAM-B3LYP) =  -4069.81457881     A.U. after   19 cycles

 Excitation energies and oscillator strengths:

 Excited State   1:      Singlet-A      1.6561 eV  748.64 nm  f=0.3566  <S**2>=0.000
     309 -> 315       -0.15661
     312 -> 313        0.69071
     309 <- 315       -0.10158
 This state for optimization and/or second-order correction.
 Total Energy, E(TD-HF/TD-DFT) =  -4069.75371692
 Copying the excited state density for this state as the 1-particle RhoCI density.

 Excited State   2:      Singlet-A      1.7299 eV  716.72 nm  f=0.3908  <S**2>=0.000
     310 -> 316       -0.18860
     311 -> 314        0.68241
     310 <- 316       -0.10885

 Excited State   3:      Singlet-A      2.2550 eV  549.81 nm  f=0.0852  <S**2>=0.000
     310 -> 314        0.62548
     311 -> 316        0.31649

 Excited State   4:      Singlet-A      2.2759 eV  544.76 nm  f=0.0762  <S**2>=0.000
     309 -> 313        0.61914
     312 -> 315        0.32532

 Excited State   5:      Singlet-A      3.1601 eV  392.34 nm  f=0.0000  <S**2>=0.000
     311 -> 313        0.70711

 The electronic state is 1-A.
 Alpha  occ. eigenvalues --  -46.89306 -46.88889 -19.25976 -19.25361 -19.19422
 Alpha  occ. eigenvalues --  -19.19303 -19.19079 -19.19047 -19.18370 -19.17075
 Alpha  occ. eigenvalues --  -14.42471 -14.41832 -14.41725 -14.41547 -14.39728
 Alpha  occ. eigenvalues --  -14.39494 -14.39248 -14.38743 -10.39562 -10.39135
 Alpha  occ. eigenvalues --  -10.35505 -10.34965 -10.34855 -10.33535 -10.32321
 Alpha  occ. eigenvalues --  -10.32127 -10.31935 -10.31655 -10.31007 -10.30917
 Alpha  occ. eigenvalues --  -10.30876 -10.30813 -10.30651 -10.30613 -10.30502
 Alpha  occ. eigenvalues --  -10.30418 -10.30109 -10.30020 -10.29923 -10.29309
 Alpha  occ. eigenvalues --  -10.29157 -10.29009 -10.28837 -10.28717 -10.28697
 Alpha  occ. eigenvalues --  -10.28518 -10.28479 -10.28398 -10.28394 -10.28284
 Alpha  occ. eigenvalues --  -10.28005 -10.27904 -10.27878 -10.27859 -10.27770
 Alpha  occ. eigenvalues --  -10.27675 -10.27637 -10.27611 -10.27557 -10.27529
 Alpha  occ. eigenvalues --  -10.27462 -10.27393 -10.27382 -10.27300 -10.27238
 Alpha  occ. eigenvalues --  -10.27222 -10.27168 -10.27123 -10.26991 -10.26924
 Alpha  occ. eigenvalues --  -10.26893 -10.26789 -10.26488 -10.26393 -10.26261
 Alpha  occ. eigenvalues --  -10.26107 -10.26071 -10.26070 -10.26034 -10.26020
 Alpha  occ. eigenvalues --  -10.26013 -10.25942 -10.25512 -10.25357 -10.25255
 Alpha  occ. eigenvalues --  -10.23978  -3.17794  -3.17312  -1.92667  -1.92271
 Alpha  occ. eigenvalues --   -1.92233  -1.92076  -1.91751  -1.91619  -1.16441
 Alpha  occ. eigenvalues --   -1.16082  -1.10950  -1.10688  -1.08923  -1.07481
 Alpha  occ. eigenvalues --   -1.07128  -1.06678  -1.05124  -1.04839  -1.04054
 Alpha  occ. eigenvalues --   -1.04023  -1.03379  -1.02823  -1.00960  -1.00352
 Alpha  occ. eigenvalues --   -0.92490  -0.91937  -0.89348  -0.89130  -0.88974
 Alpha  occ. eigenvalues --   -0.88608  -0.88283  -0.87710  -0.87196  -0.86824
 Alpha  occ. eigenvalues --   -0.86736  -0.86650  -0.86261  -0.86086  -0.84376
 Alpha  occ. eigenvalues --   -0.83948  -0.83700  -0.83568  -0.82732  -0.82352
 Alpha  occ. eigenvalues --   -0.82328  -0.81876  -0.81218  -0.80966  -0.80553
 Alpha  occ. eigenvalues --   -0.80168  -0.78439  -0.78023  -0.77757  -0.77558
 Alpha  occ. eigenvalues --   -0.77311  -0.76490  -0.76239  -0.76000  -0.75249
 Alpha  occ. eigenvalues --   -0.74893  -0.73032  -0.72599  -0.71682  -0.71510
 Alpha  occ. eigenvalues --   -0.69638  -0.69243  -0.69013  -0.68357  -0.68031
 Alpha  occ. eigenvalues --   -0.67608  -0.66922  -0.66911  -0.66187  -0.65839
 Alpha  occ. eigenvalues --   -0.65447  -0.65368  -0.65030  -0.64665  -0.64330
 Alpha  occ. eigenvalues --   -0.63541  -0.62727  -0.62119  -0.59853  -0.59626
 Alpha  occ. eigenvalues --   -0.59590  -0.59222  -0.59118  -0.59046  -0.58753
 Alpha  occ. eigenvalues --   -0.58225  -0.58024  -0.57499  -0.57290  -0.57198
 Alpha  occ. eigenvalues --   -0.56772  -0.56281  -0.56054  -0.55968  -0.55344
 Alpha  occ. eigenvalues --   -0.55175  -0.54723  -0.54569  -0.54242  -0.53977
 Alpha  occ. eigenvalues --   -0.53668  -0.53458  -0.53449  -0.52924  -0.52858
 Alpha  occ. eigenvalues --   -0.52786  -0.52550  -0.52416  -0.52293  -0.52218
 Alpha  occ. eigenvalues --   -0.51835  -0.51663  -0.51505  -0.51380  -0.51281
 Alpha  occ. eigenvalues --   -0.51207  -0.51170  -0.51044  -0.50651  -0.50209
 Alpha  occ. eigenvalues --   -0.49974  -0.49963  -0.49844  -0.49662  -0.49533
 Alpha  occ. eigenvalues --   -0.49370  -0.48993  -0.48944  -0.48779  -0.48540
 Alpha  occ. eigenvalues --   -0.48475  -0.48348  -0.48114  -0.48114  -0.47951
 Alpha  occ. eigenvalues --   -0.47755  -0.47604  -0.47472  -0.47199  -0.47152
 Alpha  occ. eigenvalues --   -0.47107  -0.46908  -0.46793  -0.46699  -0.46546
 Alpha  occ. eigenvalues --   -0.46288  -0.46236  -0.45870  -0.45713  -0.45707
 Alpha  occ. eigenvalues --   -0.45514  -0.45460  -0.45201  -0.45187  -0.44954
 Alpha  occ. eigenvalues --   -0.44920  -0.44530  -0.44443  -0.44327  -0.43989
 Alpha  occ. eigenvalues --   -0.43942  -0.43804  -0.43600  -0.43490  -0.43478
 Alpha  occ. eigenvalues --   -0.43416  -0.43165  -0.43011  -0.42823  -0.42732
 Alpha  occ. eigenvalues --   -0.42620  -0.42557  -0.42279  -0.42144  -0.42121
 Alpha  occ. eigenvalues --   -0.41925  -0.41843  -0.41746  -0.41487  -0.41155
 Alpha  occ. eigenvalues --   -0.41073  -0.40911  -0.40764  -0.40688  -0.40336
 Alpha  occ. eigenvalues --   -0.39993  -0.39919  -0.39538  -0.39350  -0.39084
 Alpha  occ. eigenvalues --   -0.38504  -0.38187  -0.37476  -0.37406  -0.37220
 Alpha  occ. eigenvalues --   -0.37096  -0.36715  -0.36624  -0.36581  -0.36343
 Alpha  occ. eigenvalues --   -0.36024  -0.35836  -0.34377  -0.34040  -0.33972
 Alpha  occ. eigenvalues --   -0.33825  -0.33115  -0.32692  -0.31526  -0.31173
 Alpha  occ. eigenvalues --   -0.31134  -0.30895  -0.30696  -0.30105  -0.30065
 Alpha  occ. eigenvalues --   -0.29506  -0.29432  -0.29232  -0.24454  -0.23883
 Alpha  occ. eigenvalues --   -0.20804  -0.20754
 Alpha virt. eigenvalues --   -0.08585  -0.08291  -0.01793  -0.01723   0.00544
 Alpha virt. eigenvalues --    0.00924   0.01469   0.02498   0.02544   0.03090
 Alpha virt. eigenvalues --    0.04466   0.04886   0.05234   0.05407   0.06003

 Mulliken charges:
               1
     1  Mg   0.814749
     2  C   -0.017264
     3  C   -0.070449
     4  C   -0.047015
     5  C   -0.073575
     6  N   -0.243870
     7  C   -0.051345
     8  C   -0.008530
     9  C    0.010446
    10  C   -0.041616
    11  C    0.066170
    12  C    0.061601
    13  C   -0.064230
    14  H    0.001600
    15  N   -0.381006
    16  C    0.179987
    17  C   -0.151789
    18  C   -0.018614
    19  C    0.094777
    20  C    0.107328
    21  C   -0.005714
    22  O   -0.232214
    23  C    0.074371
    24  N   -0.260997
    25  C    0.046026
    26  C   -0.044090
    27  C   -0.048505
    28  C    0.017395
    29  C    0.079028
    30  C    0.027461
    31  C    0.003020
    32  N   -0.356624
    33  C    0.120855
    34  C   -0.150003
    35  C   -0.006756
    36  C    0.104757
    37  C    0.121497
    38  C    0.014252
    39  O   -0.146075
    40  C    0.025561
    41  C    0.218345
    42  O   -0.248924
    43  O   -0.321510
    44  C    0.184517
    45  H   -0.049202
    46  H    0.001137
    47  H   -0.028718
    48  H    0.022840
    49  H    0.008027
    50  H    0.027364
    51  H    0.010394
    52  H    0.004935
    53  H   -0.006426
    54  H    0.001665
    55  H    0.031405
    56  H    0.046806
    57  H    0.002019
    58  H    0.041587
    59  H    0.029956
    60  H    0.037766
    61  H    0.020623
    62  H    0.031146
    63  H    0.014350
    64  H    0.014672
    65  H    0.025713
    66  H    0.024981
    67  H    0.008092
    68  H    0.007538
    69  H    0.001702
    70  H    0.019689
    71  H    0.010869
    72  H    0.018629
    73  H    0.025106
    74  H    0.026376
    75  H    0.033626
    76  H    0.036814
    77  H    0.048263
    78  H    0.035139
    79  H    0.032091
    80  Mg   0.820254
    81  C   -0.030331
    82  C   -0.063582
    83  C   -0.071111
    84  C   -0.075646
    85  N   -0.309257
    86  C   -0.098374
    87  C    0.032374
    88  C   -0.088965
    89  C    0.018010
    90  C    0.083158
    91  C    0.077564
    92  C   -0.046997
    93  H    0.019789
    94  N   -0.391648
    95  C    0.125448
    96  C   -0.145345
    97  C   -0.034506
    98  C    0.142949
    99  C    0.154398
   100  C   -0.013495
   101  O   -0.198124
   102  C    0.066665
   103  N   -0.314454
   104  C    0.069825
   105  C   -0.078975
   106  C    0.038566
   107  C   -0.001196
   108  C    0.080943
   109  C    0.022883
   110  C   -0.006874
   111  N   -0.284779
   112  C    0.084274
   113  C   -0.172566
   114  C    0.043286
   115  C    0.082296
   116  C    0.114722
   117  C    0.003080
   118  O   -0.216400
   119  C    0.045268
   120  C    0.197738
   121  O   -0.231855
   122  O   -0.339266
   123  C    0.180674
   124  H   -0.019398
   125  H   -0.063788
   126  H   -0.033487
   127  H    0.001487
   128  H    0.014765
   129  H    0.026235
   130  H    0.029004
   131  H    0.019939
   132  H    0.006721
   133  H   -0.008005
   134  H    0.024297
   135  H    0.048671
   136  H    0.049568
   137  H   -0.000644
   138  H    0.036237
   139  H    0.054905
   140  H    0.021106
   141  H    0.037895
   142  H    0.025849
   143  H    0.005556
   144  H    0.018953
   145  H    0.015429
   146  H    0.020812
   147  H    0.021156
   148  H   -0.000056
   149  H    0.029355
   150  H    0.015080
   151  H    0.025946
   152  H    0.027723
   153  H    0.049114
   154  H    0.018927
   155  H    0.043778
   156  H    0.041306
   157  H    0.050540
   158  H    0.054600
 Sum of Mulliken charges =  -0.00000

 Dipole moment (field-independent basis, Debye):
    X=              0.1079    Y=              4.8504    Z=             -5.7978  Tot=              7.5599
 Quadrupole moment (field-independent basis, Debye-Ang):
   XX=           -295.8884   YY=           -564.1318   ZZ=           -488.1228
   XY=             39.4119   XZ=            -14.4673   YZ=            -17.5632

 Normal termination of Gaussian 16 at Thu Sep  2 03:50:38 2021.
