 Gaussian 16, Revision A.03,
 Gaussian 16:  ES64L-G16RevA.03 25-Dec-2016

 ----------------------------------------------------------
 #p cam-b3lyp/Def2SVP td=(nstates=5) density=(transition=1)
 ----------------------------------------------------------

 --------------------------------
 TDDFT excited states in gaussian
 --------------------------------
 Symbolic Z-matrix:
 Charge =  0 Multiplicity = 1

                         Standard orientation:
 ---------------------------------------------------------------------
 Center     Atomic      Atomic             Coordinates (Angstroms)
 Number     Number       Type             X           Y           Z
 ---------------------------------------------------------------------
      1         12           0      -19.914250   -0.532025    0.101571
      2          6           0      -19.526954    2.797895   -0.917783
      3          6           0      -18.699928    0.413410    3.290234
      4          6           0      -19.947467   -3.802162    1.015126
      5          6           0      -20.364820   -1.420055   -3.204395
      6          7           0      -19.377258    1.394002    1.057593
      7          6           0      -19.482586    2.646501    0.445917
      8          6           0      -19.479335    3.761602    1.552808
      9          6           0      -19.127946    2.972408    2.819312
     10          6           0      -19.010067    1.477473    2.359174
     11          6           0      -17.799920    3.494084    3.431224
     12          6           0      -20.834391    4.458567    1.544986
     13          6           0      -20.896296    5.905702    2.005590
     14          1           0      -19.672559    6.490452    2.746486
     15          7           0      -19.420454   -1.594665    1.884941
     16          6           0      -18.911690   -1.026310    3.068242
     17          6           0      -18.649061   -2.056418    4.057840
     18          6           0      -19.058985   -3.323100    3.482420
     19          6           0      -19.481204   -2.939876    2.067186
     20          6           0      -18.216954   -1.777281    5.503041
     21          6           0      -19.085597   -4.719957    4.072608
     22          8           0      -19.493734   -5.663380    3.408471
     23          6           0      -18.815080   -4.884199    5.518846
     24          7           0      -20.200206   -2.348391   -0.977866
     25          6           0      -20.259132   -3.555344   -0.349215
     26          6           0      -20.714180   -4.646605   -1.353262
     27          6           0      -20.918236   -3.878698   -2.716578
     28          6           0      -20.586034   -2.424489   -2.293059
     29          6           0      -19.671871   -5.776931   -1.424480
     30          6           0      -22.357126   -3.942908   -3.294147
     31          6           0      -22.398672   -4.968211   -4.423014
     32          7           0      -19.851139    0.397618   -1.771775
     33          6           0      -19.975237   -0.059380   -3.041316
     34          6           0      -19.621272    1.057935   -3.950205
     35          6           0      -19.546662    2.193486   -3.197935
     36          6           0      -19.650010    1.720553   -1.864799
     37          6           0      -19.597300    0.876765   -5.458627
     38          6           0      -19.394953    3.654625   -3.196179
     39          8           0      -19.223073    4.416048   -4.140390
     40          6           0      -19.469292    4.063945   -1.737857
     41          6           0      -18.296667    4.923282   -1.510671
     42          8           0      -17.106678    4.625306   -1.340753
     43          8           0      -18.723685    6.233139   -1.588023
     44          6           0      -17.709179    7.256741   -1.460958
     45          1           0      -18.400609    0.756915    4.282412
     46          1           0      -20.032840   -4.812578    1.420457
     47          1           0      -20.427865   -1.794708   -4.228244
     48          1           0      -18.658509    4.385886    1.197732
     49          1           0      -19.879920    3.248392    3.558482
     50          1           0      -16.960109    2.802248    3.364366
     51          1           0      -17.943301    3.484923    4.511343
     52          1           0      -17.478095    4.431969    2.978981
     53          1           0      -21.476964    3.796288    2.125945
     54          1           0      -21.260150    4.386236    0.544880
     55          1           0      -21.790836    6.038366    2.612611
     56          1           0      -21.066542    6.419106    1.058611
     57          1           0      -17.964453   -0.734416    5.695749
     58          1           0      -17.339020   -2.375974    5.749386
     59          1           0      -18.989297   -2.151915    6.173744
     60          1           0      -19.608729   -4.388267    6.078217
     61          1           0      -17.780894   -4.634294    5.755598
     62          1           0      -18.912919   -5.923259    5.833457
     63          1           0      -21.627235   -5.092864   -0.959865
     64          1           0      -20.132300   -4.255004   -3.372711
     65          1           0      -19.252128   -5.992759   -2.406568
     66          1           0      -20.309789   -6.614276   -1.142424
     67          1           0      -18.778207   -5.609130   -0.824046
     68          1           0      -22.577250   -3.036572   -3.858522
     69          1           0      -23.118963   -4.180370   -2.551398
     70          1           0      -23.287199   -5.558476   -4.199469
     71          1           0      -21.605898   -5.714636   -4.379743
     72          1           0      -22.455614   -4.554582   -5.430261
     73          1           0      -19.625621   -0.156762   -5.804741
     74          1           0      -18.734873    1.352132   -5.924297
     75          1           0      -20.541344    1.247555   -5.859425
     76          1           0      -20.406040    4.601206   -1.593289
     77          1           0      -16.909563    7.015706   -2.161867
     78          1           0      -17.283582    7.326508   -0.459668
     79          1           0      -18.129131    8.122021   -1.972699
     80         12           0       19.319915   -0.846606   -0.101667
     81          6           0       21.183443    2.130397   -0.416125
     82          6           0       17.242091    0.782127    2.098626
     83          6           0       17.538732   -3.663579    0.313757
     84          6           0       21.774985   -2.599164   -1.874900
     85          7           0       19.222820    1.231209    0.572528
     86          6           0       19.996514    2.295241    0.377535
     87          6           0       19.562885    3.600613    1.076491
     88          6           0       18.478990    2.941531    2.059850
     89          6           0       18.332068    1.521870    1.569309
     90          6           0       18.869179    2.994771    3.516988
     91          6           0       18.915742    4.712267    0.078995
     92          6           0       19.078782    6.146347    0.591131
     93          1           0       19.901523    7.065495   -0.348088
     94          7           0       17.497158   -1.362185    0.930643
     95          6           0       16.826381   -0.510467    1.842906
     96          6           0       15.563714   -1.143590    2.150407
     97          6           0       15.606635   -2.432403    1.626275
     98          6           0       16.906117   -2.552740    0.893705
     99          6           0       14.528054   -0.553245    3.088673
    100          6           0       14.596376   -3.556611    1.643420
    101          8           0       14.823534   -4.568382    1.046724
    102          6           0       13.271314   -3.424420    2.325531
    103          7           0       19.690378   -2.876409   -0.511225
    104          6           0       18.763852   -3.857585   -0.309818
    105          6           0       19.350136   -5.148768   -0.945330
    106          6           0       20.298987   -4.688152   -2.037318
    107          6           0       20.666928   -3.298025   -1.467283
    108          6           0       20.135287   -5.921769    0.113371
    109          6           0       19.711351   -4.659329   -3.399618
    110          6           0       18.353457   -4.033134   -3.599840
    111          7           0       21.107663   -0.386366   -1.015378
    112          6           0       22.017418   -1.177049   -1.691875
    113          6           0       23.125878   -0.330156   -2.158995
    114          6           0       22.811065    0.959971   -1.697973
    115          6           0       21.617800    0.874096   -1.034103
    116          6           0       24.314548   -0.777253   -2.894599
    117          6           0       23.162330    2.353251   -1.763401
    118          8           0       24.115569    2.940406   -2.354632
    119          6           0       22.057201    3.160853   -0.931825
    120          6           0       22.788683    3.844032    0.194464
    121          8           0       23.576412    3.279455    0.894061
    122          8           0       22.437896    5.203041    0.418002
    123          6           0       22.910546    5.775575    1.715164
    124          1           0       16.602075    1.265960    2.838611
    125          1           0       17.045806   -4.619018    0.506993
    126          1           0       22.484112   -3.041500   -2.578081
    127          1           0       20.426286    4.081435    1.538019
    128          1           0       17.580177    3.535687    1.890326
    129          1           0       18.352509    3.857905    3.936384
    130          1           0       19.948962    2.987242    3.667191
    131          1           0       18.351431    2.141657    3.955312
    132          1           0       17.847478    4.527084   -0.037541
    133          1           0       19.332272    4.616533   -0.923924
    134          1           0       19.535440    5.975804    1.566274
    135          1           0       18.120724    6.610893    0.823634
    136          1           0       14.775742    0.506919    3.125655
    137          1           0       14.797533   -0.991845    4.049038
    138          1           0       13.509606   -0.689815    2.724492
    139          1           0       12.786756   -2.731899    1.637045
    140          1           0       13.312495   -2.967931    3.314111
    141          1           0       12.769689   -4.391706    2.370351
    142          1           0       18.613473   -5.857899   -1.321313
    143          1           0       21.185325   -5.306272   -2.176360
    144          1           0       21.224095   -5.870947    0.124291
    145          1           0       19.852945   -6.970666    0.023416
    146          1           0       19.782752   -5.598723    1.093554
    147          1           0       19.690218   -5.649936   -3.854494
    148          1           0       20.426923   -4.075524   -3.978309
    149          1           0       18.531054   -3.127592   -4.180684
    150          1           0       17.701091   -3.728225   -2.781042
    151          1           0       17.769775   -4.692941   -4.241572
    152          1           0       24.933478   -1.361749   -2.213954
    153          1           0       24.766692    0.151536   -3.242291
    154          1           0       24.049586   -1.451089   -3.710473
    155          1           0       21.587809    3.814228   -1.667497
    156          1           0       23.969934    6.024660    1.654698
    157          1           0       22.754209    5.106553    2.562601
    158          1           0       22.477537    6.734144    1.999646
 ---------------------------------------------------------------------

 SCF Done:  E(RCAM-B3LYP) =  -4069.80024768     A.U. after   19 cycles

 Excitation energies and oscillator strengths:

 Excited State   1:      Singlet-A      1.6781 eV  738.83 nm  f=0.3854  <S**2>=0.000
     310 -> 316       -0.17292
     312 -> 314        0.68687
     310 <- 316       -0.10452
 This state for optimization and/or second-order correction.
 Total Energy, E(TD-HF/TD-DFT) =  -4069.73857815
 Copying the excited state density for this state as the 1-particle RhoCI density.

 Excited State   2:      Singlet-A      1.6958 eV  731.11 nm  f=0.3791  <S**2>=0.000
     309 -> 315       -0.17405
     311 -> 313        0.68744
     309 <- 315       -0.10606

 Excited State   3:      Singlet-A      2.1842 eV  567.65 nm  f=0.1156  <S**2>=0.000
     309 -> 313        0.64714
     311 -> 315        0.27029

 Excited State   4:      Singlet-A      2.1968 eV  564.39 nm  f=0.1231  <S**2>=0.000
     310 -> 314        0.64514
     312 -> 316        0.27389

 Excited State   5:      Singlet-A      3.0298 eV  409.22 nm  f=0.0000  <S**2>=0.000
     312 -> 313        0.70710

 The electronic state is 1-A.
 Alpha  occ. eigenvalues --  -46.89154 -46.88612 -19.24494 -19.24488 -19.20033
 Alpha  occ. eigenvalues --  -19.19832 -19.19333 -19.19243 -19.19070 -19.18229
 Alpha  occ. eigenvalues --  -14.43403 -14.42226 -14.41776 -14.41329 -14.40156
 Alpha  occ. eigenvalues --  -14.39695 -14.39239 -14.39045 -10.39400 -10.39388
 Alpha  occ. eigenvalues --  -10.35517 -10.35440 -10.35174 -10.34730 -10.32030
 Alpha  occ. eigenvalues --  -10.31839 -10.31674 -10.31260 -10.31241 -10.31192
 Alpha  occ. eigenvalues --  -10.31109 -10.31028 -10.31008 -10.30937 -10.30687
 Alpha  occ. eigenvalues --  -10.30597 -10.30507 -10.30120 -10.29575 -10.29426
 Alpha  occ. eigenvalues --  -10.29383 -10.29377 -10.29092 -10.28845 -10.28793
 Alpha  occ. eigenvalues --  -10.28630 -10.28441 -10.28375 -10.28355 -10.28299
 Alpha  occ. eigenvalues --  -10.28231 -10.28207 -10.28188 -10.28117 -10.28083
 Alpha  occ. eigenvalues --  -10.27813 -10.27808 -10.27706 -10.27653 -10.27630
 Alpha  occ. eigenvalues --  -10.27597 -10.27517 -10.27436 -10.27213 -10.27115
 Alpha  occ. eigenvalues --  -10.27108 -10.26831 -10.26682 -10.26639 -10.26576
 Alpha  occ. eigenvalues --  -10.26563 -10.26532 -10.26407 -10.26323 -10.26264
 Alpha  occ. eigenvalues --  -10.25609 -10.25569 -10.25542 -10.25384 -10.25295
 Alpha  occ. eigenvalues --  -10.25106 -10.25096 -10.25037 -10.24811 -10.24448
 Alpha  occ. eigenvalues --  -10.24415  -3.17551  -3.17107  -1.92465  -1.92029
 Alpha  occ. eigenvalues --   -1.91966  -1.91883  -1.91538  -1.91423  -1.15832
 Alpha  occ. eigenvalues --   -1.15604  -1.12105  -1.10495  -1.10047  -1.07371
 Alpha  occ. eigenvalues --   -1.06904  -1.06644  -1.05286  -1.04358  -1.03527
 Alpha  occ. eigenvalues --   -1.02924  -1.02824  -1.02675  -1.01757  -1.01664
 Alpha  occ. eigenvalues --   -0.93407  -0.92940  -0.90037  -0.89428  -0.89306
 Alpha  occ. eigenvalues --   -0.88822  -0.88815  -0.88002  -0.87837  -0.87144
 Alpha  occ. eigenvalues --   -0.86924  -0.86891  -0.86210  -0.85634  -0.84696
 Alpha  occ. eigenvalues --   -0.84347  -0.83917  -0.83561  -0.82764  -0.82617
 Alpha  occ. eigenvalues --   -0.82463  -0.82420  -0.81102  -0.80932  -0.80057
 Alpha  occ. eigenvalues --   -0.79912  -0.78901  -0.78135  -0.77337  -0.77297
 Alpha  occ. eigenvalues --   -0.77096  -0.76851  -0.76275  -0.75994  -0.74979
 Alpha  occ. eigenvalues --   -0.74573  -0.72572  -0.72447  -0.71323  -0.71044
 Alpha  occ. eigenvalues --   -0.69693  -0.69099  -0.68839  -0.68523  -0.67960
 Alpha  occ. eigenvalues --   -0.67832  -0.67112  -0.67108  -0.65819  -0.65459
 Alpha  occ. eigenvalues --   -0.64955  -0.64929  -0.64670  -0.64194  -0.63933
 Alpha  occ. eigenvalues --   -0.63398  -0.62165  -0.61759  -0.60373  -0.60160
 Alpha  occ. eigenvalues --   -0.59929  -0.59683  -0.59136  -0.59131  -0.58972
 Alpha  occ. eigenvalues --   -0.58831  -0.58599  -0.58387  -0.57675  -0.57584
 Alpha  occ. eigenvalues --   -0.56385  -0.55924  -0.55803  -0.55751  -0.55125
 Alpha  occ. eigenvalues --   -0.54811  -0.54776  -0.54531  -0.54080  -0.53970
 Alpha  occ. eigenvalues --   -0.53708  -0.53666  -0.53635  -0.53605  -0.53451
 Alpha  occ. eigenvalues --   -0.53354  -0.53035  -0.52947  -0.52855  -0.52425
 Alpha  occ. eigenvalues --   -0.51927  -0.51872  -0.51758  -0.51621  -0.51519
 Alpha  occ. eigenvalues --   -0.51412  -0.50832  -0.50808  -0.50723  -0.50369
 Alpha  occ. eigenvalues --   -0.50192  -0.50000  -0.49866  -0.49682  -0.49656
 Alpha  occ. eigenvalues --   -0.49575  -0.49340  -0.49288  -0.49200  -0.49065
 Alpha  occ. eigenvalues --   -0.49061  -0.48684  -0.48291  -0.48212  -0.48199
 Alpha  occ. eigenvalues --   -0.47898  -0.47725  -0.47640  -0.47435  -0.47167
 Alpha  occ. eigenvalues --   -0.47166  -0.46769  -0.46699  -0.46434  -0.46345
 Alpha  occ. eigenvalues --   -0.46069  -0.45923  -0.45868  -0.45548  -0.45395
 Alpha  occ. eigenvalues --   -0.45270  -0.45210  -0.45027  -0.44946  -0.44771
 Alpha  occ. eigenvalues --   -0.44486  -0.44425  -0.44310  -0.44254  -0.44160
 Alpha  occ. eigenvalues --   -0.43722  -0.43628  -0.43493  -0.43436  -0.43213
 Alpha  occ. eigenvalues --   -0.43145  -0.43096  -0.43075  -0.42842  -0.42840
 Alpha  occ. eigenvalues --   -0.42656  -0.42514  -0.42456  -0.42399  -0.41911
 Alpha  occ. eigenvalues --   -0.41813  -0.41565  -0.41549  -0.41279  -0.41109
 Alpha  occ. eigenvalues --   -0.41033  -0.40921  -0.40471  -0.40369  -0.40262
 Alpha  occ. eigenvalues --   -0.40012  -0.39737  -0.39514  -0.38965  -0.38499
 Alpha  occ. eigenvalues --   -0.38334  -0.38057  -0.37998  -0.37794  -0.37706
 Alpha  occ. eigenvalues --   -0.37275  -0.37119  -0.36484  -0.36421  -0.36348
 Alpha  occ. eigenvalues --   -0.36184  -0.35882  -0.34674  -0.34509  -0.34403
 Alpha  occ. eigenvalues --   -0.34124  -0.33196  -0.32655  -0.31703  -0.31613
 Alpha  occ. eigenvalues --   -0.31495  -0.31358  -0.31312  -0.30313  -0.30305
 Alpha  occ. eigenvalues --   -0.30021  -0.30000  -0.29320  -0.24133  -0.23840
 Alpha  occ. eigenvalues --   -0.21377  -0.20973
 Alpha virt. eigenvalues --   -0.08951  -0.08706  -0.01729  -0.01500   0.00147
 Alpha virt. eigenvalues --    0.00447   0.01786   0.02183   0.02473   0.03271
 Alpha virt. eigenvalues --    0.04663   0.05098   0.05166   0.05309   0.05627

 Mulliken charges:
               1
     1  Mg  11.999573
     2  C    6.029258
     3  C    5.987343
     4  C    5.970320
     5  C    6.011568
     6  N    7.014891
     7  C    5.961798
     8  C    6.005823
     9  C    5.987240
    10  C    6.032690
    11  C    5.997761
    12  C    6.004704
    13  C    6.000019
    14  H    0.992775
    15  N    6.990634
    16  C    6.045769
    17  C    6.017411
    18  C    6.019876
    19  C    6.036305
    20  C    5.996014
    21  C    6.014135
    22  O    8.030906
    23  C    5.991501
    24  N    6.992724
    25  C    6.037811
    26  C    5.991317
    27  C    6.012545
    28  C    5.970354
    29  C    5.997304
    30  C    6.004861
    31  C    6.001997
    32  N    7.004340
    33  C    5.958617
    34  C    5.970385
    35  C    5.997629
    36  C    5.959402
    37  C    6.004807
    38  C    5.981973
    39  O    7.972017
    40  C    5.998909
    41  C    5.996554
    42  O    7.992254
    43  O    7.999446
    44  C    6.001710
    45  H    1.013446
    46  H    1.001374
    47  H    0.988134
    48  H    1.002752
    49  H    1.007330
    50  H    0.998836
    51  H    0.999306
    52  H    1.014127
    53  H    0.989695
    54  H    1.008144
    55  H    0.996518
    56  H    1.004512
    57  H    1.018016
    58  H    1.018834
    59  H    1.018405
    60  H    1.007685
    61  H    1.007932
    62  H    1.016026
    63  H    0.998830
    64  H    0.995898
    65  H    1.009623
    66  H    1.000363
    67  H    0.994872
    68  H    1.005135
    69  H    0.989670
    70  H    0.994068
    71  H    0.994060
    72  H    1.001423
    73  H    0.980283
    74  H    0.979987
    75  H    0.977569
    76  H    0.992494
    77  H    0.999361
    78  H    0.992866
    79  H    0.997156
    80  Mg  12.000167
    81  C    5.999377
    82  C    6.000617
    83  C    6.000468
    84  C    5.999500
    85  N    6.999740
    86  C    6.001128
    87  C    5.999597
    88  C    6.000495
    89  C    5.998788
    90  C    6.000134
    91  C    5.999959
    92  C    5.999975
    93  H    0.999963
    94  N    7.000358
    95  C    5.998533
    96  C    5.999793
    97  C    5.999315
    98  C    5.999165
    99  C    6.000042
   100  C    5.999697
   101  O    7.999226
   102  C    6.000094
   103  N    6.999994
   104  C    5.999227
   105  C    6.000079
   106  C    5.999868
   107  C    6.000831
   108  C    5.999991
   109  C    5.999823
   110  C    5.999981
   111  N    6.999974
   112  C    6.001268
   113  C    6.000818
   114  C    6.000143
   115  C    6.000838
   116  C    5.999944
   117  C    6.000350
   118  O    8.000888
   119  C    6.000141
   120  C    6.000166
   121  O    8.000054
   122  O    8.000098
   123  C    5.999916
   124  H    0.999683
   125  H    0.999830
   126  H    1.000239
   127  H    0.999936
   128  H    0.999822
   129  H    0.999748
   130  H    0.999582
   131  H    1.000102
   132  H    1.000340
   133  H    0.999847
   134  H    1.000055
   135  H    1.000169
   136  H    0.999575
   137  H    0.999511
   138  H    0.999547
   139  H    0.999821
   140  H    0.999732
   141  H    0.999515
   142  H    1.000010
   143  H    1.000017
   144  H    0.999652
   145  H    0.999921
   146  H    1.000137
   147  H    1.000215
   148  H    0.999844
   149  H    0.999861
   150  H    1.000442
   151  H    1.000094
   152  H    1.000615
   153  H    1.000413
   154  H    1.000609
   155  H    1.000228
   156  H    1.000056
   157  H    1.000129
   158  H    1.000181
 Sum of Mulliken charges = 624.00000

 Dipole moment (field-independent basis, Debye):
    X=              1.5501    Y=             -4.9241    Z=              9.7200  Tot=             11.0058
 Quadrupole moment (field-independent basis, Debye-Ang):
   XX=            -40.9499   YY=              3.5794   ZZ=              2.0278
   XY=             96.1460   XZ=           -192.6885   YZ=             -7.0553

 Normal termination of Gaussian 16 at Wed Sep 22 20:06:24 2021.
