 Gaussian 16, Revision A.03,
 Gaussian 16:  ES64L-G16RevA.03 25-Dec-2016

 ----------------------------------------------------------
 #p cam-b3lyp/Def2SVP td=(nstates=5) density=(transition=1)
 ----------------------------------------------------------

 --------------------------------
 TDDFT excited states in gaussian
 --------------------------------
 Symbolic Z-matrix:
 Charge =  0 Multiplicity = 1

                         Standard orientation:
 ---------------------------------------------------------------------
 Center     Atomic      Atomic             Coordinates (Angstroms)
 Number     Number       Type             X           Y           Z
 ---------------------------------------------------------------------
      1         12           0      -31.712580   -0.101068    0.313406
      2          6           0      -29.428079   -1.406860   -1.911903
      3          6           0      -32.725538    2.014804   -2.177386
      4          6           0      -33.749134    1.380261    2.563411
      5          6           0      -30.213322   -1.876819    2.899536
      6          7           0      -30.974345    0.298371   -1.797608
      7          6           0      -30.224794   -0.445683   -2.515978
      8          6           0      -30.111450   -0.060862   -4.080410
      9          6           0      -30.979823    1.258311   -4.044045
     10          6           0      -31.563803    1.276650   -2.552434
     11          6           0      -30.152590    2.630498   -4.267381
     12          6           0      -30.650492   -1.159789   -5.095349
     13          6           0      -29.961602   -1.255333   -6.502799
     14          1           0      -29.029543   -0.140944   -6.871621
     15          7           0      -33.071756    1.382780    0.206041
     16          6           0      -33.446673    2.135313   -0.975613
     17          6           0      -34.533356    3.031852   -0.595319
     18          6           0      -34.765321    2.940897    0.799805
     19          6           0      -33.880094    1.841109    1.245295
     20          6           0      -35.174231    3.815168   -1.683869
     21          6           0      -35.779410    3.668572    1.713248
     22          8           0      -35.826541    3.590438    2.904840
     23          6           0      -36.672084    4.702535    0.997621
     24          7           0      -31.926966   -0.108875    2.471036
     25          6           0      -32.797411    0.555652    3.163136
     26          6           0      -32.530530    0.437375    4.690559
     27          6           0      -31.475893   -0.690257    4.795497
     28          6           0      -31.172962   -0.948411    3.300722
     29          6           0      -32.067066    1.787009    5.278930
     30          6           0      -31.997789   -1.924602    5.593110
     31          6           0      -32.143982   -1.704548    7.107502
     32          7           0      -30.125904   -1.405454    0.507625
     33          6           0      -29.709979   -2.120792    1.616471
     34          6           0      -28.658947   -2.996143    1.168685
     35          6           0      -28.438353   -2.760553   -0.221404
     36          6           0      -29.424137   -1.785118   -0.533734
     37          6           0      -27.930468   -3.882978    1.999525
     38          6           0      -27.743672   -3.129645   -1.413468
     39          8           0      -26.768110   -3.928075   -1.541403
     40          6           0      -28.298596   -2.161549   -2.529120
     41          6           0      -27.179540   -1.389853   -3.026094
     42          8           0      -26.728678   -0.385156   -2.476497
     43          8           0      -26.658010   -2.076145   -4.093116
     44          6           0      -25.354360   -1.544175   -4.543253
     45          1           0      -33.052027    2.719689   -2.944249
     46          1           0      -34.453103    1.886710    3.228053
     47          1           0      -29.825052   -2.464584    3.734494
     48          1           0      -29.057111    0.188451   -4.202726
     49          1           0      -31.743414    1.225170   -4.820921
     50          1           0      -29.102080    2.426671   -4.058119
     51          1           0      -30.523248    3.397026   -3.587007
     52          1           0      -30.212631    3.075359   -5.261191
     53          1           0      -31.688938   -0.870310   -5.254180
     54          1           0      -30.848601   -2.147932   -4.678681
     55          1           0      -30.664528   -1.343672   -7.331078
     56          1           0      -29.309879   -2.128941   -6.518675
     57          1           0      -34.615051    4.730669   -1.879049
     58          1           0      -36.247848    3.941155   -1.543243
     59          1           0      -35.125782    3.200310   -2.582279
     60          1           0      -37.464294    4.272256    0.384156
     61          1           0      -35.934788    5.249267    0.410629
     62          1           0      -37.137734    5.451760    1.637187
     63          1           0      -33.496993    0.107026    5.070494
     64          1           0      -30.562807   -0.295167    5.240721
     65          1           0      -31.601401    2.476013    4.573940
     66          1           0      -31.290696    1.772726    6.044600
     67          1           0      -32.967226    2.243638    5.690294
     68          1           0      -31.283849   -2.739575    5.482235
     69          1           0      -32.951559   -2.253838    5.179382
     70          1           0      -31.933485   -0.654116    7.308510
     71          1           0      -31.301885   -2.177206    7.613261
     72          1           0      -33.044382   -2.059331    7.608433
     73          1           0      -28.689557   -4.356699    2.622118
     74          1           0      -27.211641   -3.427271    2.680299
     75          1           0      -27.331123   -4.536738    1.365061
     76          1           0      -28.627247   -2.852090   -3.306252
     77          1           0      -24.653322   -1.739155   -3.731205
     78          1           0      -25.430301   -0.510781   -4.879901
     79          1           0      -25.045585   -2.135812   -5.405209
     80         12           0       31.462560    0.452270   -0.505983
     81          6           0       29.233841   -1.982184    0.575352
     82          6           0       29.093919    2.923506    0.411126
     83          6           0       33.884313    2.752960   -0.427902
     84          6           0       33.918812   -2.068299   -0.711460
     85          7           0       29.469647    0.457866    0.751140
     86          6           0       28.708499   -0.684846    0.807685
     87          6           0       27.329262   -0.401175    1.314449
     88          6           0       27.195515    1.162898    1.017516
     89          6           0       28.675921    1.598048    0.729728
     90          6           0       26.198228    1.570510   -0.180794
     91          6           0       27.167438   -0.907806    2.839106
     92          6           0       25.814759   -1.230392    3.229505
     93          1           0       25.333385   -0.466381    4.481173
     94          7           0       31.485677    2.552831   -0.254963
     95          6           0       30.397660    3.392318    0.114498
     96          6           0       30.884567    4.761469    0.120647
     97          6           0       32.276129    4.756730   -0.141874
     98          6           0       32.599221    3.309325   -0.377129
     99          6           0       30.025597    5.899884    0.528435
    100          6           0       33.195738    6.048557   -0.112911
    101          8           0       32.643320    7.118696    0.137343
    102          6           0       34.613788    6.044541   -0.673439
    103          7           0       33.570903    0.298569   -0.462492
    104          6           0       34.311175    1.432253   -0.555323
    105          6           0       35.937211    1.138116   -0.524989
    106          6           0       35.932189   -0.434598   -0.838261
    107          6           0       34.421787   -0.805816   -0.700225
    108          6           0       36.796012    1.915204   -1.593269
    109          6           0       36.798757   -1.243105    0.129107
    110          6           0       37.967670   -2.113747   -0.390949
    111          7           0       31.500101   -1.610821   -0.427995
    112          6           0       32.545316   -2.477286   -0.566401
    113          6           0       32.044830   -3.824150   -0.548677
    114          6           0       30.707852   -3.642061   -0.029819
    115          6           0       30.473823   -2.258965    0.055082
    116          6           0       32.851880   -5.079556   -0.712624
    117          6           0       29.560047   -4.359726    0.484307
    118          8           0       29.301569   -5.524141    0.442883
    119          6           0       28.456084   -3.301568    0.875259
    120          6           0       27.176095   -3.354653    0.012330
    121          8           0       27.162215   -3.363423   -1.199815
    122          8           0       26.048450   -3.492745    0.847737
    123          6           0       24.792995   -3.731680    0.202208
    124          1           0       28.297428    3.632174    0.644115
    125          1           0       34.718688    3.411471   -0.178313
    126          1           0       34.708895   -2.815732   -0.804045
    127          1           0       26.555079   -0.783874    0.648600
    128          1           0       26.854508    1.650280    1.931615
    129          1           0       25.443343    2.205905    0.282197
    130          1           0       25.744581    0.707588   -0.667330
    131          1           0       26.792442    2.153131   -0.885350
    132          1           0       27.508064   -0.053039    3.423201
    133          1           0       27.920323   -1.695641    2.875339
    134          1           0       25.805484   -2.302543    3.422044
    135          1           0       25.121037   -0.958448    2.434005
    136          1           0       28.973451    5.617773    0.562903
    137          1           0       30.065080    6.684652   -0.227411
    138          1           0       30.294393    6.263515    1.520490
    139          1           0       35.308471    5.423240   -0.107316
    140          1           0       34.956936    7.079331   -0.698716
    141          1           0       34.550888    5.703214   -1.706768
    142          1           0       36.201306    1.318597    0.516659
    143          1           0       36.145791   -0.697342   -1.874560
    144          1           0       37.448848    2.628601   -1.091148
    145          1           0       36.132179    2.458655   -2.266711
    146          1           0       37.379988    1.165071   -2.127617
    147          1           0       36.191956   -1.851398    0.799450
    148          1           0       37.265340   -0.657194    0.920847
    149          1           0       37.856379   -3.196529   -0.327394
    150          1           0       38.806037   -1.873790    0.263454
    151          1           0       38.196358   -1.887338   -1.433057
    152          1           0       32.150473   -5.878297   -0.955019
    153          1           0       33.201331   -5.529067    0.216318
    154          1           0       33.703541   -4.995992   -1.387232
    155          1           0       28.197042   -3.589067    1.894635
    156          1           0       24.113871   -3.307954    0.942750
    157          1           0       24.537277   -4.790971    0.184770
    158          1           0       24.784832   -3.309677   -0.801956
 ---------------------------------------------------------------------

 SCF Done:  E(RCAM-B3LYP) =  -4069.79587725     A.U. after   18 cycles

 Excitation energies and oscillator strengths:

 Excited State   1:      Singlet-A      1.6845 eV  736.02 nm  f=0.3881  <S**2>=0.000
     309 -> 316       -0.17410
     312 -> 313        0.68817
     309 <- 316       -0.10834
 This state for optimization and/or second-order correction.
 Total Energy, E(TD-HF/TD-DFT) =  -4069.73397221
 Copying the excited state density for this state as the 1-particle RhoCI density.

 Excited State   2:      Singlet-A      1.7724 eV  699.52 nm  f=0.3830  <S**2>=0.000
     310 -> 315       -0.19902
     311 -> 314        0.67935
     310 <- 315       -0.10974

 Excited State   3:      Singlet-A      2.2144 eV  559.90 nm  f=0.1114  <S**2>=0.000
     310 -> 314        0.64302
     311 -> 315        0.28129

 Excited State   4:      Singlet-A      2.2457 eV  552.09 nm  f=0.1074  <S**2>=0.000
     309 -> 313        0.63690
     312 -> 316        0.29189

 Excited State   5:      Singlet-A      3.2362 eV  383.11 nm  f=0.0000  <S**2>=0.000
     311 -> 313        0.70711

 The electronic state is 1-A.
 Alpha  occ. eigenvalues --  -46.89796 -46.88379 -19.25126 -19.24778 -19.20738
 Alpha  occ. eigenvalues --  -19.20146 -19.19692 -19.19288 -19.18253 -19.18220
 Alpha  occ. eigenvalues --  -14.42307 -14.42201 -14.42007 -14.41520 -14.40193
 Alpha  occ. eigenvalues --  -14.39659 -14.39076 -14.38925 -10.40077 -10.38535
 Alpha  occ. eigenvalues --  -10.36376 -10.36256 -10.34742 -10.34014 -10.31821
 Alpha  occ. eigenvalues --  -10.31806 -10.31616 -10.31451 -10.31252 -10.31183
 Alpha  occ. eigenvalues --  -10.30964 -10.30664 -10.30651 -10.30555 -10.30471
 Alpha  occ. eigenvalues --  -10.30457 -10.30406 -10.30319 -10.29649 -10.29416
 Alpha  occ. eigenvalues --  -10.29277 -10.29196 -10.28969 -10.28910 -10.28904
 Alpha  occ. eigenvalues --  -10.28645 -10.28504 -10.28503 -10.28474 -10.28217
 Alpha  occ. eigenvalues --  -10.28169 -10.28157 -10.28130 -10.28112 -10.28075
 Alpha  occ. eigenvalues --  -10.27806 -10.27769 -10.27749 -10.27646 -10.27614
 Alpha  occ. eigenvalues --  -10.27597 -10.27540 -10.27159 -10.27119 -10.27085
 Alpha  occ. eigenvalues --  -10.27037 -10.26900 -10.26861 -10.26690 -10.26662
 Alpha  occ. eigenvalues --  -10.26544 -10.26434 -10.26427 -10.26392 -10.26285
 Alpha  occ. eigenvalues --  -10.26258 -10.26139 -10.25856 -10.25692 -10.25650
 Alpha  occ. eigenvalues --  -10.25455 -10.25378 -10.25311 -10.24634 -10.24627
 Alpha  occ. eigenvalues --  -10.24434  -3.18213  -3.16992  -1.93063  -1.92723
 Alpha  occ. eigenvalues --   -1.92480  -1.91885  -1.91453  -1.91295  -1.16075
 Alpha  occ. eigenvalues --   -1.15503  -1.12500  -1.10791  -1.10287  -1.08730
 Alpha  occ. eigenvalues --   -1.07206  -1.06729  -1.05366  -1.04908  -1.04298
 Alpha  occ. eigenvalues --   -1.03439  -1.02910  -1.02380  -1.01592  -1.00854
 Alpha  occ. eigenvalues --   -0.92505  -0.92240  -0.89303  -0.89212  -0.88367
 Alpha  occ. eigenvalues --   -0.88342  -0.88181  -0.87825  -0.87465  -0.86944
 Alpha  occ. eigenvalues --   -0.86870  -0.86838  -0.86424  -0.85810  -0.84087
 Alpha  occ. eigenvalues --   -0.83895  -0.83464  -0.83366  -0.82695  -0.82308
 Alpha  occ. eigenvalues --   -0.82229  -0.81722  -0.81145  -0.81033  -0.80261
 Alpha  occ. eigenvalues --   -0.80250  -0.78530  -0.77832  -0.77372  -0.77328
 Alpha  occ. eigenvalues --   -0.76760  -0.76366  -0.76120  -0.75735  -0.74931
 Alpha  occ. eigenvalues --   -0.74823  -0.72658  -0.72189  -0.71447  -0.71341
 Alpha  occ. eigenvalues --   -0.69397  -0.69238  -0.68773  -0.68433  -0.68165
 Alpha  occ. eigenvalues --   -0.67450  -0.66974  -0.66503  -0.65916  -0.65804
 Alpha  occ. eigenvalues --   -0.65390  -0.64811  -0.64737  -0.64500  -0.64091
 Alpha  occ. eigenvalues --   -0.64063  -0.62817  -0.61534  -0.60005  -0.59647
 Alpha  occ. eigenvalues --   -0.59475  -0.59351  -0.59115  -0.58990  -0.58562
 Alpha  occ. eigenvalues --   -0.58264  -0.58005  -0.57861  -0.57647  -0.57462
 Alpha  occ. eigenvalues --   -0.56328  -0.55974  -0.55701  -0.55329  -0.55142
 Alpha  occ. eigenvalues --   -0.54963  -0.54829  -0.54533  -0.54003  -0.53958
 Alpha  occ. eigenvalues --   -0.53336  -0.53242  -0.53136  -0.52933  -0.52718
 Alpha  occ. eigenvalues --   -0.52708  -0.52594  -0.52445  -0.52089  -0.52052
 Alpha  occ. eigenvalues --   -0.51890  -0.51732  -0.51638  -0.51354  -0.51097
 Alpha  occ. eigenvalues --   -0.51038  -0.50923  -0.50795  -0.50699  -0.50367
 Alpha  occ. eigenvalues --   -0.50200  -0.50083  -0.49701  -0.49611  -0.49415
 Alpha  occ. eigenvalues --   -0.49214  -0.49146  -0.49124  -0.48938  -0.48758
 Alpha  occ. eigenvalues --   -0.48512  -0.48446  -0.48445  -0.48175  -0.48010
 Alpha  occ. eigenvalues --   -0.47889  -0.47817  -0.47770  -0.47303  -0.47023
 Alpha  occ. eigenvalues --   -0.47018  -0.46948  -0.46611  -0.46435  -0.46418
 Alpha  occ. eigenvalues --   -0.46216  -0.46166  -0.46015  -0.45919  -0.45674
 Alpha  occ. eigenvalues --   -0.45585  -0.45234  -0.45103  -0.44954  -0.44839
 Alpha  occ. eigenvalues --   -0.44761  -0.44507  -0.44389  -0.44265  -0.44149
 Alpha  occ. eigenvalues --   -0.44072  -0.43963  -0.43722  -0.43528  -0.43505
 Alpha  occ. eigenvalues --   -0.43378  -0.43189  -0.43107  -0.42904  -0.42757
 Alpha  occ. eigenvalues --   -0.42708  -0.42678  -0.42648  -0.42491  -0.42248
 Alpha  occ. eigenvalues --   -0.42191  -0.41693  -0.41650  -0.41447  -0.41424
 Alpha  occ. eigenvalues --   -0.41170  -0.41072  -0.40972  -0.40636  -0.40458
 Alpha  occ. eigenvalues --   -0.40186  -0.39801  -0.39792  -0.39375  -0.38649
 Alpha  occ. eigenvalues --   -0.38201  -0.38181  -0.37964  -0.37723  -0.37601
 Alpha  occ. eigenvalues --   -0.37064  -0.36864  -0.36689  -0.36540  -0.36303
 Alpha  occ. eigenvalues --   -0.36225  -0.35602  -0.34782  -0.34292  -0.34258
 Alpha  occ. eigenvalues --   -0.33876  -0.33420  -0.33276  -0.31737  -0.31581
 Alpha  occ. eigenvalues --   -0.31248  -0.31180  -0.30367  -0.30214  -0.30128
 Alpha  occ. eigenvalues --   -0.29964  -0.29169  -0.29150  -0.24313  -0.23651
 Alpha  occ. eigenvalues --   -0.21222  -0.21166
 Alpha virt. eigenvalues --   -0.08780  -0.08403  -0.01675  -0.01645  -0.00016
 Alpha virt. eigenvalues --    0.00394   0.01335   0.02109   0.02167   0.02621
 Alpha virt. eigenvalues --    0.04576   0.04673   0.05484   0.05837   0.05956

 Mulliken charges:
               1
     1  Mg  11.999998
     2  C    5.999986
     3  C    6.000037
     4  C    5.999967
     5  C    5.999959
     6  N    6.999963
     7  C    6.000047
     8  C    5.999983
     9  C    6.000030
    10  C    5.999943
    11  C    6.000008
    12  C    5.999990
    13  C    6.000003
    14  H    0.999995
    15  N    7.000046
    16  C    5.999917
    17  C    5.999996
    18  C    5.999964
    19  C    5.999981
    20  C    6.000003
    21  C    5.999976
    22  O    7.999962
    23  C    5.999995
    24  N    7.000043
    25  C    5.999953
    26  C    6.000014
    27  C    5.999968
    28  C    6.000040
    29  C    6.000004
    30  C    6.000008
    31  C    6.000004
    32  N    6.999951
    33  C    6.000102
    34  C    6.000028
    35  C    6.000013
    36  C    6.000040
    37  C    5.999986
    38  C    6.000062
    39  O    8.000057
    40  C    5.999984
    41  C    6.000009
    42  O    8.000003
    43  O    8.000006
    44  C    5.999995
    45  H    0.999976
    46  H    0.999996
    47  H    1.000023
    48  H    0.999999
    49  H    0.999991
    50  H    0.999978
    51  H    0.999993
    52  H    0.999982
    53  H    1.000013
    54  H    1.000003
    55  H    1.000006
    56  H    1.000004
    57  H    0.999957
    58  H    0.999974
    59  H    0.999980
    60  H    0.999988
    61  H    0.999988
    62  H    0.999967
    63  H    1.000007
    64  H    1.000002
    65  H    0.999995
    66  H    0.999982
    67  H    1.000000
    68  H    1.000000
    69  H    1.000012
    70  H    0.999999
    71  H    1.000003
    72  H    1.000007
    73  H    1.000033
    74  H    1.000042
    75  H    1.000037
    76  H    1.000022
    77  H    1.000006
    78  H    0.999997
    79  H    1.000020
    80  Mg  11.998767
    81  C    6.012392
    82  C    5.971401
    83  C    5.986152
    84  C    6.028796
    85  N    6.990928
    86  C    5.971130
    87  C    6.013986
    88  C    5.987594
    89  C    6.042845
    90  C    5.998544
    91  C    6.001651
    92  C    6.004338
    93  H    0.988508
    94  N    6.989769
    95  C    6.058537
    96  C    6.008841
    97  C    6.022453
    98  C    6.035179
    99  C    5.992682
   100  C    6.012431
   101  O    8.020890
   102  C    5.996073
   103  N    7.014896
   104  C    6.025762
   105  C    5.991173
   106  C    6.008651
   107  C    5.960720
   108  C    5.998619
   109  C    6.002323
   110  C    6.000951
   111  N    7.002790
   112  C    5.950580
   113  C    5.980066
   114  C    5.987808
   115  C    5.972100
   116  C    6.002753
   117  C    5.982744
   118  O    7.968838
   119  C    5.997427
   120  C    5.994482
   121  O    7.994889
   122  O    7.996798
   123  C    6.003209
   124  H    1.008579
   125  H    1.007839
   126  H    0.993229
   127  H    0.997238
   128  H    1.004035
   129  H    1.003226
   130  H    1.014351
   131  H    0.995585
   132  H    0.987532
   133  H    1.009332
   134  H    1.003332
   135  H    0.995841
   136  H    1.019354
   137  H    1.016828
   138  H    1.019008
   139  H    1.012098
   140  H    1.013263
   141  H    1.008396
   142  H    1.002414
   143  H    0.999093
   144  H    0.999852
   145  H    0.995999
   146  H    1.010882
   147  H    1.005134
   148  H    0.990937
   149  H    1.003634
   150  H    0.995740
   151  H    0.996621
   152  H    0.986234
   153  H    0.976934
   154  H    0.981091
   155  H    0.989546
   156  H    0.993549
   157  H    0.996926
   158  H    0.994885
 Sum of Mulliken charges = 624.00000

 Dipole moment (field-independent basis, Debye):
    X=              0.9803    Y=             10.9786    Z=             -0.0584  Tot=             11.0224
 Quadrupole moment (field-independent basis, Debye-Ang):
   XX=             57.4364   YY=             10.3497   ZZ=             -1.0591
   XY=            345.2104   XZ=             -0.6941   YZ=             -0.8275

 Normal termination of Gaussian 16 at Thu Sep 23 05:54:37 2021.
