 Gaussian 16, Revision A.03,
 Gaussian 16:  ES64L-G16RevA.03 25-Dec-2016

 -----------------------------------
 #p cam-b3lyp/Def2SVP td=(nstates=5)
 -----------------------------------

 --------------------------------
 TDDFT excited states in gaussian
 --------------------------------
 Symbolic Z-matrix:
 Charge =  0 Multiplicity = 1

                         Standard orientation:
 ---------------------------------------------------------------------
 Center     Atomic      Atomic             Coordinates (Angstroms)
 Number     Number       Type             X           Y           Z
 ---------------------------------------------------------------------
      1         12           0      -20.256931    0.617777    0.401071
      2          6           0      -19.346379   -1.626975   -2.094004
      3          6           0      -21.027224   -2.029306    2.436375
      4          6           0      -21.433351    2.860154    2.681863
      5          6           0      -19.633818    3.190795   -1.970560
      6          7           0      -20.227979   -1.564204    0.185493
      7          6           0      -19.697749   -2.228249   -0.889069
      8          6           0      -19.724588   -3.717058   -0.534503
      9          6           0      -20.525791   -3.820637    0.751039
     10          6           0      -20.565578   -2.356822    1.174874
     11          6           0      -21.878702   -4.480184    0.740461
     12          6           0      -18.295823   -4.441395   -0.487465
     13          6           0      -18.287045   -5.895771    0.083816
     14          1           0      -18.459453   -7.080978   -0.901895
     15          7           0      -20.968077    0.420725    2.340728
     16          6           0      -21.243140   -0.738707    2.988496
     17          6           0      -21.805722   -0.375265    4.263047
     18          6           0      -21.924851    1.044454    4.321493
     19          6           0      -21.464246    1.512024    3.092033
     20          6           0      -22.174696   -1.432225    5.257770
     21          6           0      -22.597838    1.867313    5.458441
     22          8           0      -22.967955    3.015035    5.287218
     23          6           0      -22.946522    1.311206    6.755760
     24          7           0      -20.471999    2.600636    0.343211
     25          6           0      -20.939346    3.357161    1.417449
     26          6           0      -20.923139    4.867747    1.125762
     27          6           0      -20.100287    4.922556   -0.206199
     28          6           0      -20.026758    3.460036   -0.613009
     29          6           0      -22.209806    5.575960    1.234513
     30          6           0      -18.658968    5.679134   -0.223851
     31          6           0      -18.411821    6.864286   -1.162033
     32          7           0      -19.653735    0.791646   -1.703201
     33          6           0      -19.473825    1.898780   -2.484047
     34          6           0      -19.050727    1.541200   -3.796028
     35          6           0      -18.904085    0.105939   -3.682095
     36          6           0      -19.376055   -0.291803   -2.399827
     37          6           0      -18.752246    2.514483   -4.871991
     38          6           0      -18.425810   -1.065963   -4.378883
     39          8           0      -17.882407   -1.249725   -5.450356
     40          6           0      -18.723688   -2.281134   -3.318492
     41          6           0      -19.468761   -3.393871   -3.960741
     42          8           0      -20.609789   -3.299178   -4.356744
     43          8           0      -18.741680   -4.522025   -4.041129
     44          6           0      -19.469903   -5.787996   -4.437572
     45          1           0      -21.223749   -2.867609    3.108412
     46          1           0      -21.822308    3.556497    3.427469
     47          1           0      -19.475765    4.113077   -2.533797
     48          1           0      -20.283810   -4.100226   -1.387945
     49          1           0      -19.973045   -4.422984    1.471545
     50          1           0      -22.502924   -3.592645    0.839349
     51          1           0      -21.991252   -5.221375    1.531838
     52          1           0      -22.131318   -4.895704   -0.235291
     53          1           0      -17.737348   -3.775747    0.170993
     54          1           0      -17.858190   -4.459878   -1.484886
     55          1           0      -19.090457   -6.050413    0.802944
     56          1           0      -17.350730   -6.035028    0.624191
     57          1           0      -21.928029   -2.468804    5.025967
     58          1           0      -23.263094   -1.419669    5.305084
     59          1           0      -21.836845   -1.204512    6.268954
     60          1           0      -23.481706    0.364227    6.817847
     61          1           0      -23.459805    1.991703    7.435020
     62          1           0      -21.967956    1.208939    7.224389
     63          1           0      -20.272556    5.162317    1.949666
     64          1           0      -20.856474    5.369977   -0.851055
     65          1           0      -22.292544    6.335586    2.012300
     66          1           0      -22.980400    4.826003    1.414887
     67          1           0      -22.487351    6.134347    0.340581
     68          1           0      -17.904644    4.932893   -0.472564
     69          1           0      -18.291478    6.081757    0.720812
     70          1           0      -17.811267    6.635398   -2.042785
     71          1           0      -18.083263    7.778468   -0.668458
     72          1           0      -19.367176    7.114960   -1.623283
     73          1           0      -19.550701    3.255668   -4.897601
     74          1           0      -18.595968    2.037612   -5.839231
     75          1           0      -17.928427    3.137898   -4.522973
     76          1           0      -17.743804   -2.677137   -3.053803
     77          1           0      -18.650941   -6.420491   -4.779396
     78          1           0      -20.180666   -5.547714   -5.227998
     79          1           0      -19.906989   -6.194099   -3.525238
     80         12           0       20.659621    0.710174   -0.229416
     81          6           0       18.627997   -2.363930    0.256288
     82          6           0       23.238329   -1.233191    0.769341
     83          6           0       22.236298    3.454833   -0.398411
     84          6           0       17.555533    2.444757   -0.401968
     85          7           0       20.856242   -1.506243    0.472953
     86          6           0       19.955348   -2.555277    0.401629
     87          6           0       20.576659   -3.944217    0.588286
     88          6           0       21.944706   -3.509244    1.198690
     89          6           0       22.058748   -1.983348    0.814440
     90          6           0       22.079574   -3.717240    2.674309
     91          6           0       20.653643   -4.869211   -0.672414
     92          6           0       20.577605   -6.345189   -0.466428
     93          1           0       21.458787   -7.179080   -1.391069
     94          7           0       22.550757    1.086596    0.095540
     95          6           0       23.527162    0.134548    0.456171
     96          6           0       24.808007    0.776715    0.385996
     97          6           0       24.500382    2.115826   -0.114820
     98          6           0       23.087150    2.231133   -0.151017
     99          6           0       26.191408    0.064206    0.619188
    100          6           0       25.515063    3.149647   -0.496858
    101          8           0       25.184847    4.304423   -0.861349
    102          6           0       26.975966    2.884135   -0.526268
    103          7           0       20.048440    2.689152   -0.218126
    104          6           0       20.916844    3.697481   -0.318608
    105          6           0       20.245223    5.104071   -0.425815
    106          6           0       18.806645    4.646976   -0.872493
    107          6           0       18.765020    3.157944   -0.432515
    108          6           0       20.213220    5.850256    0.946768
    109          6           0       18.599321    4.756466   -2.441486
    110          6           0       18.883814    6.096365   -3.152212
    111          7           0       18.527223    0.184149   -0.148197
    112          6           0       17.421791    1.012886   -0.302949
    113          6           0       16.211368    0.235581   -0.174923
    114          6           0       16.636345   -1.086956    0.004778
    115          6           0       18.054829   -1.075351    0.103495
    116          6           0       14.812474    0.719619   -0.359680
    117          6           0       16.163771   -2.455232    0.170302
    118          8           0       15.058233   -2.980134    0.155492
    119          6           0       17.526475   -3.320592    0.245039
    120          6           0       17.394685   -4.154881    1.427116
    121          8           0       17.297825   -3.770850    2.603304
    122          8           0       16.955629   -5.382526    1.021366
    123          6           0       16.679000   -6.385642    1.998964
    124          1           0       24.042006   -1.949234    0.954257
    125          1           0       22.739136    4.421613   -0.466034
    126          1           0       16.636352    3.029986   -0.478364
    127          1           0       19.994344   -4.453967    1.356152
    128          1           0       22.769525   -3.966796    0.653214
    129          1           0       22.016834   -2.733787    3.140171
    130          1           0       23.072105   -4.106448    2.900791
    131          1           0       21.342862   -4.357891    3.158599
    132          1           0       21.626039   -4.693290   -1.131531
    133          1           0       19.898148   -4.519977   -1.375724
    134          1           0       19.531797   -6.575323   -0.668964
    135          1           0       20.631974   -6.625059    0.585716
    136          1           0       26.779159   -0.126385   -0.278281
    137          1           0       26.074429   -0.849933    1.200608
    138          1           0       26.693910    0.786259    1.263994
    139          1           0       27.340446    2.868248    0.501184
    140          1           0       27.413901    3.718353   -1.075026
    141          1           0       27.110442    1.961049   -1.089139
    142          1           0       20.826489    5.654173   -1.166595
    143          1           0       17.976371    5.156254   -0.384165
    144          1           0       20.881226    6.706051    0.846239
    145          1           0       20.453775    5.248002    1.822253
    146          1           0       19.178396    6.193845    0.981437
    147          1           0       17.549287    4.567082   -2.663063
    148          1           0       19.152240    3.923751   -2.875828
    149          1           0       19.649072    5.858068   -3.890770
    150          1           0       19.312414    6.724283   -2.370583
    151          1           0       18.002940    6.503745   -3.648173
    152          1           0       14.927112    1.700790   -0.820973
    153          1           0       14.390986    0.807631    0.641631
    154          1           0       14.175409    0.036661   -0.921628
    155          1           0       17.619979   -3.930748   -0.653146
    156          1           0       16.895956   -6.037180    3.008959
    157          1           0       17.369295   -7.198057    1.771520
    158          1           0       15.680584   -6.800678    1.868637
 ---------------------------------------------------------------------

 SCF Done:  E(RCAM-B3LYP) =  -4069.81045454     A.U. after   17 cycles

 Excitation energies and oscillator strengths:

 Excited State   1:      Singlet-A      1.6590 eV  747.36 nm  f=0.3921  <S**2>=0.000
     309 -> 316       -0.15614
     311 -> 313        0.69161
     309 <- 316       -0.10433
 This state for optimization and/or second-order correction.
 Total Energy, E(TD-HF/TD-DFT) =  -4069.74948878
 Copying the excited state density for this state as the 1-particle RhoCI density.

 Excited State   2:      Singlet-A      1.6981 eV  730.13 nm  f=0.3959  <S**2>=0.000
     310 -> 315        0.17920
     312 -> 314        0.68575
     310 <- 315        0.10835

 Excited State   3:      Singlet-A      2.1781 eV  569.22 nm  f=0.2144  <S**2>=0.000
     309 -> 313        0.66759
     311 -> 316        0.21706

 Excited State   4:      Singlet-A      2.2224 eV  557.88 nm  f=0.0951  <S**2>=0.000
     310 -> 314        0.63226
     312 -> 315       -0.30140

 Excited State   5:      Singlet-A      2.8828 eV  430.08 nm  f=0.0000  <S**2>=0.000
     312 -> 313        0.70710

 The electronic state is 1-A.
 Alpha  occ. eigenvalues --  -46.88906 -46.87859 -19.24820 -19.24400 -19.19901
 Alpha  occ. eigenvalues --  -19.19428 -19.19063 -19.18642 -19.18239 -19.17443
 Alpha  occ. eigenvalues --  -14.42695 -14.42317 -14.42024 -14.41440 -14.39714
 Alpha  occ. eigenvalues --  -14.39580 -14.39030 -14.38420 -10.39153 -10.37947
 Alpha  occ. eigenvalues --  -10.35986 -10.35567 -10.34629 -10.34001 -10.32088
 Alpha  occ. eigenvalues --  -10.31580 -10.31416 -10.31132 -10.31109 -10.31095
 Alpha  occ. eigenvalues --  -10.30812 -10.30742 -10.30707 -10.30460 -10.30424
 Alpha  occ. eigenvalues --  -10.30373 -10.29860 -10.29787 -10.29679 -10.29588
 Alpha  occ. eigenvalues --  -10.29082 -10.29066 -10.28976 -10.28965 -10.28320
 Alpha  occ. eigenvalues --  -10.28278 -10.28129 -10.28123 -10.28120 -10.28120
 Alpha  occ. eigenvalues --  -10.28093 -10.28054 -10.28024 -10.28010 -10.27933
 Alpha  occ. eigenvalues --  -10.27777 -10.27515 -10.27512 -10.27503 -10.27432
 Alpha  occ. eigenvalues --  -10.27393 -10.27242 -10.27197 -10.27122 -10.27059
 Alpha  occ. eigenvalues --  -10.27039 -10.27015 -10.26934 -10.26924 -10.26845
 Alpha  occ. eigenvalues --  -10.26839 -10.26724 -10.26396 -10.26234 -10.26202
 Alpha  occ. eigenvalues --  -10.26138 -10.25953 -10.25742 -10.25731 -10.25626
 Alpha  occ. eigenvalues --  -10.25606 -10.25573 -10.25550 -10.25544 -10.25474
 Alpha  occ. eigenvalues --  -10.25223  -3.17567  -3.16519  -1.92437  -1.92019
 Alpha  occ. eigenvalues --   -1.91890  -1.91434  -1.90976  -1.90821  -1.16547
 Alpha  occ. eigenvalues --   -1.15828  -1.10966  -1.10234  -1.09471  -1.07476
 Alpha  occ. eigenvalues --   -1.07029  -1.06714  -1.05222  -1.04923  -1.04092
 Alpha  occ. eigenvalues --   -1.04044  -1.03670  -1.03298  -1.02543  -1.02334
 Alpha  occ. eigenvalues --   -0.93713  -0.92415  -0.89563  -0.89196  -0.88806
 Alpha  occ. eigenvalues --   -0.88693  -0.88315  -0.88056  -0.87553  -0.87472
 Alpha  occ. eigenvalues --   -0.86956  -0.86848  -0.86685  -0.86251  -0.84753
 Alpha  occ. eigenvalues --   -0.84624  -0.84050  -0.83688  -0.83155  -0.82624
 Alpha  occ. eigenvalues --   -0.82453  -0.82083  -0.81393  -0.81075  -0.80862
 Alpha  occ. eigenvalues --   -0.80724  -0.78776  -0.78576  -0.77778  -0.77498
 Alpha  occ. eigenvalues --   -0.77297  -0.77264  -0.76237  -0.75875  -0.75455
 Alpha  occ. eigenvalues --   -0.75131  -0.73368  -0.72761  -0.71798  -0.70955
 Alpha  occ. eigenvalues --   -0.69370  -0.69301  -0.68928  -0.68655  -0.68209
 Alpha  occ. eigenvalues --   -0.68184  -0.66952  -0.66900  -0.65711  -0.65530
 Alpha  occ. eigenvalues --   -0.65407  -0.65145  -0.64914  -0.64660  -0.64489
 Alpha  occ. eigenvalues --   -0.64186  -0.62068  -0.61406  -0.60762  -0.60513
 Alpha  occ. eigenvalues --   -0.59791  -0.59736  -0.59534  -0.58936  -0.58873
 Alpha  occ. eigenvalues --   -0.58811  -0.58409  -0.57941  -0.57691  -0.57282
 Alpha  occ. eigenvalues --   -0.56344  -0.55918  -0.55736  -0.55643  -0.55391
 Alpha  occ. eigenvalues --   -0.54898  -0.54766  -0.54636  -0.54557  -0.54207
 Alpha  occ. eigenvalues --   -0.53787  -0.53710  -0.53243  -0.53140  -0.52949
 Alpha  occ. eigenvalues --   -0.52885  -0.52574  -0.52572  -0.52427  -0.52327
 Alpha  occ. eigenvalues --   -0.52058  -0.51770  -0.51431  -0.51296  -0.51237
 Alpha  occ. eigenvalues --   -0.51032  -0.50973  -0.50824  -0.50475  -0.50311
 Alpha  occ. eigenvalues --   -0.50285  -0.49917  -0.49914  -0.49859  -0.49729
 Alpha  occ. eigenvalues --   -0.49508  -0.49419  -0.49327  -0.49220  -0.49121
 Alpha  occ. eigenvalues --   -0.48974  -0.48745  -0.48606  -0.48342  -0.48212
 Alpha  occ. eigenvalues --   -0.48163  -0.47870  -0.47704  -0.47582  -0.47432
 Alpha  occ. eigenvalues --   -0.47274  -0.47085  -0.46820  -0.46573  -0.46539
 Alpha  occ. eigenvalues --   -0.46520  -0.46396  -0.46233  -0.46208  -0.46047
 Alpha  occ. eigenvalues --   -0.45961  -0.45407  -0.45133  -0.45128  -0.45094
 Alpha  occ. eigenvalues --   -0.44990  -0.44851  -0.44780  -0.44388  -0.44374
 Alpha  occ. eigenvalues --   -0.44222  -0.43993  -0.43962  -0.43717  -0.43664
 Alpha  occ. eigenvalues --   -0.43353  -0.43284  -0.43102  -0.42856  -0.42791
 Alpha  occ. eigenvalues --   -0.42695  -0.42684  -0.42123  -0.42023  -0.41940
 Alpha  occ. eigenvalues --   -0.41807  -0.41645  -0.41490  -0.41350  -0.41264
 Alpha  occ. eigenvalues --   -0.40945  -0.40695  -0.40645  -0.40361  -0.40180
 Alpha  occ. eigenvalues --   -0.39823  -0.39498  -0.39487  -0.39278  -0.39259
 Alpha  occ. eigenvalues --   -0.38770  -0.38588  -0.38252  -0.37774  -0.37753
 Alpha  occ. eigenvalues --   -0.37243  -0.37194  -0.36867  -0.36414  -0.36271
 Alpha  occ. eigenvalues --   -0.36034  -0.35836  -0.34625  -0.34325  -0.34049
 Alpha  occ. eigenvalues --   -0.33965  -0.33146  -0.32965  -0.31578  -0.31408
 Alpha  occ. eigenvalues --   -0.31290  -0.30949  -0.30189  -0.30142  -0.29902
 Alpha  occ. eigenvalues --   -0.29818  -0.29700  -0.29029  -0.24281  -0.24186
 Alpha  occ. eigenvalues --   -0.21739  -0.21109
 Alpha virt. eigenvalues --   -0.09668  -0.08778  -0.01856  -0.00787   0.00281
 Alpha virt. eigenvalues --    0.00635   0.01733   0.02245   0.02749   0.03398
 Alpha virt. eigenvalues --    0.03916   0.04720   0.04966   0.05262   0.05963

 Mulliken charges:
               1
     1  Mg   0.828845
     2  C    0.048431
     3  C   -0.079076
     4  C   -0.067479
     5  C   -0.103366
     6  N   -0.255723
     7  C   -0.052011
     8  C   -0.000610
     9  C   -0.103504
    10  C    0.035613
    11  C    0.099476
    12  C    0.042554
    13  C   -0.062442
    14  H    0.013867
    15  N   -0.403930
    16  C    0.147245
    17  C   -0.142791
    18  C   -0.017887
    19  C    0.106300
    20  C    0.100442
    21  C    0.025239
    22  O   -0.202197
    23  C    0.059500
    24  N   -0.343349
    25  C    0.041671
    26  C   -0.041093
    27  C   -0.002499
    28  C    0.022986
    29  C    0.094417
    30  C    0.043900
    31  C   -0.014157
    32  N   -0.286890
    33  C    0.153015
    34  C   -0.160760
    35  C   -0.026706
    36  C    0.074284
    37  C    0.149296
    38  C    0.065585
    39  O   -0.154833
    40  C   -0.074530
    41  C    0.174462
    42  O   -0.224098
    43  O   -0.340799
    44  C    0.172983
    45  H   -0.041511
    46  H    0.001667
    47  H   -0.024262
    48  H    0.009379
    49  H   -0.002339
    50  H    0.017492
    51  H    0.021531
    52  H    0.015305
    53  H    0.009149
    54  H    0.039104
    55  H    0.023316
    56  H    0.035852
    57  H    0.015666
    58  H    0.027285
    59  H    0.025110
    60  H    0.036023
    61  H    0.023034
    62  H    0.027303
    63  H    0.010712
    64  H    0.008000
    65  H    0.017732
    66  H    0.025441
    67  H    0.006128
    68  H    0.012100
    69  H    0.010609
    70  H    0.018377
    71  H    0.023288
    72  H   -0.001784
    73  H    0.012707
    74  H    0.047925
    75  H    0.021424
    76  H    0.037266
    77  H    0.044548
    78  H    0.065020
    79  H    0.042022
    80  Mg   0.846899
    81  C    0.005405
    82  C   -0.055092
    83  C   -0.031304
    84  C   -0.072628
    85  N   -0.231494
    86  C   -0.075656
    87  C   -0.050082
    88  C   -0.049662
    89  C   -0.041710
    90  C    0.095477
    91  C    0.083141
    92  C   -0.058018
    93  H    0.037271
    94  N   -0.406895
    95  C    0.180160
    96  C   -0.159279
    97  C   -0.027483
    98  C    0.117511
    99  C    0.116966
   100  C   -0.040715
   101  O   -0.244772
   102  C    0.073563
   103  N   -0.320042
   104  C    0.020726
   105  C   -0.057366
   106  C   -0.052505
   107  C    0.068241
   108  C    0.098071
   109  C    0.007919
   110  C    0.024827
   111  N   -0.315193
   112  C    0.105948
   113  C   -0.190304
   114  C    0.005574
   115  C    0.086715
   116  C    0.131693
   117  C    0.079946
   118  O   -0.155726
   119  C    0.008074
   120  C    0.184163
   121  O   -0.240444
   122  O   -0.318916
   123  C    0.170265
   124  H   -0.033458
   125  H   -0.013442
   126  H   -0.020859
   127  H    0.010321
   128  H   -0.000306
   129  H    0.022594
   130  H    0.011698
   131  H    0.026524
   132  H    0.008164
   133  H    0.007407
   134  H    0.024555
   135  H    0.021004
   136  H    0.046344
   137  H    0.017059
   138  H    0.021986
   139  H    0.041809
   140  H    0.028578
   141  H    0.025083
   142  H    0.021997
   143  H   -0.000201
   144  H    0.023673
   145  H    0.038007
   146  H    0.007166
   147  H   -0.000281
   148  H    0.009461
   149  H    0.020184
   150  H    0.016583
   151  H    0.025544
   152  H    0.010511
   153  H    0.036116
   154  H    0.041413
   155  H    0.041975
   156  H    0.049445
   157  H    0.016034
   158  H    0.044043
 Sum of Mulliken charges =  -0.00000

 Dipole moment (field-independent basis, Debye):
    X=              3.1454    Y=             -1.9943    Z=              3.8777  Tot=              5.3766
 Quadrupole moment (field-independent basis, Debye-Ang):
   XX=           -437.7299   YY=           -462.3873   ZZ=           -532.8010
   XY=            -38.1081   XZ=           -118.2363   YZ=            -22.8733

 Normal termination of Gaussian 16 at Wed Sep 15 23:20:58 2021.
