 Gaussian 16, Revision A.03,
 Gaussian 16:  ES64L-G16RevA.03 25-Dec-2016

 -----------------------------------
 #p cam-b3lyp/Def2SVP td=(nstates=5)
 -----------------------------------

 --------------------------------
 TDDFT excited states in gaussian
 --------------------------------
 Symbolic Z-matrix:
 Charge =  0 Multiplicity = 1

                         Standard orientation:
 ---------------------------------------------------------------------
 Center     Atomic      Atomic             Coordinates (Angstroms)
 Number     Number       Type             X           Y           Z
 ---------------------------------------------------------------------
      1         12           0       11.105035    0.135647    0.022793
      2          6           0        7.886716    1.084795    1.282930
      3          6           0       10.215890   -3.210171    0.753543
      4          6           0       13.725699   -0.868800   -1.816636
      5          6           0       11.471768    3.342386   -1.200200
      6          7           0        9.258327   -0.969545    0.932715
      7          6           0        8.118260   -0.314975    1.306834
      8          6           0        7.010061   -1.324844    1.559634
      9          6           0        7.900181   -2.634453    1.649058
     10          6           0        9.230399   -2.316805    1.080166
     11          6           0        8.078190   -3.285494    3.061751
     12          6           0        5.916635   -1.211775    0.449331
     13          6           0        4.383796   -1.217074    0.848274
     14          1           0        3.465788   -2.340735    0.334445
     15          7           0       11.967501   -1.671273   -0.314129
     16          6           0       11.480539   -2.948159    0.071111
     17          6           0       12.405986   -3.989004   -0.336742
     18          6           0       13.426131   -3.284779   -1.096962
     19          6           0       13.049656   -1.883673   -1.079510
     20          6           0       12.125734   -5.413775   -0.096630
     21          6           0       14.637239   -3.996652   -1.724505
     22          8           0       14.652402   -5.259073   -1.635451
     23          6           0       15.814373   -3.300518   -2.440074
     24          7           0       12.327577    1.009947   -1.573558
     25          6           0       13.434116    0.456378   -2.031223
     26          6           0       14.100322    1.422302   -2.956966
     27          6           0       13.381629    2.769892   -2.680188
     28          6           0       12.239088    2.347744   -1.808539
     29          6           0       15.680962    1.578760   -2.937416
     30          6           0       12.893538    3.574170   -3.993138
     31          6           0       13.532987    4.951394   -4.296139
     32          7           0       10.078703    1.890971    0.177093
     33          6           0       10.333420    3.097514   -0.356723
     34          6           0        9.337509    4.042773   -0.006681
     35          6           0        8.381047    3.291000    0.679670
     36          6           0        8.851222    1.954617    0.736925
     37          6           0        9.245019    5.493357   -0.262612
     38          6           0        7.095951    3.433774    1.291397
     39          8           0        6.391218    4.416721    1.343496
     40          6           0        6.677530    1.882823    1.699287
     41          6           0        6.449755    1.791982    3.146395
     42          8           0        7.160333    2.305058    4.020094
     43          8           0        5.327257    1.010936    3.320993
     44          6           0        4.902432    0.783696    4.701278
     45          1           0       10.002299   -4.260455    0.957795
     46          1           0       14.520173   -1.148410   -2.511170
     47          1           0       11.649056    4.407684   -1.363091
     48          1           0        6.656999   -1.141379    2.574745
     49          1           0        7.369731   -3.223594    0.900048
     50          1           0        9.149388   -3.338901    3.261334
     51          1           0        7.701179   -4.305396    3.134383
     52          1           0        7.677638   -2.712652    3.898676
     53          1           0        6.152759   -2.110692   -0.119703
     54          1           0        6.029640   -0.382161   -0.248212
     55          1           0        4.011439   -0.246947    0.519689
     56          1           0        4.317106   -1.102935    1.929801
     57          1           0       11.128538   -5.600082   -0.496059
     58          1           0       12.057314   -5.603790    0.974296
     59          1           0       12.868740   -6.142296   -0.422186
     60          1           0       15.451690   -2.929242   -3.398713
     61          1           0       16.645189   -3.994728   -2.318253
     62          1           0       16.028473   -2.458419   -1.781084
     63          1           0       13.897348    1.071679   -3.968121
     64          1           0       14.084103    3.259884   -2.005874
     65          1           0       15.933163    1.881006   -3.954161
     66          1           0       16.118607    0.624209   -2.645597
     67          1           0       15.901765    2.384860   -2.237522
     68          1           0       11.817186    3.666421   -3.848969
     69          1           0       12.971780    2.892234   -4.839761
     70          1           0       12.793536    5.723672   -4.503797
     71          1           0       14.203520    4.841781   -5.148883
     72          1           0       14.198617    5.307856   -3.509806
     73          1           0        8.534313    5.977078    0.406722
     74          1           0        8.888545    5.434202   -1.291137
     75          1           0       10.255498    5.872230   -0.415350
     76          1           0        5.867518    1.513272    1.071487
     77          1           0        4.812227    1.718457    5.255085
     78          1           0        5.604020    0.110969    5.196745
     79          1           0        3.916317    0.319368    4.689642
     80         12           0      -10.639468   -0.015688   -0.475796
     81          6           0       -8.090705   -1.096842    1.500567
     82          6           0      -10.487680    3.119406    0.933115
     83          6           0      -13.299426    0.864944   -2.375765
     84          6           0      -11.076301   -3.355864   -1.545450
     85          7           0       -9.560277    0.841714    1.213697
     86          6           0       -8.377201    0.304220    1.614299
     87          6           0       -7.508823    1.264835    2.353661
     88          6           0       -8.478755    2.557218    2.352466
     89          6           0       -9.596977    2.171837    1.440543
     90          6           0       -9.007020    2.933091    3.810439
     91          6           0       -6.174421    1.511769    1.506762
     92          6           0       -4.943776    2.011679    2.266507
     93          1           0       -4.976926    2.584092    3.705516
     94          7           0      -11.708994    1.752158   -0.800192
     95          6           0      -11.493864    2.942119   -0.085910
     96          6           0      -12.459720    3.902968   -0.566106
     97          6           0      -13.257946    3.274266   -1.543312
     98          6           0      -12.718082    1.924100   -1.625879
     99          6           0      -12.458709    5.362151   -0.053662
    100          6           0      -14.542250    3.886621   -2.312861
    101          8           0      -15.093783    3.307723   -3.257400
    102          6           0      -15.172845    5.230699   -1.987995
    103          7           0      -11.966325   -1.130832   -1.852710
    104          6           0      -13.000677   -0.503374   -2.461808
    105          6           0      -13.948718   -1.502723   -3.122604
    106          6           0      -13.035550   -2.860083   -3.135995
    107          6           0      -11.879641   -2.446333   -2.211710
    108          6           0      -15.410881   -1.610418   -2.489281
    109          6           0      -12.349347   -3.250489   -4.541795
    110          6           0      -12.470737   -4.666787   -5.073315
    111          7           0       -9.773182   -1.894261   -0.187084
    112          6           0      -10.036693   -3.129389   -0.648426
    113          6           0       -9.004239   -4.089026   -0.145684
    114          6           0       -8.193435   -3.263170    0.668580
    115          6           0       -8.802022   -1.984402    0.686715
    116          6           0       -8.793977   -5.534541   -0.428230
    117          6           0       -7.041890   -3.341723    1.486883
    118          8           0       -6.301801   -4.312477    1.747415
    119          6           0       -6.920193   -1.937176    2.072503
    120          6           0       -7.014569   -2.022439    3.511948
    121          8           0       -7.855748   -2.495134    4.210589
    122          8           0       -5.930335   -1.308558    4.013606
    123          6           0       -5.710330   -1.111570    5.497577
    124          1           0      -10.355289    4.178353    1.162833
    125          1           0      -14.213721    1.132548   -2.910178
    126          1           0      -11.266861   -4.422762   -1.674548
    127          1           0       -7.171226    1.064199    3.370264
    128          1           0       -7.969766    3.434197    1.952586
    129          1           0       -9.117481    3.997417    4.016775
    130          1           0       -8.407466    2.406706    4.552949
    131          1           0      -10.012960    2.518864    3.885676
    132          1           0       -6.344227    2.211655    0.688345
    133          1           0       -5.941078    0.545038    1.059854
    134          1           0       -4.484507    2.758013    1.617074
    135          1           0       -4.205686    1.210941    2.292853
    136          1           0      -11.649420    5.594039    0.638585
    137          1           0      -13.431757    5.529175    0.407084
    138          1           0      -12.404451    6.007326   -0.930838
    139          1           0      -14.431533    5.961813   -2.308403
    140          1           0      -15.177391    5.442702   -0.918633
    141          1           0      -16.203300    5.263411   -2.341233
    142          1           0      -14.074141   -1.198904   -4.162551
    143          1           0      -13.611494   -3.720799   -2.795492
    144          1           0      -15.624520   -2.626372   -2.156334
    145          1           0      -16.156861   -1.283789   -3.212904
    146          1           0      -15.484031   -1.003378   -1.586607
    147          1           0      -11.298132   -2.964370   -4.572934
    148          1           0      -12.790497   -2.586284   -5.284365
    149          1           0      -11.453714   -5.027304   -5.223586
    150          1           0      -13.060869   -4.729807   -5.987154
    151          1           0      -12.899483   -5.311218   -4.304584
    152          1           0       -9.466204   -5.959191   -1.173625
    153          1           0       -8.928371   -6.130671    0.474732
    154          1           0       -7.771189   -5.668722   -0.779796
    155          1           0       -5.974931   -1.461511    1.809497
    156          1           0       -6.531489   -1.550644    6.064571
    157          1           0       -5.714151   -0.045582    5.728972
    158          1           0       -4.760838   -1.600338    5.715749
 ---------------------------------------------------------------------

 SCF Done:  E(RCAM-B3LYP) =  -4069.79177537     A.U. after   19 cycles

 Excitation energies and oscillator strengths:

 Excited State   1:      Singlet-A      1.6986 eV  729.93 nm  f=0.3757  <S**2>=0.000
     309 -> 315        0.18520
     311 -> 313        0.68529
     309 <- 315        0.11145
 This state for optimization and/or second-order correction.
 Total Energy, E(TD-HF/TD-DFT) =  -4069.72935396
 Copying the excited state density for this state as the 1-particle RhoCI density.

 Excited State   2:      Singlet-A      1.7384 eV  713.19 nm  f=0.4087  <S**2>=0.000
     310 -> 316       -0.19167
     312 -> 314        0.68285
     310 <- 316       -0.10974

 Excited State   3:      Singlet-A      2.2285 eV  556.36 nm  f=0.1069  <S**2>=0.000
     310 -> 314        0.63826
     312 -> 316        0.29429

 Excited State   4:      Singlet-A      2.2522 eV  550.51 nm  f=0.1317  <S**2>=0.000
     309 -> 313        0.64012
     311 -> 315       -0.28867

 Excited State   5:      Singlet-A      2.8857 eV  429.65 nm  f=0.0000  <S**2>=0.000
     312 -> 313        0.70705

 The electronic state is 1-A.
 Alpha  occ. eigenvalues --  -46.89406 -46.88911 -19.26296 -19.23722 -19.20582
 Alpha  occ. eigenvalues --  -19.19763 -19.19624 -19.19196 -19.18801 -19.18133
 Alpha  occ. eigenvalues --  -14.42483 -14.41934 -14.41677 -14.41406 -14.39937
 Alpha  occ. eigenvalues --  -14.39833 -14.39556 -14.39399 -10.40118 -10.38684
 Alpha  occ. eigenvalues --  -10.36231 -10.35470 -10.35246 -10.34495 -10.32478
 Alpha  occ. eigenvalues --  -10.31954 -10.31751 -10.31189 -10.30779 -10.30681
 Alpha  occ. eigenvalues --  -10.30649 -10.30645 -10.30408 -10.30330 -10.30317
 Alpha  occ. eigenvalues --  -10.30223 -10.30000 -10.29877 -10.29760 -10.29753
 Alpha  occ. eigenvalues --  -10.29087 -10.29000 -10.28912 -10.28864 -10.28781
 Alpha  occ. eigenvalues --  -10.28748 -10.28566 -10.28298 -10.28257 -10.28196
 Alpha  occ. eigenvalues --  -10.28193 -10.28107 -10.27980 -10.27969 -10.27821
 Alpha  occ. eigenvalues --  -10.27765 -10.27608 -10.27601 -10.27527 -10.27521
 Alpha  occ. eigenvalues --  -10.27497 -10.27470 -10.27454 -10.27432 -10.27394
 Alpha  occ. eigenvalues --  -10.27367 -10.27246 -10.27205 -10.27002 -10.26795
 Alpha  occ. eigenvalues --  -10.26678 -10.26660 -10.26443 -10.26442 -10.26380
 Alpha  occ. eigenvalues --  -10.26259 -10.26228 -10.26165 -10.26121 -10.26093
 Alpha  occ. eigenvalues --  -10.26073 -10.25899 -10.25371 -10.25039 -10.24759
 Alpha  occ. eigenvalues --  -10.24572  -3.17813  -3.17466  -1.92733  -1.92355
 Alpha  occ. eigenvalues --   -1.92250  -1.92124  -1.91909  -1.91782  -1.16567
 Alpha  occ. eigenvalues --   -1.15667  -1.10846  -1.09516  -1.08348  -1.08192
 Alpha  occ. eigenvalues --   -1.07242  -1.07239  -1.05571  -1.05458  -1.04732
 Alpha  occ. eigenvalues --   -1.04465  -1.03742  -1.03583  -1.02636  -1.02345
 Alpha  occ. eigenvalues --   -0.93508  -0.93191  -0.89335  -0.88615  -0.88289
 Alpha  occ. eigenvalues --   -0.88260  -0.88127  -0.87977  -0.87522  -0.87478
 Alpha  occ. eigenvalues --   -0.87072  -0.86913  -0.86228  -0.86008  -0.84643
 Alpha  occ. eigenvalues --   -0.84337  -0.83867  -0.83479  -0.82736  -0.82372
 Alpha  occ. eigenvalues --   -0.82011  -0.81610  -0.81375  -0.81198  -0.80489
 Alpha  occ. eigenvalues --   -0.80309  -0.78419  -0.78231  -0.77657  -0.77478
 Alpha  occ. eigenvalues --   -0.77138  -0.76873  -0.76305  -0.76217  -0.75344
 Alpha  occ. eigenvalues --   -0.75191  -0.73203  -0.72599  -0.72217  -0.71992
 Alpha  occ. eigenvalues --   -0.69824  -0.69393  -0.69269  -0.68641  -0.68471
 Alpha  occ. eigenvalues --   -0.68228  -0.66753  -0.66163  -0.65986  -0.65639
 Alpha  occ. eigenvalues --   -0.65344  -0.65209  -0.65122  -0.64766  -0.64522
 Alpha  occ. eigenvalues --   -0.64256  -0.62976  -0.61846  -0.60456  -0.60153
 Alpha  occ. eigenvalues --   -0.59932  -0.59909  -0.59554  -0.59191  -0.58927
 Alpha  occ. eigenvalues --   -0.58809  -0.58493  -0.58435  -0.57764  -0.57602
 Alpha  occ. eigenvalues --   -0.56252  -0.56032  -0.55997  -0.55663  -0.55506
 Alpha  occ. eigenvalues --   -0.55312  -0.54868  -0.54510  -0.54266  -0.53770
 Alpha  occ. eigenvalues --   -0.53688  -0.53305  -0.53047  -0.52986  -0.52944
 Alpha  occ. eigenvalues --   -0.52768  -0.52638  -0.52205  -0.52155  -0.52107
 Alpha  occ. eigenvalues --   -0.51780  -0.51703  -0.51643  -0.51414  -0.51409
 Alpha  occ. eigenvalues --   -0.51244  -0.50824  -0.50578  -0.50542  -0.50349
 Alpha  occ. eigenvalues --   -0.50037  -0.49978  -0.49816  -0.49725  -0.49573
 Alpha  occ. eigenvalues --   -0.49411  -0.49404  -0.49139  -0.48919  -0.48795
 Alpha  occ. eigenvalues --   -0.48475  -0.48313  -0.48152  -0.47957  -0.47941
 Alpha  occ. eigenvalues --   -0.47754  -0.47654  -0.47621  -0.47593  -0.47464
 Alpha  occ. eigenvalues --   -0.47274  -0.47034  -0.46936  -0.46642  -0.46594
 Alpha  occ. eigenvalues --   -0.46474  -0.46455  -0.46255  -0.46177  -0.46143
 Alpha  occ. eigenvalues --   -0.45932  -0.45618  -0.45592  -0.45387  -0.45200
 Alpha  occ. eigenvalues --   -0.44985  -0.44700  -0.44529  -0.44354  -0.44275
 Alpha  occ. eigenvalues --   -0.43986  -0.43899  -0.43786  -0.43700  -0.43665
 Alpha  occ. eigenvalues --   -0.43559  -0.43284  -0.43147  -0.43095  -0.42954
 Alpha  occ. eigenvalues --   -0.42808  -0.42671  -0.42334  -0.42333  -0.41751
 Alpha  occ. eigenvalues --   -0.41640  -0.41530  -0.41297  -0.41233  -0.41148
 Alpha  occ. eigenvalues --   -0.41094  -0.41055  -0.40844  -0.40829  -0.40324
 Alpha  occ. eigenvalues --   -0.40236  -0.40213  -0.39727  -0.39406  -0.38916
 Alpha  occ. eigenvalues --   -0.38747  -0.38425  -0.38240  -0.37791  -0.37742
 Alpha  occ. eigenvalues --   -0.37631  -0.37534  -0.36762  -0.36596  -0.36447
 Alpha  occ. eigenvalues --   -0.36100  -0.35852  -0.35208  -0.34520  -0.34238
 Alpha  occ. eigenvalues --   -0.34113  -0.33162  -0.33022  -0.31333  -0.31264
 Alpha  occ. eigenvalues --   -0.31146  -0.31106  -0.31029  -0.30333  -0.30184
 Alpha  occ. eigenvalues --   -0.30121  -0.30057  -0.29372  -0.24175  -0.23839
 Alpha  occ. eigenvalues --   -0.21316  -0.21137
 Alpha virt. eigenvalues --   -0.08934  -0.08522  -0.01734  -0.01707  -0.00014
 Alpha virt. eigenvalues --    0.00276   0.02296   0.02303   0.02418   0.02792
 Alpha virt. eigenvalues --    0.04230   0.04671   0.05045   0.05331   0.05843

 Mulliken charges:
               1
     1  Mg   0.845482
     2  C   -0.112941
     3  C   -0.073020
     4  C   -0.091021
     5  C   -0.092674
     6  N   -0.247170
     7  C   -0.075168
     8  C   -0.009218
     9  C   -0.029619
    10  C    0.035805
    11  C    0.076673
    12  C    0.033440
    13  C   -0.046266
    14  H    0.035325
    15  N   -0.393857
    16  C    0.113939
    17  C   -0.127832
    18  C   -0.056937
    19  C    0.207535
    20  C    0.128568
    21  C   -0.019400
    22  O   -0.248785
    23  C    0.082576
    24  N   -0.275362
    25  C   -0.016051
    26  C   -0.039378
    27  C   -0.051958
    28  C    0.065233
    29  C    0.078735
    30  C    0.053609
    31  C    0.008863
    32  N   -0.340814
    33  C    0.091938
    34  C   -0.194324
    35  C   -0.021006
    36  C    0.159303
    37  C    0.167649
    38  C    0.065081
    39  O   -0.152661
    40  C    0.021690
    41  C    0.224220
    42  O   -0.224486
    43  O   -0.341310
    44  C    0.178523
    45  H   -0.025283
    46  H   -0.057464
    47  H   -0.022719
    48  H   -0.004154
    49  H    0.003725
    50  H    0.016536
    51  H    0.023577
    52  H    0.015126
    53  H    0.007110
    54  H    0.030002
    55  H    0.025079
    56  H    0.020524
    57  H    0.026103
    58  H    0.010292
    59  H    0.043904
    60  H    0.062291
    61  H    0.038817
    62  H    0.023367
    63  H    0.011775
    64  H    0.009015
    65  H    0.018268
    66  H    0.020321
    67  H    0.011051
    68  H    0.009845
    69  H    0.000816
    70  H    0.024517
    71  H    0.014037
    72  H    0.012603
    73  H    0.056723
    74  H    0.022425
    75  H    0.007113
    76  H    0.030551
    77  H    0.047306
    78  H    0.035277
    79  H    0.038598
    80  Mg   0.812129
    81  C   -0.074118
    82  C   -0.059129
    83  C   -0.048929
    84  C   -0.095308
    85  N   -0.287523
    86  C   -0.007171
    87  C   -0.035757
    88  C   -0.060126
    89  C    0.073620
    90  C    0.067939
    91  C    0.021863
    92  C   -0.043673
    93  H    0.021745
    94  N   -0.352783
    95  C    0.090900
    96  C   -0.157948
    97  C   -0.044678
    98  C    0.100292
    99  C    0.108412
   100  C    0.033445
   101  O   -0.220409
   102  C    0.070306
   103  N   -0.263497
   104  C    0.011792
   105  C   -0.016212
   106  C   -0.070736
   107  C    0.089946
   108  C    0.065459
   109  C    0.016599
   110  C    0.018728
   111  N   -0.299300
   112  C    0.080579
   113  C   -0.145637
   114  C   -0.016693
   115  C    0.164975
   116  C    0.124124
   117  C    0.057533
   118  O   -0.193811
   119  C    0.017399
   120  C    0.186233
   121  O   -0.169734
   122  O   -0.386225
   123  C    0.166730
   124  H   -0.032517
   125  H   -0.011473
   126  H   -0.026965
   127  H    0.021580
   128  H    0.006045
   129  H    0.022618
   130  H    0.011821
   131  H    0.016873
   132  H    0.008975
   133  H    0.010035
   134  H    0.020782
   135  H    0.030064
   136  H    0.019388
   137  H    0.030249
   138  H    0.026586
   139  H    0.033504
   140  H    0.005468
   141  H    0.050271
   142  H    0.010979
   143  H    0.010622
   144  H    0.011992
   145  H    0.028807
   146  H    0.024172
   147  H    0.014766
   148  H   -0.003642
   149  H    0.015231
   150  H    0.026207
   151  H    0.004524
   152  H    0.001627
   153  H    0.041976
   154  H    0.040764
   155  H    0.039566
   156  H    0.049455
   157  H    0.037531
   158  H    0.050770
 Sum of Mulliken charges =  -0.00000

 Dipole moment (field-independent basis, Debye):
    X=              0.5682    Y=              4.2594    Z=             -1.6143  Tot=              4.5904
 Quadrupole moment (field-independent basis, Debye-Ang):
   XX=           -493.7837   YY=           -530.3786   ZZ=           -502.8495
   XY=             21.0968   XZ=            -22.9645   YZ=              1.3568

 Normal termination of Gaussian 16 at Wed Sep 15 05:01:31 2021.
