 Gaussian 16, Revision A.03,
 Gaussian 16:  ES64L-G16RevA.03 25-Dec-2016

 -----------------------------------
 #p cam-b3lyp/Def2SVP td=(nstates=5)
 -----------------------------------

 --------------------------------
 TDDFT excited states in gaussian
 --------------------------------
 Symbolic Z-matrix:
 Charge =  0 Multiplicity = 1

                         Standard orientation:
 ---------------------------------------------------------------------
 Center     Atomic      Atomic             Coordinates (Angstroms)
 Number     Number       Type             X           Y           Z
 ---------------------------------------------------------------------
      1         12           0       30.679819    0.430789   -0.357527
      2          6           0       27.806329   -1.584296   -0.538319
      3          6           0       28.660645    3.204075   -0.589846
      4          6           0       33.304472    2.217428    0.572350
      5          6           0       32.619993   -2.503427    0.136383
      6          7           0       28.496329    0.757634   -0.285109
      7          6           0       27.475029   -0.223780   -0.368027
      8          6           0       26.166779    0.342060   -0.739960
      9          6           0       26.491153    1.894328   -0.849716
     10          6           0       27.988171    1.973015   -0.595108
     11          6           0       25.967676    2.519252   -2.165566
     12          6           0       25.097265    0.181638    0.297022
     13          6           0       25.532411    0.309593    1.764481
     14          1           0       24.591462    0.968442    2.846942
     15          7           0       30.994026    2.464951   -0.073140
     16          6           0       30.072973    3.409924   -0.342120
     17          6           0       30.698982    4.702864   -0.222203
     18          6           0       32.068987    4.457375    0.042127
     19          6           0       32.204805    2.997266    0.167364
     20          6           0       30.004013    6.033748   -0.327228
     21          6           0       33.156197    5.523429    0.174453
     22          8           0       32.892368    6.704964    0.065677
     23          6           0       34.593529    5.317839    0.551202
     24          7           0       32.590861   -0.061746    0.508714
     25          6           0       33.547281    0.883801    0.766703
     26          6           0       34.952679    0.232413    0.983595
     27          6           0       34.591426   -1.276189    1.136074
     28          6           0       33.198390   -1.295755    0.545928
     29          6           0       35.967252    0.439899   -0.166755
     30          6           0       34.400869   -1.805976    2.635214
     31          6           0       35.065821   -3.088318    2.983188
     32          7           0       30.380752   -1.569194   -0.321942
     33          6           0       31.261977   -2.578351   -0.305762
     34          6           0       30.609755   -3.844736   -0.811483
     35          6           0       29.245225   -3.437505   -0.955237
     36          6           0       29.134722   -2.091024   -0.506406
     37          6           0       31.195733   -5.226126   -1.065763
     38          6           0       27.931680   -3.954231   -1.210783
     39          8           0       27.560859   -5.086078   -1.479035
     40          6           0       26.943742   -2.741324   -0.975162
     41          6           0       26.101874   -3.087650    0.235390
     42          8           0       26.456038   -3.174591    1.364548
     43          8           0       24.789126   -3.182118   -0.175088
     44          6           0       23.827647   -3.228094    0.931152
     45          1           0       28.043452    4.062957   -0.860900
     46          1           0       34.223422    2.790086    0.708266
     47          1           0       33.306178   -3.352512    0.161581
     48          1           0       25.849247   -0.141694   -1.663672
     49          1           0       26.146031    2.514978   -0.022866
     50          1           0       25.465289    3.404557   -1.775362
     51          1           0       25.296770    1.789213   -2.618510
     52          1           0       26.767254    2.849368   -2.829040
     53          1           0       24.450125   -0.680801    0.135120
     54          1           0       24.303625    0.927807    0.252842
     55          1           0       26.481956    0.844545    1.726500
     56          1           0       25.772028   -0.723028    2.018816
     57          1           0       30.308055    6.699151    0.481474
     58          1           0       28.925389    5.884773   -0.375492
     59          1           0       30.355257    6.439091   -1.276438
     60          1           0       34.765617    4.960043    1.565813
     61          1           0       34.948891    6.347982    0.580347
     62          1           0       35.185729    4.864937   -0.244676
     63          1           0       35.381894    0.665872    1.886826
     64          1           0       35.254230   -1.939048    0.579226
     65          1           0       36.147190   -0.521855   -0.646785
     66          1           0       36.818041    1.044154    0.147677
     67          1           0       35.501245    1.063569   -0.928787
     68          1           0       33.344921   -1.866395    2.897688
     69          1           0       34.827741   -1.009987    3.245603
     70          1           0       35.735785   -3.002839    3.838473
     71          1           0       35.612651   -3.534931    2.152438
     72          1           0       34.345844   -3.846681    3.289599
     73          1           0       30.636816   -5.917171   -0.434734
     74          1           0       32.277903   -5.153727   -0.950495
     75          1           0       30.910585   -5.477609   -2.087225
     76          1           0       26.327822   -2.533241   -1.849773
     77          1           0       24.170172   -2.692287    1.816307
     78          1           0       23.737915   -4.293676    1.142534
     79          1           0       22.868875   -2.941545    0.499861
     80         12           0      -30.528349    0.355527    0.403179
     81          6           0      -28.259161   -1.683585   -1.325281
     82          6           0      -30.825953    2.267328   -2.444742
     83          6           0      -32.637450    2.277910    2.060834
     84          6           0      -29.976006   -1.616946    3.257468
     85          7           0      -29.684902    0.197500   -1.639136
     86          6           0      -28.750111   -0.697644   -2.159613
     87          6           0      -28.634717   -0.635084   -3.733282
     88          6           0      -29.331409    0.692093   -3.963339
     89          6           0      -30.013164    1.097447   -2.591609
     90          6           0      -28.270916    1.834111   -4.313210
     91          6           0      -29.545600   -1.842010   -4.234922
     92          6           0      -28.992241   -2.712448   -5.447452
     93          1           0      -28.191701   -1.836513   -6.376935
     94          7           0      -31.437577    2.073845   -0.072884
     95          6           0      -31.450754    2.708101   -1.241922
     96          6           0      -32.292669    3.875024   -1.229810
     97          6           0      -32.978904    3.816312   -0.000658
     98          6           0      -32.309560    2.702958    0.771851
     99          6           0      -32.447318    4.854842   -2.334684
    100          6           0      -34.189517    4.585145    0.487175
    101          8           0      -34.837998    4.253073    1.485975
    102          6           0      -34.591429    5.892739   -0.200763
    103          7           0      -31.167686    0.341604    2.426346
    104          6           0      -32.128398    1.254442    2.792697
    105          6           0      -32.608882    0.910294    4.200911
    106          6           0      -31.831465   -0.445447    4.570907
    107          6           0      -30.975106   -0.651537    3.349221
    108          6           0      -32.411601    2.146460    5.147801
    109          6           0      -32.683689   -1.645633    4.952584
    110          6           0      -32.273754   -2.302111    6.308004
    111          7           0      -29.345898   -1.288747    0.880721
    112          6           0      -29.205362   -1.990315    2.119142
    113          6           0      -28.250793   -3.032794    1.990618
    114          6           0      -27.865989   -2.934571    0.642839
    115          6           0      -28.524659   -1.835653    0.053282
    116          6           0      -27.774359   -4.047825    2.979132
    117          6           0      -27.048184   -3.506997   -0.378184
    118          8           0      -26.253711   -4.417795   -0.379801
    119          6           0      -27.370530   -2.772032   -1.709985
    120          6           0      -26.095482   -2.399312   -2.375034
    121          8           0      -25.292222   -1.538336   -2.027290
    122          8           0      -26.002281   -3.147673   -3.478512
    123          6           0      -24.869172   -2.900135   -4.345199
    124          1           0      -31.117184    2.872326   -3.305762
    125          1           0      -33.334099    2.959036    2.555983
    126          1           0      -29.820699   -2.293252    4.100721
    127          1           0      -27.582826   -0.825627   -3.943911
    128          1           0      -30.097037    0.587144   -4.731312
    129          1           0      -27.244427    1.467251   -4.298280
    130          1           0      -28.373473    2.632047   -3.578016
    131          1           0      -28.573648    2.179729   -5.301705
    132          1           0      -30.533367   -1.526170   -4.569268
    133          1           0      -29.721602   -2.469907   -3.361107
    134          1           0      -29.807311   -3.014445   -6.105249
    135          1           0      -28.596573   -3.669198   -5.105621
    136          1           0      -33.461759    4.732649   -2.716699
    137          1           0      -31.758760    4.645559   -3.152150
    138          1           0      -32.305912    5.888269   -2.019645
    139          1           0      -35.203303    6.330389    0.587681
    140          1           0      -35.123091    5.752922   -1.142719
    141          1           0      -33.809686    6.635449   -0.358880
    142          1           0      -33.673399    0.697050    4.297600
    143          1           0      -31.159968   -0.237228    5.403976
    144          1           0      -33.342023    2.237280    5.708421
    145          1           0      -32.146394    3.066316    4.626524
    146          1           0      -31.743243    1.907228    5.975785
    147          1           0      -32.715851   -2.430803    4.197873
    148          1           0      -33.657724   -1.211348    5.182266
    149          1           0      -31.511077   -1.706430    6.809854
    150          1           0      -31.737362   -3.238475    6.155702
    151          1           0      -33.132149   -2.411776    6.971070
    152          1           0      -28.629992   -4.722597    3.017085
    153          1           0      -27.526955   -3.501773    3.889207
    154          1           0      -26.929040   -4.626273    2.609056
    155          1           0      -27.803923   -3.560356   -2.326910
    156          1           0      -23.942464   -2.967910   -3.774671
    157          1           0      -24.803702   -1.910214   -4.797979
    158          1           0      -24.897168   -3.678887   -5.107555
 ---------------------------------------------------------------------

 SCF Done:  E(RCAM-B3LYP) =  -4069.82607031     A.U. after   19 cycles

 Excitation energies and oscillator strengths:

 Excited State   1:      Singlet-A      1.6651 eV  744.61 nm  f=0.3728  <S**2>=0.000
     309 -> 315        0.17251
     312 -> 313        0.68783
     309 <- 315        0.10780
 This state for optimization and/or second-order correction.
 Total Energy, E(TD-HF/TD-DFT) =  -4069.76487955
 Copying the excited state density for this state as the 1-particle RhoCI density.

 Excited State   2:      Singlet-A      1.7258 eV  718.40 nm  f=0.3845  <S**2>=0.000
     310 -> 316       -0.16128
     311 -> 314        0.68778

 Excited State   3:      Singlet-A      2.2662 eV  547.11 nm  f=0.1013  <S**2>=0.000
     309 -> 313        0.62924
     312 -> 315       -0.31016

 Excited State   4:      Singlet-A      2.2841 eV  542.80 nm  f=0.1219  <S**2>=0.000
     310 -> 314        0.63701
     311 -> 316        0.28302

 Excited State   5:      Singlet-A      3.1871 eV  389.02 nm  f=0.0000  <S**2>=0.000
     311 -> 313        0.70711

 The electronic state is 1-A.
 Alpha  occ. eigenvalues --  -46.88572 -46.87761 -19.25252 -19.24593 -19.20417
 Alpha  occ. eigenvalues --  -19.19912 -19.19114 -19.18786 -19.18241 -19.17397
 Alpha  occ. eigenvalues --  -14.42365 -14.42233 -14.41877 -14.41613 -14.40215
 Alpha  occ. eigenvalues --  -14.39585 -14.39524 -14.38461 -10.39234 -10.38306
 Alpha  occ. eigenvalues --  -10.36229 -10.34983 -10.34596 -10.33147 -10.31897
 Alpha  occ. eigenvalues --  -10.31425 -10.31358 -10.31200 -10.31006 -10.30937
 Alpha  occ. eigenvalues --  -10.30807 -10.30673 -10.30648 -10.30620 -10.30573
 Alpha  occ. eigenvalues --  -10.30459 -10.30442 -10.30109 -10.29939 -10.29308
 Alpha  occ. eigenvalues --  -10.29058 -10.29001 -10.28906 -10.28706 -10.28508
 Alpha  occ. eigenvalues --  -10.28496 -10.28432 -10.28332 -10.28325 -10.28278
 Alpha  occ. eigenvalues --  -10.28115 -10.28039 -10.27971 -10.27821 -10.27811
 Alpha  occ. eigenvalues --  -10.27735 -10.27543 -10.27521 -10.27518 -10.27425
 Alpha  occ. eigenvalues --  -10.27138 -10.27088 -10.27068 -10.27032 -10.26742
 Alpha  occ. eigenvalues --  -10.26688 -10.26624 -10.26611 -10.26554 -10.26526
 Alpha  occ. eigenvalues --  -10.26499 -10.26478 -10.26382 -10.26217 -10.26155
 Alpha  occ. eigenvalues --  -10.26024 -10.25992 -10.25880 -10.25792 -10.25702
 Alpha  occ. eigenvalues --  -10.25504 -10.25482 -10.25417 -10.25361 -10.25120
 Alpha  occ. eigenvalues --  -10.23576  -3.17216  -3.16471  -1.92078  -1.91676
 Alpha  occ. eigenvalues --   -1.91535  -1.91381  -1.90906  -1.90802  -1.17255
 Alpha  occ. eigenvalues --   -1.17093  -1.10401  -1.10349  -1.09941  -1.09362
 Alpha  occ. eigenvalues --   -1.08950  -1.07077  -1.04978  -1.04574  -1.03985
 Alpha  occ. eigenvalues --   -1.03906  -1.03329  -1.02914  -1.02618  -1.02337
 Alpha  occ. eigenvalues --   -0.93174  -0.92644  -0.89858  -0.89636  -0.89422
 Alpha  occ. eigenvalues --   -0.88475  -0.88414  -0.88378  -0.87970  -0.87517
 Alpha  occ. eigenvalues --   -0.87025  -0.86629  -0.86326  -0.85797  -0.84736
 Alpha  occ. eigenvalues --   -0.84160  -0.83948  -0.83520  -0.82704  -0.82346
 Alpha  occ. eigenvalues --   -0.81836  -0.81682  -0.81264  -0.80867  -0.80506
 Alpha  occ. eigenvalues --   -0.80371  -0.78900  -0.77939  -0.77499  -0.77417
 Alpha  occ. eigenvalues --   -0.76839  -0.76758  -0.76037  -0.75593  -0.75127
 Alpha  occ. eigenvalues --   -0.74972  -0.73095  -0.72695  -0.71683  -0.71397
 Alpha  occ. eigenvalues --   -0.69621  -0.69179  -0.68864  -0.68801  -0.68676
 Alpha  occ. eigenvalues --   -0.67601  -0.67383  -0.67078  -0.65858  -0.65407
 Alpha  occ. eigenvalues --   -0.65236  -0.65072  -0.65007  -0.64530  -0.64498
 Alpha  occ. eigenvalues --   -0.64371  -0.62467  -0.62091  -0.60782  -0.59998
 Alpha  occ. eigenvalues --   -0.59587  -0.59407  -0.59132  -0.59057  -0.58933
 Alpha  occ. eigenvalues --   -0.58621  -0.58129  -0.57757  -0.57372  -0.57293
 Alpha  occ. eigenvalues --   -0.56634  -0.56553  -0.56095  -0.55656  -0.55410
 Alpha  occ. eigenvalues --   -0.55321  -0.55091  -0.54596  -0.54453  -0.54065
 Alpha  occ. eigenvalues --   -0.53817  -0.53530  -0.53157  -0.53033  -0.52845
 Alpha  occ. eigenvalues --   -0.52587  -0.52534  -0.52366  -0.52275  -0.52148
 Alpha  occ. eigenvalues --   -0.52117  -0.51764  -0.51610  -0.51413  -0.51307
 Alpha  occ. eigenvalues --   -0.51153  -0.51027  -0.50921  -0.50727  -0.50405
 Alpha  occ. eigenvalues --   -0.50292  -0.50125  -0.49974  -0.49630  -0.49596
 Alpha  occ. eigenvalues --   -0.49395  -0.49253  -0.49243  -0.48929  -0.48760
 Alpha  occ. eigenvalues --   -0.48626  -0.48591  -0.48514  -0.48409  -0.48356
 Alpha  occ. eigenvalues --   -0.47891  -0.47668  -0.47547  -0.47532  -0.47188
 Alpha  occ. eigenvalues --   -0.47170  -0.47098  -0.46896  -0.46773  -0.46733
 Alpha  occ. eigenvalues --   -0.46554  -0.46387  -0.46369  -0.46070  -0.45996
 Alpha  occ. eigenvalues --   -0.45873  -0.45494  -0.45266  -0.45219  -0.45056
 Alpha  occ. eigenvalues --   -0.44700  -0.44667  -0.44546  -0.44442  -0.44364
 Alpha  occ. eigenvalues --   -0.44282  -0.44040  -0.43894  -0.43686  -0.43653
 Alpha  occ. eigenvalues --   -0.43592  -0.43223  -0.43074  -0.42842  -0.42796
 Alpha  occ. eigenvalues --   -0.42606  -0.42514  -0.42372  -0.42338  -0.42190
 Alpha  occ. eigenvalues --   -0.42118  -0.41931  -0.41894  -0.41566  -0.41110
 Alpha  occ. eigenvalues --   -0.41108  -0.40808  -0.40764  -0.40391  -0.40370
 Alpha  occ. eigenvalues --   -0.40056  -0.39815  -0.39726  -0.39146  -0.38803
 Alpha  occ. eigenvalues --   -0.38446  -0.38268  -0.37870  -0.37621  -0.37409
 Alpha  occ. eigenvalues --   -0.37323  -0.37029  -0.36903  -0.36460  -0.36433
 Alpha  occ. eigenvalues --   -0.36302  -0.35755  -0.35094  -0.34231  -0.34220
 Alpha  occ. eigenvalues --   -0.33837  -0.33016  -0.32800  -0.32258  -0.31384
 Alpha  occ. eigenvalues --   -0.31369  -0.31092  -0.30892  -0.30529  -0.29895
 Alpha  occ. eigenvalues --   -0.29677  -0.29645  -0.29257  -0.24301  -0.24115
 Alpha  occ. eigenvalues --   -0.21049  -0.21038
 Alpha virt. eigenvalues --   -0.08771  -0.08575  -0.01780  -0.01690   0.00226
 Alpha virt. eigenvalues --    0.00529   0.01390   0.02532   0.02822   0.03417
 Alpha virt. eigenvalues --    0.05063   0.05439   0.05575   0.05891   0.05901

 Mulliken charges:
               1
     1  Mg   0.832775
     2  C   -0.065595
     3  C   -0.082001
     4  C   -0.051836
     5  C   -0.084148
     6  N   -0.298297
     7  C   -0.025807
     8  C    0.018507
     9  C   -0.084321
    10  C    0.035870
    11  C    0.085086
    12  C    0.008009
    13  C   -0.055346
    14  H    0.025503
    15  N   -0.351571
    16  C    0.137577
    17  C   -0.183563
    18  C   -0.001202
    19  C    0.138252
    20  C    0.160175
    21  C   -0.032207
    22  O   -0.208002
    23  C    0.057953
    24  N   -0.289630
    25  C    0.015883
    26  C   -0.027169
    27  C   -0.062480
    28  C    0.016118
    29  C    0.089643
    30  C    0.056707
    31  C    0.010161
    32  N   -0.344928
    33  C    0.137337
    34  C   -0.195328
    35  C   -0.004422
    36  C    0.133855
    37  C    0.146232
    38  C    0.051132
    39  O   -0.169707
    40  C    0.007131
    41  C    0.187063
    42  O   -0.181051
    43  O   -0.345669
    44  C    0.175648
    45  H   -0.026732
    46  H   -0.055804
    47  H   -0.024806
    48  H    0.014640
    49  H    0.028493
    50  H    0.016096
    51  H    0.023445
    52  H    0.024295
    53  H   -0.006915
    54  H   -0.001124
    55  H    0.031137
    56  H    0.037568
    57  H    0.042137
    58  H   -0.001152
    59  H    0.032065
    60  H    0.043736
    61  H    0.018227
    62  H    0.031561
    63  H    0.006923
    64  H    0.007269
    65  H    0.018876
    66  H    0.023705
    67  H    0.006581
    68  H    0.033393
    69  H   -0.000400
    70  H    0.016109
    71  H    0.005060
    72  H    0.013769
    73  H    0.046478
    74  H    0.016166
    75  H    0.034357
    76  H    0.034144
    77  H    0.056370
    78  H    0.035439
    79  H    0.036559
    80  Mg   0.840682
    81  C    0.028124
    82  C   -0.106847
    83  C   -0.066770
    84  C   -0.071334
    85  N   -0.281536
    86  C   -0.102067
    87  C   -0.000394
    88  C   -0.045976
    89  C    0.075557
    90  C    0.067051
    91  C    0.037847
    92  C   -0.060936
    93  H    0.017409
    94  N   -0.375428
    95  C    0.135960
    96  C   -0.158170
    97  C   -0.029504
    98  C    0.112166
    99  C    0.127602
   100  C    0.018906
   101  O   -0.213666
   102  C    0.015296
   103  N   -0.316304
   104  C    0.098088
   105  C   -0.060688
   106  C   -0.001784
   107  C    0.049106
   108  C    0.056779
   109  C    0.053013
   110  C   -0.019144
   111  N   -0.321807
   112  C    0.076454
   113  C   -0.187203
   114  C    0.016455
   115  C    0.096297
   116  C    0.134232
   117  C    0.001224
   118  O   -0.166774
   119  C   -0.002492
   120  C    0.159850
   121  O   -0.226900
   122  O   -0.302936
   123  C    0.183679
   124  H   -0.025727
   125  H    0.002372
   126  H   -0.035534
   127  H    0.026779
   128  H    0.014460
   129  H    0.029586
   130  H    0.022751
   131  H    0.018145
   132  H    0.007145
   133  H    0.019937
   134  H    0.019469
   135  H    0.040687
   136  H    0.029963
   137  H    0.017937
   138  H    0.035626
   139  H    0.033394
   140  H    0.043093
   141  H    0.031304
   142  H    0.017412
   143  H    0.009760
   144  H    0.005327
   145  H    0.040356
   146  H    0.003591
   147  H    0.024244
   148  H    0.003366
   149  H    0.001196
   150  H    0.016276
   151  H    0.023399
   152  H    0.031484
   153  H    0.031567
   154  H    0.036706
   155  H    0.038106
   156  H    0.036745
   157  H    0.027809
   158  H    0.038152
 Sum of Mulliken charges =  -0.00000

 Dipole moment (field-independent basis, Debye):
    X=             -2.2298    Y=              3.2020    Z=             -3.5624  Tot=              5.2835
 Quadrupole moment (field-independent basis, Debye-Ang):
   XX=           -155.8888   YY=           -553.8290   ZZ=           -476.8504
   XY=            -87.2250   XZ=             48.8852   YZ=            -16.8331

 Normal termination of Gaussian 16 at Tue Sep 14 19:30:58 2021.
