 Gaussian 16, Revision A.03,
 Gaussian 16:  ES64L-G16RevA.03 25-Dec-2016

 -----------------------------------
 #p cam-b3lyp/Def2SVP td=(nstates=5)
 -----------------------------------

 --------------------------------
 TDDFT excited states in gaussian
 --------------------------------
 Symbolic Z-matrix:
 Charge =  0 Multiplicity = 1

                         Standard orientation:
 ---------------------------------------------------------------------
 Center     Atomic      Atomic             Coordinates (Angstroms)
 Number     Number       Type             X           Y           Z
 ---------------------------------------------------------------------
      1         12           0       24.470566    0.389556   -0.269560
      2          6           0       22.812617   -1.878059    1.849897
      3          6           0       22.943547    2.958450    1.507964
      4          6           0       25.793539    2.471646   -2.492670
      5          6           0       25.240393   -2.330702   -2.482714
      6          7           0       23.043436    0.521941    1.437664
      7          6           0       22.610408   -0.561254    2.215255
      8          6           0       22.109756   -0.045333    3.551650
      9          6           0       21.890934    1.479551    3.338211
     10          6           0       22.681939    1.671767    2.009225
     11          6           0       20.410888    1.975723    3.342159
     12          6           0       23.024602   -0.400458    4.774653
     13          6           0       22.236340   -0.590244    6.144817
     14          1           0       20.722944   -0.358773    6.136864
     15          7           0       24.481109    2.370881   -0.379319
     16          6           0       23.863741    3.262218    0.481218
     17          6           0       24.211362    4.613539    0.148325
     18          6           0       24.933641    4.518943   -1.084134
     19          6           0       25.120315    3.100155   -1.330311
     20          6           0       23.691543    5.857836    0.931085
     21          6           0       25.422867    5.618616   -1.968852
     22          8           0       25.906418    5.382452   -3.101717
     23          6           0       25.365510    7.158590   -1.745851
     24          7           0       25.147264    0.162171   -2.336536
     25          6           0       25.746140    1.175239   -2.990696
     26          6           0       26.529168    0.641505   -4.216527
     27          6           0       26.340849   -0.879661   -4.235431
     28          6           0       25.541416   -1.038325   -2.867648
     29          6           0       26.202366    1.404823   -5.463726
     30          6           0       27.616160   -1.746393   -4.310888
     31          6           0       28.624945   -1.542208   -3.153804
     32          7           0       24.075073   -1.707823   -0.396508
     33          6           0       24.580750   -2.639170   -1.238330
     34          6           0       24.279864   -3.943299   -0.649760
     35          6           0       23.604681   -3.748552    0.587637
     36          6           0       23.451193   -2.344249    0.686553
     37          6           0       24.741425   -5.293095   -1.192818
     38          6           0       23.010025   -4.393803    1.714346
     39          8           0       22.965862   -5.557201    2.105396
     40          6           0       22.377437   -3.137847    2.605321
     41          6           0       20.903016   -3.395709    2.852768
     42          8           0       20.034449   -3.172965    2.032290
     43          8           0       20.688566   -3.810593    4.147508
     44          6           0       19.428613   -4.468140    4.478724
     45          1           0       22.517309    3.679006    2.208823
     46          1           0       26.289876    3.201542   -3.135157
     47          1           0       25.626447   -3.113016   -3.139074
     48          1           0       21.147569   -0.504993    3.777035
     49          1           0       22.428971    1.990758    4.135992
     50          1           0       20.332178    2.477650    2.378391
     51          1           0       20.266028    2.747997    4.098570
     52          1           0       19.598054    1.253063    3.413640
     53          1           0       23.718781    0.408365    5.000617
     54          1           0       23.615402   -1.279868    4.521584
     55          1           0       22.580952    0.187793    6.826171
     56          1           0       22.460878   -1.592312    6.509439
     57          1           0       23.478629    6.638969    0.200271
     58          1           0       24.434899    6.261560    1.617666
     59          1           0       22.819658    5.794807    1.582022
     60          1           0       25.844460    7.428652   -0.804270
     61          1           0       24.350141    7.550995   -1.801289
     62          1           0       26.061322    7.727141   -2.361719
     63          1           0       27.558605    0.962596   -4.062857
     64          1           0       25.577754   -1.052943   -4.995039
     65          1           0       26.972656    2.128388   -5.731226
     66          1           0       25.228078    1.883051   -5.361634
     67          1           0       26.059121    0.779636   -6.345747
     68          1           0       28.088789   -1.409282   -5.233654
     69          1           0       27.349900   -2.800246   -4.397385
     70          1           0       28.714947   -2.519123   -2.679221
     71          1           0       28.188575   -0.800713   -2.484518
     72          1           0       29.577192   -1.108052   -3.458887
     73          1           0       25.106211   -5.957376   -0.409903
     74          1           0       25.617258   -5.187452   -1.832376
     75          1           0       23.935928   -5.705363   -1.801146
     76          1           0       22.886084   -3.212528    3.566807
     77          1           0       18.649014   -3.933395    3.935523
     78          1           0       19.164583   -4.445958    5.536087
     79          1           0       19.565143   -5.513080    4.200119
     80         12           0      -24.080316    0.660215    0.452342
     81          6           0      -23.787754   -2.671717   -0.846444
     82          6           0      -20.716199    1.091522   -0.668624
     83          6           0      -24.373402    4.003459    0.612586
     84          6           0      -27.453391    0.175005    0.740873
     85          7           0      -22.514471   -0.642980   -0.646881
     86          6           0      -22.607344   -1.945585   -1.041943
     87          6           0      -21.279939   -2.450138   -1.708245
     88          6           0      -20.250829   -1.315357   -1.234963
     89          6           0      -21.224165   -0.195419   -0.903366
     90          6           0      -19.425984   -1.676088   -0.020812
     91          6           0      -21.418788   -2.732553   -3.195051
     92          6           0      -20.775913   -4.034404   -3.739953
     93          1           0      -19.366386   -4.001244   -4.494931
     94          7           0      -22.674875    2.380961    0.121108
     95          6           0      -21.316511    2.291014   -0.248085
     96          6           0      -20.737921    3.640209   -0.244612
     97          6           0      -21.818614    4.507228    0.184498
     98          6           0      -23.011310    3.689567    0.239561
     99          6           0      -19.362106    4.025022   -0.640179
    100          6           0      -21.676353    5.973560    0.507154
    101          8           0      -20.560895    6.440643    0.560213
    102          6           0      -22.835074    6.903670    0.783404
    103          7           0      -25.680641    1.833256    0.524663
    104          6           0      -25.512586    3.196950    0.748011
    105          6           0      -26.905578    3.805664    0.925030
    106          6           0      -27.835605    2.562743    1.176301
    107          6           0      -26.915978    1.439748    0.833308
    108          6           0      -27.078703    4.980598    1.956220
    109          6           0      -29.215399    2.518880    0.450692
    110          6           0      -30.440877    2.338134    1.285859
    111          7           0      -25.373723   -0.904626    0.171240
    112          6           0      -26.735277   -0.995482    0.402135
    113          6           0      -27.187090   -2.398033    0.322309
    114          6           0      -26.028049   -3.062010   -0.238853
    115          6           0      -25.009905   -2.106049   -0.306505
    116          6           0      -28.528411   -3.008036    0.633601
    117          6           0      -25.532475   -4.393808   -0.695724
    118          8           0      -26.109264   -5.434853   -0.832816
    119          6           0      -24.117878   -4.124978   -1.198739
    120          6           0      -23.192919   -5.067690   -0.488478
    121          8           0      -23.041689   -4.947638    0.708331
    122          8           0      -22.477344   -5.984976   -1.315266
    123          6           0      -21.404597   -6.785248   -0.650386
    124          1           0      -19.672795    1.250037   -0.949614
    125          1           0      -24.634973    5.057549    0.719197
    126          1           0      -28.494189    0.023691    1.033625
    127          1           0      -20.889586   -3.337954   -1.211573
    128          1           0      -19.639138   -0.961447   -2.064747
    129          1           0      -20.034263   -1.511535    0.868283
    130          1           0      -18.521933   -1.068385   -0.056831
    131          1           0      -19.085905   -2.705420    0.097542
    132          1           0      -20.908200   -1.915282   -3.703496
    133          1           0      -22.465551   -2.590894   -3.463843
    134          1           0      -21.535290   -4.412146   -4.425033
    135          1           0      -20.637520   -4.800389   -2.976825
    136          1           0      -18.794896    4.115133    0.285747
    137          1           0      -19.377882    5.035299   -1.049185
    138          1           0      -18.798508    3.409487   -1.342328
    139          1           0      -22.573582    7.956537    0.887374
    140          1           0      -23.254452    6.569399    1.732423
    141          1           0      -23.696404    6.896583    0.116479
    142          1           0      -27.045189    4.304468   -0.034472
    143          1           0      -27.938141    2.430985    2.253026
    144          1           0      -26.257840    4.986322    2.673836
    145          1           0      -28.053972    4.923401    2.439283
    146          1           0      -27.102896    5.937113    1.434574
    147          1           0      -29.192424    1.725518   -0.296331
    148          1           0      -29.280972    3.418094   -0.161713
    149          1           0      -30.821378    1.326657    1.145166
    150          1           0      -31.213329    3.032423    0.955409
    151          1           0      -30.342535    2.473917    2.362670
    152          1           0      -28.437135   -4.076773    0.826348
    153          1           0      -29.163248   -2.811630   -0.230859
    154          1           0      -28.971950   -2.436155    1.448866
    155          1           0      -24.140455   -4.196372   -2.286270
    156          1           0      -21.861896   -7.611434   -0.105695
    157          1           0      -20.878709   -6.187972    0.094163
    158          1           0      -20.679246   -7.142629   -1.381052
 ---------------------------------------------------------------------

 SCF Done:  E(RCAM-B3LYP) =  -4069.81639108     A.U. after   17 cycles

 Excitation energies and oscillator strengths:

 Excited State   1:      Singlet-A      1.6591 eV  747.30 nm  f=0.3905  <S**2>=0.000
     310 -> 316        0.16727
     311 -> 313        0.68814
     310 <- 316        0.10532
 This state for optimization and/or second-order correction.
 Total Energy, E(TD-HF/TD-DFT) =  -4069.75542005
 Copying the excited state density for this state as the 1-particle RhoCI density.

 Excited State   2:      Singlet-A      1.6714 eV  741.78 nm  f=0.4105  <S**2>=0.000
     309 -> 315        0.16931
     312 -> 314        0.68855
     309 <- 315        0.10657

 Excited State   3:      Singlet-A      2.1919 eV  565.65 nm  f=0.1548  <S**2>=0.000
     310 -> 313        0.65715
     311 -> 316       -0.24517

 Excited State   4:      Singlet-A      2.2361 eV  554.47 nm  f=0.1278  <S**2>=0.000
     309 -> 314        0.64117
     312 -> 315       -0.28143

 Excited State   5:      Singlet-A      3.0409 eV  407.72 nm  f=0.0000  <S**2>=0.000
     312 -> 313        0.70710

 The electronic state is 1-A.
 Alpha  occ. eigenvalues --  -46.89320 -46.88897 -19.25250 -19.24244 -19.20722
 Alpha  occ. eigenvalues --  -19.19721 -19.19347 -19.19246 -19.18352 -19.17980
 Alpha  occ. eigenvalues --  -14.42755 -14.42539 -14.41711 -14.41421 -14.40261
 Alpha  occ. eigenvalues --  -14.39367 -14.39333 -14.39153 -10.40213 -10.39106
 Alpha  occ. eigenvalues --  -10.35577 -10.35466 -10.35402 -10.34509 -10.32259
 Alpha  occ. eigenvalues --  -10.31530 -10.31402 -10.31382 -10.31290 -10.30925
 Alpha  occ. eigenvalues --  -10.30788 -10.30720 -10.30690 -10.30510 -10.30457
 Alpha  occ. eigenvalues --  -10.30340 -10.30276 -10.30229 -10.29841 -10.29505
 Alpha  occ. eigenvalues --  -10.29484 -10.29280 -10.29215 -10.29099 -10.29026
 Alpha  occ. eigenvalues --  -10.28829 -10.28658 -10.28633 -10.28552 -10.28232
 Alpha  occ. eigenvalues --  -10.28190 -10.28142 -10.28056 -10.27985 -10.27965
 Alpha  occ. eigenvalues --  -10.27934 -10.27840 -10.27786 -10.27598 -10.27512
 Alpha  occ. eigenvalues --  -10.27508 -10.27464 -10.27445 -10.27216 -10.27007
 Alpha  occ. eigenvalues --  -10.26910 -10.26874 -10.26715 -10.26580 -10.26564
 Alpha  occ. eigenvalues --  -10.26521 -10.26519 -10.26488 -10.26321 -10.26309
 Alpha  occ. eigenvalues --  -10.26246 -10.26060 -10.26042 -10.25890 -10.25732
 Alpha  occ. eigenvalues --  -10.25606 -10.25589 -10.25527 -10.25367 -10.25282
 Alpha  occ. eigenvalues --  -10.24896  -3.17890  -3.17468  -1.92738  -1.92350
 Alpha  occ. eigenvalues --   -1.92338  -1.92197  -1.91923  -1.91781  -1.15436
 Alpha  occ. eigenvalues --   -1.15361  -1.11721  -1.10211  -1.09436  -1.08401
 Alpha  occ. eigenvalues --   -1.07860  -1.07443  -1.04591  -1.04318  -1.03573
 Alpha  occ. eigenvalues --   -1.03457  -1.03205  -1.02772  -1.02103  -1.01507
 Alpha  occ. eigenvalues --   -0.92751  -0.92176  -0.89405  -0.89199  -0.88880
 Alpha  occ. eigenvalues --   -0.88539  -0.88453  -0.88137  -0.87610  -0.87357
 Alpha  occ. eigenvalues --   -0.86790  -0.86226  -0.85645  -0.85304  -0.84488
 Alpha  occ. eigenvalues --   -0.83957  -0.83807  -0.83327  -0.82490  -0.82175
 Alpha  occ. eigenvalues --   -0.81840  -0.81055  -0.80617  -0.80551  -0.80200
 Alpha  occ. eigenvalues --   -0.80029  -0.78697  -0.78161  -0.77484  -0.76940
 Alpha  occ. eigenvalues --   -0.76794  -0.76762  -0.76343  -0.75826  -0.75221
 Alpha  occ. eigenvalues --   -0.74975  -0.72643  -0.72531  -0.71777  -0.71074
 Alpha  occ. eigenvalues --   -0.69915  -0.69548  -0.69126  -0.68931  -0.68324
 Alpha  occ. eigenvalues --   -0.67917  -0.67516  -0.66708  -0.65942  -0.65207
 Alpha  occ. eigenvalues --   -0.65091  -0.64903  -0.64537  -0.64314  -0.64142
 Alpha  occ. eigenvalues --   -0.64123  -0.62319  -0.61624  -0.60897  -0.59792
 Alpha  occ. eigenvalues --   -0.59550  -0.59479  -0.59188  -0.59062  -0.58784
 Alpha  occ. eigenvalues --   -0.58324  -0.58062  -0.57645  -0.57409  -0.56943
 Alpha  occ. eigenvalues --   -0.56535  -0.55888  -0.55753  -0.55657  -0.55430
 Alpha  occ. eigenvalues --   -0.54913  -0.54733  -0.54324  -0.53933  -0.53861
 Alpha  occ. eigenvalues --   -0.53464  -0.53360  -0.53076  -0.53040  -0.52956
 Alpha  occ. eigenvalues --   -0.52767  -0.52535  -0.52339  -0.52238  -0.51978
 Alpha  occ. eigenvalues --   -0.51831  -0.51720  -0.51310  -0.51308  -0.51098
 Alpha  occ. eigenvalues --   -0.51016  -0.50921  -0.50711  -0.50433  -0.50007
 Alpha  occ. eigenvalues --   -0.49935  -0.49867  -0.49736  -0.49506  -0.49300
 Alpha  occ. eigenvalues --   -0.49271  -0.49194  -0.49109  -0.49017  -0.48757
 Alpha  occ. eigenvalues --   -0.48703  -0.48595  -0.48591  -0.48182  -0.48178
 Alpha  occ. eigenvalues --   -0.47863  -0.47741  -0.47686  -0.47405  -0.47081
 Alpha  occ. eigenvalues --   -0.46973  -0.46673  -0.46417  -0.46378  -0.46365
 Alpha  occ. eigenvalues --   -0.46284  -0.46179  -0.46051  -0.45969  -0.45823
 Alpha  occ. eigenvalues --   -0.45821  -0.45452  -0.45245  -0.45193  -0.44955
 Alpha  occ. eigenvalues --   -0.44709  -0.44656  -0.44539  -0.44228  -0.44066
 Alpha  occ. eigenvalues --   -0.43988  -0.43770  -0.43611  -0.43445  -0.43393
 Alpha  occ. eigenvalues --   -0.43304  -0.43124  -0.43033  -0.42897  -0.42638
 Alpha  occ. eigenvalues --   -0.42629  -0.42547  -0.42423  -0.42404  -0.41916
 Alpha  occ. eigenvalues --   -0.41914  -0.41836  -0.41592  -0.41549  -0.41521
 Alpha  occ. eigenvalues --   -0.41119  -0.40825  -0.40724  -0.40595  -0.40570
 Alpha  occ. eigenvalues --   -0.40260  -0.40089  -0.39623  -0.39286  -0.39233
 Alpha  occ. eigenvalues --   -0.38669  -0.38463  -0.37792  -0.37696  -0.37624
 Alpha  occ. eigenvalues --   -0.37337  -0.37151  -0.36812  -0.36504  -0.36300
 Alpha  occ. eigenvalues --   -0.35957  -0.35816  -0.35040  -0.34395  -0.34001
 Alpha  occ. eigenvalues --   -0.33732  -0.33181  -0.33049  -0.31599  -0.31458
 Alpha  occ. eigenvalues --   -0.31106  -0.30783  -0.30727  -0.30492  -0.30285
 Alpha  occ. eigenvalues --   -0.29671  -0.29481  -0.28737  -0.24304  -0.24112
 Alpha  occ. eigenvalues --   -0.21373  -0.21122
 Alpha virt. eigenvalues --   -0.09234  -0.08983  -0.01495  -0.01400  -0.00040
 Alpha virt. eigenvalues --    0.00471   0.01247   0.01370   0.02177   0.02638
 Alpha virt. eigenvalues --    0.04402   0.04409   0.05218   0.05397   0.05606

 Mulliken charges:
               1
     1  Mg   0.835509
     2  C    0.031238
     3  C   -0.057062
     4  C   -0.053473
     5  C   -0.058926
     6  N   -0.269262
     7  C   -0.044959
     8  C    0.001997
     9  C   -0.047187
    10  C   -0.014826
    11  C    0.074630
    12  C    0.034731
    13  C   -0.076605
    14  H    0.020631
    15  N   -0.405727
    16  C    0.178224
    17  C   -0.125144
    18  C   -0.000856
    19  C    0.109731
    20  C    0.101752
    21  C   -0.004297
    22  O   -0.244041
    23  C    0.051037
    24  N   -0.270184
    25  C    0.053234
    26  C   -0.078187
    27  C    0.027884
    28  C   -0.007792
    29  C    0.069550
    30  C    0.031241
    31  C    0.009337
    32  N   -0.344256
    33  C    0.135686
    34  C   -0.189185
    35  C    0.048242
    36  C    0.088850
    37  C    0.113944
    38  C    0.043008
    39  O   -0.170959
    40  C   -0.068828
    41  C    0.209042
    42  O   -0.207536
    43  O   -0.347379
    44  C    0.172019
    45  H   -0.027397
    46  H   -0.004055
    47  H   -0.028304
    48  H    0.008155
    49  H    0.006978
    50  H    0.010117
    51  H    0.012684
    52  H    0.036571
    53  H    0.005610
    54  H    0.014509
    55  H    0.032439
    56  H    0.046719
    57  H    0.016027
    58  H    0.027844
    59  H    0.023628
    60  H    0.009461
    61  H    0.052521
    62  H    0.022994
    63  H    0.010398
    64  H    0.009996
    65  H    0.021273
    66  H    0.019818
    67  H   -0.000305
    68  H    0.007282
    69  H    0.015364
    70  H    0.024406
    71  H    0.019929
    72  H    0.019853
    73  H    0.034810
    74  H   -0.002157
    75  H    0.035965
    76  H    0.036129
    77  H    0.043649
    78  H    0.035896
    79  H    0.046347
    80  Mg   0.850157
    81  C   -0.068716
    82  C   -0.046552
    83  C   -0.070141
    84  C   -0.117773
    85  N   -0.248503
    86  C   -0.056076
    87  C   -0.029287
    88  C   -0.067513
    89  C    0.027841
    90  C    0.088675
    91  C    0.079550
    92  C   -0.054269
    93  H    0.008727
    94  N   -0.346048
    95  C    0.095280
    96  C   -0.125945
    97  C   -0.029146
    98  C    0.139842
    99  C    0.130531
   100  C   -0.009069
   101  O   -0.204457
   102  C    0.048547
   103  N   -0.372421
   104  C    0.069196
   105  C   -0.081036
   106  C    0.022208
   107  C    0.057901
   108  C    0.063544
   109  C    0.049692
   110  C    0.008711
   111  N   -0.354568
   112  C    0.126941
   113  C   -0.181004
   114  C   -0.063983
   115  C    0.147727
   116  C    0.135423
   117  C    0.053063
   118  O   -0.136281
   119  C    0.059759
   120  C    0.212873
   121  O   -0.206841
   122  O   -0.375227
   123  C    0.175411
   124  H   -0.030888
   125  H   -0.056706
   126  H   -0.037327
   127  H    0.003969
   128  H    0.001864
   129  H    0.021981
   130  H    0.020345
   131  H    0.014405
   132  H    0.012531
   133  H    0.016693
   134  H    0.032668
   135  H    0.027193
   136  H    0.030808
   137  H    0.030811
   138  H    0.014461
   139  H    0.024072
   140  H    0.029751
   141  H    0.037079
   142  H    0.024827
   143  H    0.007128
   144  H    0.023784
   145  H    0.015787
   146  H    0.009083
   147  H    0.014440
   148  H   -0.000385
   149  H    0.015713
   150  H    0.013724
   151  H    0.015181
   152  H    0.047892
   153  H    0.030556
   154  H    0.013029
   155  H    0.042064
   156  H    0.044664
   157  H    0.034772
   158  H    0.047290
 Sum of Mulliken charges =  -0.00000

 Dipole moment (field-independent basis, Debye):
    X=              0.5746    Y=              4.8097    Z=              3.3951  Tot=              5.9152
 Quadrupole moment (field-independent basis, Debye-Ang):
   XX=           -335.6397   YY=           -540.6545   ZZ=           -495.8696
   XY=              4.1379   XZ=             35.0267   YZ=             25.1441

 Normal termination of Gaussian 16 at Wed Sep  1 10:15:21 2021.
