 Gaussian 16, Revision A.03,
 Gaussian 16:  ES64L-G16RevA.03 25-Dec-2016

 -----------------------------------
 #p cam-b3lyp/Def2SVP td=(nstates=5)
 -----------------------------------

 --------------------------------
 TDDFT excited states in gaussian
 --------------------------------
 Symbolic Z-matrix:
 Charge =  0 Multiplicity = 1

                         Standard orientation:
 ---------------------------------------------------------------------
 Center     Atomic      Atomic             Coordinates (Angstroms)
 Number     Number       Type             X           Y           Z
 ---------------------------------------------------------------------
      1         12           0       17.521383   -0.457477    0.011988
      2          6           0       15.176758    2.072130    0.492976
      3          6           0       20.047820    1.850413    0.366395
      4          6           0       19.652093   -2.965437   -0.744689
      5          6           0       14.816081   -2.670945   -0.730714
      6          7           0       17.558193    1.701679    0.273115
      7          6           0       16.503628    2.537357    0.475507
      8          6           0       16.971996    3.959428    0.810216
      9          6           0       18.545971    3.832368    0.603349
     10          6           0       18.720797    2.322490    0.409482
     11          6           0       19.029503    4.614826   -0.611692
     12          6           0       16.731083    4.431759    2.288224
     13          6           0       16.562341    5.910290    2.523580
     14          1           0       16.955416    6.858021    1.480493
     15          7           0       19.532116   -0.554089   -0.071297
     16          6           0       20.409881    0.534737    0.101802
     17          6           0       21.738088   -0.019657    0.125343
     18          6           0       21.676568   -1.411501   -0.137845
     19          6           0       20.237047   -1.709936   -0.337859
     20          6           0       22.989419    0.830638    0.175975
     21          6           0       22.728863   -2.438591   -0.185242
     22          8           0       22.548951   -3.556944   -0.618005
     23          6           0       24.212971   -2.074602    0.182786
     24          7           0       17.305934   -2.630517   -0.496155
     25          6           0       18.324442   -3.388998   -0.771934
     26          6           0       17.872173   -4.819514   -1.193381
     27          6           0       16.356525   -4.773989   -1.124785
     28          6           0       16.078432   -3.258944   -0.815389
     29          6           0       18.533269   -5.225059   -2.593989
     30          6           0       15.765706   -5.767618   -0.102277
     31          6           0       15.277975   -7.160400   -0.651068
     32          7           0       15.500021   -0.458302    0.138134
     33          6           0       14.516060   -1.422082   -0.194937
     34          6           0       13.213129   -0.922650    0.029234
     35          6           0       13.458523    0.502662    0.225307
     36          6           0       14.870663    0.668216    0.308329
     37          6           0       11.915046   -1.633804   -0.306724
     38          6           0       12.746649    1.719093    0.365772
     39          8           0       11.549127    1.971516    0.409284
     40          6           0       13.933219    2.855639    0.650857
     41          6           0       13.682149    3.942646   -0.352609
     42          8           0       13.678234    3.777201   -1.576971
     43          8           0       13.309822    5.177767    0.256250
     44          6           0       13.031448    6.308344   -0.683732
     45          1           0       20.797006    2.636573    0.487105
     46          1           0       20.389714   -3.658632   -1.153505
     47          1           0       13.951948   -3.317125   -0.896465
     48          1           0       16.513957    4.611665    0.066319
     49          1           0       19.117480    4.209458    1.451353
     50          1           0       18.271741    5.318552   -0.955109
     51          1           0       19.388681    3.969400   -1.413727
     52          1           0       19.822211    5.328893   -0.388368
     53          1           0       17.557462    4.054919    2.889868
     54          1           0       15.880216    3.860028    2.659341
     55          1           0       17.218886    6.174192    3.352387
     56          1           0       15.518850    6.114899    2.763217
     57          1           0       23.575068    0.787739   -0.742264
     58          1           0       23.574297    0.516703    1.041548
     59          1           0       22.836469    1.902881    0.297393
     60          1           0       24.634642   -1.614657   -0.711315
     61          1           0       24.802574   -2.983388    0.304287
     62          1           0       24.246203   -1.352338    0.997555
     63          1           0       18.306049   -5.449048   -0.416278
     64          1           0       15.903130   -4.894243   -2.107488
     65          1           0       17.763679   -5.490305   -3.318754
     66          1           0       19.134785   -6.132967   -2.545277
     67          1           0       19.062988   -4.326598   -2.913311
     68          1           0       14.910795   -5.261246    0.347229
     69          1           0       16.518859   -5.896914    0.675133
     70          1           0       14.253034   -7.035072   -1.001976
     71          1           0       15.363150   -8.039284   -0.011714
     72          1           0       15.890976   -7.241444   -1.548076
     73          1           0       11.737091   -2.250594    0.573798
     74          1           0       12.026573   -2.274520   -1.180650
     75          1           0       11.099002   -1.008609   -0.671355
     76          1           0       13.854558    3.191667    1.685522
     77          1           0       12.176949    6.095820   -1.325191
     78          1           0       13.832152    6.644191   -1.343194
     79          1           0       12.739271    7.064387    0.045053
     80         12           0      -17.115677   -0.872625    0.268358
     81          6           0      -17.499012    2.506350   -0.933889
     82          6           0      -15.750041    0.513740    3.185610
     83          6           0      -16.867874   -3.933094    1.431122
     84          6           0      -18.210745   -2.052620   -2.834796
     85          7           0      -16.666380    1.330898    0.989133
     86          6           0      -17.095275    2.498327    0.441038
     87          6           0      -16.974409    3.661478    1.412077
     88          6           0      -16.072420    3.063645    2.630330
     89          6           0      -16.135945    1.556482    2.248540
     90          6           0      -14.660236    3.686219    2.765731
     91          6           0      -18.366283    4.208553    1.876809
     92          6           0      -18.574594    5.719683    1.597945
     93          1           0      -18.741551    6.622193    2.952235
     94          7           0      -16.434054   -1.583445    2.008867
     95          6           0      -15.859993   -0.901500    3.134726
     96          6           0      -15.477240   -1.810332    4.241092
     97          6           0      -15.871067   -3.084229    3.715161
     98          6           0      -16.410061   -2.898779    2.357413
     99          6           0      -14.817548   -1.371526    5.549996
    100          6           0      -15.698321   -4.424209    4.322485
    101          8           0      -16.251648   -5.453578    3.951020
    102          6           0      -14.863801   -4.527599    5.614226
    103          7           0      -17.646407   -2.671118   -0.521446
    104          6           0      -17.418662   -3.825894    0.145003
    105          6           0      -17.590025   -5.045290   -0.717572
    106          6           0      -18.066805   -4.487051   -2.081045
    107          6           0      -18.038619   -2.965359   -1.813202
    108          6           0      -16.384781   -5.960692   -0.768184
    109          6           0      -19.589362   -4.998406   -2.414815
    110          6           0      -19.786798   -5.733067   -3.849932
    111          7           0      -17.484727    0.004731   -1.633017
    112          6           0      -18.007875   -0.639521   -2.779970
    113          6           0      -18.309684    0.396735   -3.774066
    114          6           0      -18.247886    1.599400   -3.022096
    115          6           0      -17.637927    1.321069   -1.797982
    116          6           0      -18.683218    0.261912   -5.247202
    117          6           0      -18.309639    3.077102   -3.204730
    118          8           0      -18.558798    3.854712   -4.167377
    119          6           0      -17.938657    3.676131   -1.793197
    120          6           0      -16.849048    4.690487   -1.979405
    121          8           0      -15.887227    4.528772   -2.675924
    122          8           0      -17.187362    5.848048   -1.335168
    123          6           0      -16.340672    6.996087   -1.747088
    124          1           0      -15.211341    0.985692    4.009688
    125          1           0      -16.808026   -4.973636    1.757828
    126          1           0      -18.590938   -2.396609   -3.798696
    127          1           0      -16.382314    4.419350    0.899028
    128          1           0      -16.571812    3.140955    3.596484
    129          1           0      -13.887618    2.945533    2.557387
    130          1           0      -14.519537    4.097642    3.766095
    131          1           0      -14.466716    4.565160    2.150775
    132          1           0      -18.515507    4.073809    2.948420
    133          1           0      -19.187266    3.700756    1.369917
    134          1           0      -19.534437    5.940254    1.130153
    135          1           0      -17.848497    6.172068    0.923227
    136          1           0      -14.888848   -0.315379    5.811853
    137          1           0      -13.773447   -1.660694    5.669311
    138          1           0      -15.357059   -1.913263    6.327534
    139          1           0      -13.838605   -4.206353    5.430373
    140          1           0      -14.891965   -5.527997    6.047414
    141          1           0      -15.309120   -3.859750    6.351616
    142          1           0      -18.341883   -5.682576   -0.250124
    143          1           0      -17.362412   -4.729747   -2.876131
    144          1           0      -16.522681   -6.892028   -0.218229
    145          1           0      -15.481077   -5.561436   -0.307876
    146          1           0      -16.157958   -6.156346   -1.816420
    147          1           0      -20.337587   -4.206814   -2.390751
    148          1           0      -19.954545   -5.722962   -1.687445
    149          1           0      -18.792528   -6.073319   -4.140008
    150          1           0      -20.208242   -5.058991   -4.596795
    151          1           0      -20.350939   -6.659707   -3.747437
    152          1           0      -19.351550    1.057124   -5.576886
    153          1           0      -19.299237   -0.632868   -5.343885
    154          1           0      -17.720953    0.117463   -5.738618
    155          1           0      -18.814804    4.241622   -1.476897
    156          1           0      -15.301674    6.700261   -1.603203
    157          1           0      -16.557437    7.751907   -0.992363
    158          1           0      -16.406646    7.366882   -2.769919
 ---------------------------------------------------------------------

 SCF Done:  E(RCAM-B3LYP) =  -4069.83300061     A.U. after   19 cycles

 Excitation energies and oscillator strengths:

 Excited State   1:      Singlet-A      1.6722 eV  741.43 nm  f=0.3741  <S**2>=0.000
     310 -> 315       -0.18799
     312 -> 314        0.68424
     310 <- 315       -0.11182
 This state for optimization and/or second-order correction.
 Total Energy, E(TD-HF/TD-DFT) =  -4069.77154743
 Copying the excited state density for this state as the 1-particle RhoCI density.

 Excited State   2:      Singlet-A      1.7265 eV  718.11 nm  f=0.3724  <S**2>=0.000
     309 -> 316        0.17540
     311 -> 313        0.68640
     309 <- 316        0.10552

 Excited State   3:      Singlet-A      2.1741 eV  570.28 nm  f=0.1321  <S**2>=0.000
     310 -> 314        0.64728
     312 -> 315        0.27758

 Excited State   4:      Singlet-A      2.2227 eV  557.82 nm  f=0.1470  <S**2>=0.000
     309 -> 313        0.65063
     311 -> 316       -0.26124

 Excited State   5:      Singlet-A      3.0463 eV  407.00 nm  f=0.0000  <S**2>=0.000
     312 -> 313        0.70709

 The electronic state is 1-A.
 Alpha  occ. eigenvalues --  -46.88474 -46.88002 -19.25588 -19.24165 -19.19686
 Alpha  occ. eigenvalues --  -19.19466 -19.19286 -19.18897 -19.18629 -19.18236
 Alpha  occ. eigenvalues --  -14.42702 -14.42551 -14.41879 -14.41665 -14.40659
 Alpha  occ. eigenvalues --  -14.40185 -14.39368 -14.39193 -10.39080 -10.38760
 Alpha  occ. eigenvalues --  -10.35486 -10.35086 -10.35068 -10.34354 -10.31865
 Alpha  occ. eigenvalues --  -10.31772 -10.31714 -10.31625 -10.31522 -10.31432
 Alpha  occ. eigenvalues --  -10.31232 -10.31203 -10.31173 -10.30868 -10.30825
 Alpha  occ. eigenvalues --  -10.30812 -10.30743 -10.30707 -10.30611 -10.29922
 Alpha  occ. eigenvalues --  -10.29715 -10.29043 -10.28981 -10.28937 -10.28915
 Alpha  occ. eigenvalues --  -10.28883 -10.28854 -10.28571 -10.28504 -10.28472
 Alpha  occ. eigenvalues --  -10.28398 -10.28182 -10.28120 -10.28065 -10.28026
 Alpha  occ. eigenvalues --  -10.27951 -10.27905 -10.27863 -10.27786 -10.27785
 Alpha  occ. eigenvalues --  -10.27774 -10.27772 -10.27628 -10.27518 -10.27492
 Alpha  occ. eigenvalues --  -10.27274 -10.27190 -10.27091 -10.26898 -10.26825
 Alpha  occ. eigenvalues --  -10.26701 -10.26531 -10.26381 -10.26360 -10.26343
 Alpha  occ. eigenvalues --  -10.26068 -10.26057 -10.26007 -10.25999 -10.25878
 Alpha  occ. eigenvalues --  -10.25867 -10.25867 -10.25819 -10.25436 -10.25132
 Alpha  occ. eigenvalues --  -10.24548  -3.17117  -3.16698  -1.92015  -1.91609
 Alpha  occ. eigenvalues --   -1.91572  -1.91438  -1.91146  -1.91016  -1.16903
 Alpha  occ. eigenvalues --   -1.13462  -1.11141  -1.09913  -1.08643  -1.08626
 Alpha  occ. eigenvalues --   -1.07009  -1.05840  -1.05213  -1.03969  -1.03943
 Alpha  occ. eigenvalues --   -1.03398  -1.03210  -1.02527  -1.02442  -1.01959
 Alpha  occ. eigenvalues --   -0.92122  -0.91519  -0.89313  -0.88996  -0.88585
 Alpha  occ. eigenvalues --   -0.88443  -0.88429  -0.88070  -0.87786  -0.87506
 Alpha  occ. eigenvalues --   -0.87357  -0.86938  -0.86287  -0.85580  -0.84352
 Alpha  occ. eigenvalues --   -0.83965  -0.83116  -0.83008  -0.82225  -0.81762
 Alpha  occ. eigenvalues --   -0.81515  -0.81337  -0.80618  -0.80412  -0.80049
 Alpha  occ. eigenvalues --   -0.79703  -0.79038  -0.78810  -0.77292  -0.77044
 Alpha  occ. eigenvalues --   -0.76886  -0.76729  -0.75977  -0.75885  -0.75171
 Alpha  occ. eigenvalues --   -0.75082  -0.73144  -0.72500  -0.71640  -0.71362
 Alpha  occ. eigenvalues --   -0.69588  -0.69120  -0.68997  -0.68695  -0.68008
 Alpha  occ. eigenvalues --   -0.67539  -0.67312  -0.67034  -0.65866  -0.65810
 Alpha  occ. eigenvalues --   -0.65577  -0.65275  -0.64974  -0.64633  -0.64329
 Alpha  occ. eigenvalues --   -0.63940  -0.62309  -0.61418  -0.60745  -0.60371
 Alpha  occ. eigenvalues --   -0.59664  -0.59341  -0.59206  -0.58680  -0.58554
 Alpha  occ. eigenvalues --   -0.58291  -0.57900  -0.57804  -0.57376  -0.57081
 Alpha  occ. eigenvalues --   -0.56283  -0.56081  -0.55219  -0.55005  -0.54997
 Alpha  occ. eigenvalues --   -0.54650  -0.54440  -0.54027  -0.53722  -0.53416
 Alpha  occ. eigenvalues --   -0.53337  -0.53257  -0.52926  -0.52610  -0.52514
 Alpha  occ. eigenvalues --   -0.52506  -0.52394  -0.52279  -0.52098  -0.52072
 Alpha  occ. eigenvalues --   -0.51616  -0.51597  -0.51400  -0.51320  -0.51042
 Alpha  occ. eigenvalues --   -0.50791  -0.50584  -0.50405  -0.50159  -0.50008
 Alpha  occ. eigenvalues --   -0.49912  -0.49892  -0.49745  -0.49629  -0.49535
 Alpha  occ. eigenvalues --   -0.49370  -0.49310  -0.49152  -0.49106  -0.48727
 Alpha  occ. eigenvalues --   -0.48591  -0.48405  -0.48189  -0.48169  -0.48056
 Alpha  occ. eigenvalues --   -0.47950  -0.47678  -0.47521  -0.47508  -0.47410
 Alpha  occ. eigenvalues --   -0.47238  -0.47165  -0.46990  -0.46955  -0.46786
 Alpha  occ. eigenvalues --   -0.46732  -0.46511  -0.46145  -0.45890  -0.45794
 Alpha  occ. eigenvalues --   -0.45517  -0.45096  -0.45072  -0.44930  -0.44758
 Alpha  occ. eigenvalues --   -0.44718  -0.44712  -0.44559  -0.44320  -0.44278
 Alpha  occ. eigenvalues --   -0.44113  -0.44042  -0.43917  -0.43829  -0.43730
 Alpha  occ. eigenvalues --   -0.43397  -0.43261  -0.43042  -0.42908  -0.42804
 Alpha  occ. eigenvalues --   -0.42638  -0.42551  -0.42497  -0.42161  -0.42022
 Alpha  occ. eigenvalues --   -0.41979  -0.41862  -0.41518  -0.41487  -0.41326
 Alpha  occ. eigenvalues --   -0.41256  -0.40840  -0.40738  -0.40643  -0.40379
 Alpha  occ. eigenvalues --   -0.40286  -0.40125  -0.39888  -0.39451  -0.39325
 Alpha  occ. eigenvalues --   -0.38647  -0.38542  -0.38176  -0.37802  -0.37433
 Alpha  occ. eigenvalues --   -0.37282  -0.37255  -0.37009  -0.36322  -0.36185
 Alpha  occ. eigenvalues --   -0.35804  -0.35447  -0.34582  -0.34397  -0.34363
 Alpha  occ. eigenvalues --   -0.33875  -0.33535  -0.32962  -0.31682  -0.31576
 Alpha  occ. eigenvalues --   -0.31096  -0.30936  -0.30540  -0.30532  -0.30215
 Alpha  occ. eigenvalues --   -0.29799  -0.29506  -0.29327  -0.24211  -0.23850
 Alpha  occ. eigenvalues --   -0.21569  -0.21249
 Alpha virt. eigenvalues --   -0.09079  -0.08924  -0.01778  -0.01676   0.00187
 Alpha virt. eigenvalues --    0.00189   0.02112   0.02375   0.03611   0.03721
 Alpha virt. eigenvalues --    0.04281   0.04687   0.05188   0.05275   0.05756

 Mulliken charges:
               1
     1  Mg   0.837778
     2  C   -0.064340
     3  C   -0.101927
     4  C   -0.064632
     5  C   -0.069205
     6  N   -0.258944
     7  C   -0.042794
     8  C    0.004737
     9  C   -0.089125
    10  C    0.049854
    11  C    0.062941
    12  C    0.057739
    13  C   -0.049653
    14  H    0.021496
    15  N   -0.445165
    16  C    0.218532
    17  C   -0.136282
    18  C    0.001411
    19  C    0.123241
    20  C    0.099293
    21  C   -0.029029
    22  O   -0.193681
    23  C    0.055177
    24  N   -0.251945
    25  C    0.025424
    26  C   -0.042233
    27  C    0.006472
    28  C    0.003629
    29  C    0.061040
    30  C    0.040843
    31  C    0.012895
    32  N   -0.354130
    33  C    0.120110
    34  C   -0.140594
    35  C   -0.036393
    36  C    0.156026
    37  C    0.107106
    38  C    0.042563
    39  O   -0.174862
    40  C   -0.012623
    41  C    0.224446
    42  O   -0.232283
    43  O   -0.374624
    44  C    0.182340
    45  H   -0.020852
    46  H    0.005700
    47  H   -0.023872
    48  H    0.019854
    49  H    0.013818
    50  H    0.012111
    51  H    0.027956
    52  H    0.000696
    53  H    0.000781
    54  H    0.001693
    55  H    0.026159
    56  H    0.043820
    57  H    0.040792
    58  H    0.027836
    59  H    0.006507
    60  H    0.030806
    61  H    0.029473
    62  H    0.018259
    63  H    0.021891
    64  H    0.001281
    65  H    0.008364
    66  H    0.023179
    67  H    0.031283
    68  H    0.001409
    69  H    0.002338
    70  H    0.015188
    71  H    0.031731
    72  H    0.007782
    73  H    0.030959
    74  H    0.017790
    75  H    0.040071
    76  H    0.041871
    77  H    0.040504
    78  H    0.036974
    79  H    0.035220
    80  Mg   0.847891
    81  C   -0.001756
    82  C   -0.070314
    83  C   -0.074625
    84  C   -0.071525
    85  N   -0.234942
    86  C   -0.059595
    87  C   -0.007884
    88  C   -0.060930
    89  C   -0.011701
    90  C    0.063484
    91  C    0.083083
    92  C   -0.087353
    93  H   -0.024471
    94  N   -0.426839
    95  C    0.167417
    96  C   -0.118176
    97  C   -0.023641
    98  C    0.156011
    99  C    0.116663
   100  C   -0.017470
   101  O   -0.205594
   102  C    0.043891
   103  N   -0.341307
   104  C    0.066777
   105  C   -0.028594
   106  C   -0.019852
   107  C    0.079914
   108  C    0.060061
   109  C    0.009302
   110  C   -0.025249
   111  N   -0.337604
   112  C    0.099400
   113  C   -0.169963
   114  C   -0.076919
   115  C    0.107789
   116  C    0.138087
   117  C    0.126509
   118  O   -0.213901
   119  C   -0.017350
   120  C    0.167647
   121  O   -0.184846
   122  O   -0.341819
   123  C    0.175178
   124  H   -0.029171
   125  H   -0.005877
   126  H   -0.030461
   127  H    0.018859
   128  H    0.016830
   129  H    0.027084
   130  H    0.012715
   131  H    0.019626
   132  H    0.025413
   133  H    0.021728
   134  H    0.031633
   135  H    0.040577
   136  H    0.023783
   137  H    0.040083
   138  H    0.023405
   139  H    0.031248
   140  H    0.026881
   141  H    0.018540
   142  H    0.019886
   143  H    0.024874
   144  H    0.017899
   145  H    0.020799
   146  H    0.007144
   147  H    0.019085
   148  H    0.011263
   149  H    0.007565
   150  H    0.031082
   151  H    0.018676
   152  H    0.040427
   153  H    0.005510
   154  H    0.045712
   155  H    0.036750
   156  H    0.033142
   157  H    0.034332
   158  H    0.058070
 Sum of Mulliken charges =  -0.00000

 Dipole moment (field-independent basis, Debye):
    X=              6.5482    Y=              0.0613    Z=              5.6788  Tot=              8.6678
 Quadrupole moment (field-independent basis, Debye-Ang):
   XX=           -381.5428   YY=           -486.5397   ZZ=           -510.8183
   XY=             66.6563   XZ=            -35.7603   YZ=             37.7517

 Normal termination of Gaussian 16 at Thu Sep 16 07:15:59 2021.
