 Gaussian 16, Revision A.03,
 Gaussian 16:  ES64L-G16RevA.03 25-Dec-2016

 -----------------------------------
 #p cam-b3lyp/Def2SVP td=(nstates=5)
 -----------------------------------

 --------------------------------
 TDDFT excited states in gaussian
 --------------------------------
 Symbolic Z-matrix:
 Charge =  0 Multiplicity = 1

                         Standard orientation:
 ---------------------------------------------------------------------
 Center     Atomic      Atomic             Coordinates (Angstroms)
 Number     Number       Type             X           Y           Z
 ---------------------------------------------------------------------
      1         12           0       30.370328    0.403689    0.724662
      2          6           0       30.716250   -1.889827   -1.951928
      3          6           0       29.044412    2.601951   -1.647718
      4          6           0       29.875493    2.610067    3.105117
      5          6           0       32.426942   -1.606847    2.678636
      6          7           0       29.921336    0.303775   -1.513517
      7          6           0       30.003737   -0.762413   -2.357071
      8          6           0       29.556838   -0.510202   -3.807269
      9          6           0       29.136793    1.037355   -3.641749
     10          6           0       29.406325    1.303897   -2.190371
     11          6           0       29.973134    2.037821   -4.533806
     12          6           0       28.364801   -1.421235   -4.247373
     13          6           0       28.460524   -2.523727   -5.294815
     14          1           0       27.301390   -2.822286   -6.236499
     15          7           0       29.501282    2.322357    0.774838
     16          6           0       29.076667    3.091922   -0.317884
     17          6           0       28.717915    4.398049    0.187975
     18          6           0       28.794403    4.378439    1.578439
     19          6           0       29.354942    3.047250    1.881871
     20          6           0       28.137388    5.391672   -0.759478
     21          6           0       28.520243    5.460055    2.622770
     22          8           0       28.663731    5.313058    3.840337
     23          6           0       27.908607    6.716897    2.142445
     24          7           0       31.122378    0.574551    2.601771
     25          6           0       30.618209    1.464039    3.509722
     26          6           0       30.971285    1.035652    4.974383
     27          6           0       31.832725   -0.203742    4.769724
     28          6           0       31.868902   -0.407642    3.229581
     29          6           0       31.610756    2.181828    5.824412
     30          6           0       31.222147   -1.388953    5.533013
     31          6           0       32.128973   -2.269798    6.313015
     32          7           0       31.472418   -1.330996    0.449449
     33          6           0       32.237006   -2.053170    1.330457
     34          6           0       32.749224   -3.244935    0.722988
     35          6           0       32.102698   -3.333459   -0.605853
     36          6           0       31.324167   -2.112564   -0.690023
     37          6           0       33.721791   -4.242081    1.375793
     38          6           0       31.933650   -4.106442   -1.862094
     39          8           0       32.310326   -5.254017   -2.154587
     40          6           0       31.018362   -3.181859   -2.765936
     41          6           0       31.921503   -2.999165   -3.945479
     42          8           0       32.800307   -2.161848   -4.110930
     43          8           0       31.585118   -3.804332   -4.915745
     44          6           0       32.446885   -3.907657   -6.118358
     45          1           0       28.514857    3.116347   -2.451938
     46          1           0       29.814953    3.265915    3.975749
     47          1           0       33.011445   -2.259154    3.330231
     48          1           0       30.438149   -0.598363   -4.443814
     49          1           0       28.089780    1.306615   -3.784306
     50          1           0       30.901361    1.662837   -4.964078
     51          1           0       30.257222    2.909001   -3.944558
     52          1           0       29.338481    2.378341   -5.352155
     53          1           0       27.594658   -0.751293   -4.630024
     54          1           0       27.964487   -1.958409   -3.388492
     55          1           0       28.493959   -3.401732   -4.649601
     56          1           0       29.386312   -2.259436   -5.805962
     57          1           0       27.118170    5.664265   -0.489126
     58          1           0       28.114661    4.998400   -1.776119
     59          1           0       28.691731    6.329062   -0.793919
     60          1           0       27.045446    6.485389    1.518247
     61          1           0       28.544482    7.244768    1.431585
     62          1           0       27.538373    7.368579    2.933216
     63          1           0       29.983766    0.813438    5.378437
     64          1           0       32.820497   -0.073937    5.211633
     65          1           0       31.579552    3.162416    5.349690
     66          1           0       32.659322    2.015773    6.068671
     67          1           0       31.175319    2.184906    6.823546
     68          1           0       30.756338   -1.964369    4.734017
     69          1           0       30.477808   -1.114631    6.280140
     70          1           0       31.933405   -3.270599    5.928697
     71          1           0       31.971200   -2.122376    7.381369
     72          1           0       33.191182   -2.130000    6.111184
     73          1           0       34.743329   -3.945031    1.141348
     74          1           0       33.489003   -5.239000    1.001850
     75          1           0       33.651757   -4.233614    2.463728
     76          1           0       30.144104   -3.775208   -3.033105
     77          1           0       32.556727   -2.972852   -6.666972
     78          1           0       32.136842   -4.677952   -6.824215
     79          1           0       33.474850   -4.232190   -5.959833
     80         12           0      -31.137736   -0.545254   -0.236289
     81          6           0      -28.264184    1.236811   -0.940827
     82          6           0      -29.158734   -3.016528    1.115259
     83          6           0      -33.975575   -2.035514    0.998619
     84          6           0      -33.051429    2.020466   -1.503589
     85          7           0      -29.000318   -0.764245    0.231807
     86          6           0      -28.016166    0.086418   -0.231767
     87          6           0      -26.618301   -0.415515    0.120153
     88          6           0      -26.916090   -1.922471    0.464440
     89          6           0      -28.425045   -1.886134    0.657629
     90          6           0      -26.376099   -3.027460   -0.552238
     91          6           0      -25.850293    0.382699    1.221499
     92          6           0      -24.399351    0.691683    0.918416
     93          1           0      -23.448047   -0.092317    1.809017
     94          7           0      -31.470575   -2.255656    0.895854
     95          6           0      -30.555733   -3.134486    1.320602
     96          6           0      -31.190981   -4.262328    1.979885
     97          6           0      -32.564662   -4.089041    2.010473
     98          6           0      -32.745595   -2.733094    1.334448
     99          6           0      -30.353690   -5.453852    2.648676
    100          6           0      -33.633402   -5.100275    2.546839
    101          8           0      -33.235835   -6.167461    3.094255
    102          6           0      -35.085284   -4.818009    2.476234
    103          7           0      -33.282534    0.050802   -0.028556
    104          6           0      -34.228595   -0.781384    0.341324
    105          6           0      -35.609340   -0.329371   -0.086067
    106          6           0      -35.421308    1.036107   -0.830171
    107          6           0      -33.818706    1.045701   -0.881552
    108          6           0      -36.613621   -1.357383   -0.698289
    109          6           0      -35.988344    2.352221   -0.223392
    110          6           0      -36.091804    3.474010   -1.235949
    111          7           0      -30.742175    1.306448   -1.063849
    112          6           0      -31.638539    2.241723   -1.630817
    113          6           0      -30.859378    3.285903   -2.238314
    114          6           0      -29.501800    2.938083   -2.034055
    115          6           0      -29.532622    1.763518   -1.287447
    116          6           0      -31.376458    4.389259   -3.149391
    117          6           0      -28.219450    3.354787   -2.318744
    118          8           0      -27.725300    4.331221   -2.813174
    119          6           0      -27.303818    2.322120   -1.477316
    120          6           0      -26.908748    3.114024   -0.231781
    121          8           0      -27.605238    3.286911    0.749847
    122          8           0      -25.630752    3.599569   -0.457031
    123          6           0      -25.094576    4.484488    0.572083
    124          1           0      -28.592978   -3.913829    1.373912
    125          1           0      -34.835985   -2.569525    1.406492
    126          1           0      -33.519496    2.834317   -2.061252
    127          1           0      -26.033137   -0.418859   -0.798995
    128          1           0      -26.574264   -2.079416    1.488134
    129          1           0      -27.051222   -3.858587   -0.348718
    130          1           0      -25.399677   -3.436848   -0.292011
    131          1           0      -26.354868   -2.756816   -1.607802
    132          1           0      -25.920375   -0.269467    2.092293
    133          1           0      -26.349922    1.257657    1.636823
    134          1           0      -24.262370    1.764633    1.054933
    135          1           0      -24.124559    0.442568   -0.106729
    136          1           0      -29.269504   -5.342662    2.603296
    137          1           0      -30.612774   -6.408170    2.188927
    138          1           0      -30.486374   -5.516270    3.727880
    139          1           0      -35.379846   -4.686064    1.435596
    140          1           0      -35.375858   -4.030281    3.171450
    141          1           0      -35.548282   -5.779292    2.695616
    142          1           0      -36.247464    0.050267    0.712180
    143          1           0      -35.605236    0.956239   -1.901829
    144          1           0      -36.186545   -2.342235   -0.504188
    145          1           0      -36.869530   -1.157817   -1.739496
    146          1           0      -37.588580   -1.375107   -0.211000
    147          1           0      -35.353717    2.585956    0.631322
    148          1           0      -36.950323    2.059023    0.196878
    149          1           0      -36.939907    4.096231   -0.949089
    150          1           0      -36.257841    3.158810   -2.266768
    151          1           0      -35.227677    4.129548   -1.127689
    152          1           0      -30.589900    4.946058   -3.658786
    153          1           0      -31.998507    5.049134   -2.546031
    154          1           0      -32.027694    3.988037   -3.926013
    155          1           0      -26.498686    1.914699   -2.089543
    156          1           0      -25.682116    5.402183    0.603768
    157          1           0      -24.034585    4.686142    0.421465
    158          1           0      -25.225581    4.023033    1.550450
 ---------------------------------------------------------------------

 SCF Done:  E(RCAM-B3LYP) =  -4069.80448862     A.U. after   19 cycles

 Excitation energies and oscillator strengths:

 Excited State   1:      Singlet-A      1.7572 eV  705.56 nm  f=0.3803  <S**2>=0.000
     310 -> 315        0.18343
     312 -> 313        0.68375
     310 <- 315        0.10474
 This state for optimization and/or second-order correction.
 Total Energy, E(TD-HF/TD-DFT) =  -4069.73991129
 Copying the excited state density for this state as the 1-particle RhoCI density.

 Excited State   2:      Singlet-A      1.8652 eV  664.71 nm  f=0.3721  <S**2>=0.000
     309 -> 316        0.14281
     311 -> 314        0.68808

 Excited State   3:      Singlet-A      2.2202 eV  558.43 nm  f=0.1060  <S**2>=0.000
     310 -> 313        0.63626
     312 -> 315       -0.29385

 Excited State   4:      Singlet-A      2.2638 eV  547.68 nm  f=0.1277  <S**2>=0.000
     309 -> 314        0.64676
     311 -> 316       -0.24682
     311 -> 318       -0.10323

 Excited State   5:      Singlet-A      3.3093 eV  374.66 nm  f=0.0000  <S**2>=0.000
     312 -> 314        0.70711

 The electronic state is 1-A.
 Alpha  occ. eigenvalues --  -46.89413 -46.88523 -19.25300 -19.24535 -19.20236
 Alpha  occ. eigenvalues --  -19.19889 -19.19578 -19.18868 -19.18184 -19.17732
 Alpha  occ. eigenvalues --  -14.42579 -14.42324 -14.42062 -14.41899 -14.40564
 Alpha  occ. eigenvalues --  -14.39819 -14.38982 -14.38502 -10.39104 -10.38643
 Alpha  occ. eigenvalues --  -10.37042 -10.35971 -10.35437 -10.33414 -10.33088
 Alpha  occ. eigenvalues --  -10.32430 -10.31941 -10.31734 -10.31631 -10.31400
 Alpha  occ. eigenvalues --  -10.31161 -10.31107 -10.31093 -10.30909 -10.30739
 Alpha  occ. eigenvalues --  -10.30520 -10.30367 -10.29816 -10.29808 -10.29423
 Alpha  occ. eigenvalues --  -10.29177 -10.29032 -10.28855 -10.28763 -10.28731
 Alpha  occ. eigenvalues --  -10.28619 -10.28428 -10.28403 -10.28394 -10.28357
 Alpha  occ. eigenvalues --  -10.28314 -10.28076 -10.28071 -10.28033 -10.28026
 Alpha  occ. eigenvalues --  -10.27948 -10.27874 -10.27707 -10.27530 -10.27515
 Alpha  occ. eigenvalues --  -10.27434 -10.27246 -10.27204 -10.27168 -10.27054
 Alpha  occ. eigenvalues --  -10.26978 -10.26967 -10.26950 -10.26930 -10.26869
 Alpha  occ. eigenvalues --  -10.26794 -10.26769 -10.26518 -10.26495 -10.26458
 Alpha  occ. eigenvalues --  -10.26401 -10.25957 -10.25851 -10.25820 -10.25813
 Alpha  occ. eigenvalues --  -10.25685 -10.25637 -10.25308 -10.25220 -10.24858
 Alpha  occ. eigenvalues --  -10.23115  -3.17852  -3.17120  -1.92736  -1.92313
 Alpha  occ. eigenvalues --   -1.92156  -1.92020  -1.91576  -1.91423  -1.17793
 Alpha  occ. eigenvalues --   -1.15477  -1.10080  -1.09815  -1.09157  -1.08384
 Alpha  occ. eigenvalues --   -1.07921  -1.06484  -1.05470  -1.04599  -1.04005
 Alpha  occ. eigenvalues --   -1.03854  -1.03206  -1.02774  -1.02562  -1.01357
 Alpha  occ. eigenvalues --   -0.91841  -0.91576  -0.89573  -0.89193  -0.89039
 Alpha  occ. eigenvalues --   -0.88788  -0.88511  -0.87982  -0.87715  -0.87070
 Alpha  occ. eigenvalues --   -0.86755  -0.86645  -0.85838  -0.85106  -0.84518
 Alpha  occ. eigenvalues --   -0.84335  -0.83647  -0.83476  -0.83220  -0.82873
 Alpha  occ. eigenvalues --   -0.82693  -0.82073  -0.80825  -0.80722  -0.80513
 Alpha  occ. eigenvalues --   -0.80234  -0.78772  -0.77656  -0.77493  -0.77174
 Alpha  occ. eigenvalues --   -0.76870  -0.76755  -0.76188  -0.75345  -0.75156
 Alpha  occ. eigenvalues --   -0.75155  -0.72407  -0.72224  -0.71812  -0.71708
 Alpha  occ. eigenvalues --   -0.69737  -0.69222  -0.69128  -0.68198  -0.67920
 Alpha  occ. eigenvalues --   -0.67608  -0.67369  -0.66925  -0.65869  -0.65628
 Alpha  occ. eigenvalues --   -0.65492  -0.65279  -0.64861  -0.64692  -0.64199
 Alpha  occ. eigenvalues --   -0.64056  -0.62399  -0.61718  -0.60944  -0.59984
 Alpha  occ. eigenvalues --   -0.59508  -0.59487  -0.59041  -0.58979  -0.58493
 Alpha  occ. eigenvalues --   -0.58476  -0.57856  -0.57845  -0.57637  -0.57404
 Alpha  occ. eigenvalues --   -0.56695  -0.56451  -0.55636  -0.55503  -0.55055
 Alpha  occ. eigenvalues --   -0.54970  -0.54304  -0.54198  -0.54176  -0.53937
 Alpha  occ. eigenvalues --   -0.53837  -0.53744  -0.53552  -0.53350  -0.53173
 Alpha  occ. eigenvalues --   -0.52916  -0.52729  -0.52637  -0.52562  -0.52135
 Alpha  occ. eigenvalues --   -0.52023  -0.51601  -0.51419  -0.51043  -0.50817
 Alpha  occ. eigenvalues --   -0.50575  -0.50543  -0.50445  -0.50169  -0.50022
 Alpha  occ. eigenvalues --   -0.50022  -0.49879  -0.49825  -0.49737  -0.49466
 Alpha  occ. eigenvalues --   -0.49409  -0.49058  -0.49042  -0.48720  -0.48707
 Alpha  occ. eigenvalues --   -0.48555  -0.48494  -0.48231  -0.48186  -0.48029
 Alpha  occ. eigenvalues --   -0.47804  -0.47596  -0.47428  -0.47378  -0.47191
 Alpha  occ. eigenvalues --   -0.46629  -0.46561  -0.46315  -0.46203  -0.46146
 Alpha  occ. eigenvalues --   -0.46085  -0.45974  -0.45833  -0.45577  -0.45447
 Alpha  occ. eigenvalues --   -0.45232  -0.45205  -0.45167  -0.45059  -0.45023
 Alpha  occ. eigenvalues --   -0.44893  -0.44680  -0.44652  -0.44354  -0.44291
 Alpha  occ. eigenvalues --   -0.44255  -0.44015  -0.43958  -0.43602  -0.43423
 Alpha  occ. eigenvalues --   -0.43191  -0.43097  -0.43056  -0.42808  -0.42720
 Alpha  occ. eigenvalues --   -0.42568  -0.42488  -0.42416  -0.42191  -0.42052
 Alpha  occ. eigenvalues --   -0.41899  -0.41642  -0.41617  -0.41404  -0.41231
 Alpha  occ. eigenvalues --   -0.40824  -0.40786  -0.40422  -0.40417  -0.40168
 Alpha  occ. eigenvalues --   -0.40067  -0.39878  -0.39840  -0.39509  -0.39283
 Alpha  occ. eigenvalues --   -0.38989  -0.38440  -0.38072  -0.37919  -0.37351
 Alpha  occ. eigenvalues --   -0.37235  -0.36624  -0.36500  -0.36379  -0.36341
 Alpha  occ. eigenvalues --   -0.35844  -0.35349  -0.34448  -0.34433  -0.34303
 Alpha  occ. eigenvalues --   -0.33439  -0.33092  -0.33088  -0.32454  -0.31916
 Alpha  occ. eigenvalues --   -0.31893  -0.31778  -0.30870  -0.30600  -0.30311
 Alpha  occ. eigenvalues --   -0.29673  -0.29114  -0.28712  -0.24080  -0.23912
 Alpha  occ. eigenvalues --   -0.21498  -0.21177
 Alpha virt. eigenvalues --   -0.08518  -0.08462  -0.01860  -0.01803  -0.00189
 Alpha virt. eigenvalues --    0.00103   0.01793   0.01981   0.02078   0.02697
 Alpha virt. eigenvalues --    0.05161   0.05244   0.05770   0.05820   0.06186

 Mulliken charges:
               1
     1  Mg   0.832130
     2  C    0.053328
     3  C   -0.082051
     4  C   -0.070451
     5  C   -0.080614
     6  N   -0.209701
     7  C   -0.071941
     8  C    0.011123
     9  C   -0.072285
    10  C   -0.024602
    11  C    0.046701
    12  C    0.028486
    13  C   -0.068370
    14  H    0.028048
    15  N   -0.362202
    16  C    0.170258
    17  C   -0.116439
    18  C   -0.038003
    19  C    0.148167
    20  C    0.098553
    21  C    0.036638
    22  O   -0.200897
    23  C    0.053969
    24  N   -0.348528
    25  C   -0.000987
    26  C   -0.010946
    27  C   -0.014551
    28  C    0.090616
    29  C    0.058951
    30  C    0.000431
    31  C    0.009591
    32  N   -0.370111
    33  C    0.134150
    34  C   -0.185263
    35  C   -0.007959
    36  C    0.094247
    37  C    0.119451
    38  C    0.044314
    39  O   -0.191194
    40  C   -0.048612
    41  C    0.168007
    42  O   -0.239940
    43  O   -0.279005
    44  C    0.189687
    45  H   -0.020166
    46  H   -0.008667
    47  H   -0.032245
    48  H    0.036459
    49  H    0.020267
    50  H    0.030110
    51  H    0.017483
    52  H    0.014714
    53  H    0.014815
    54  H    0.008461
    55  H    0.040745
    56  H    0.030047
    57  H    0.032439
    58  H    0.010819
    59  H    0.024888
    60  H    0.019494
    61  H    0.028243
    62  H    0.034465
    63  H    0.027679
    64  H    0.006913
    65  H    0.037049
    66  H    0.003335
    67  H    0.012703
    68  H    0.013017
    69  H    0.007185
    70  H    0.015196
    71  H    0.020893
    72  H    0.005607
    73  H    0.033368
    74  H    0.038388
    75  H    0.005111
    76  H    0.046520
    77  H    0.033296
    78  H    0.033834
    79  H    0.035337
    80  Mg   0.828949
    81  C   -0.030266
    82  C   -0.118205
    83  C   -0.096001
    84  C   -0.030485
    85  N   -0.261072
    86  C   -0.046083
    87  C   -0.037677
    88  C   -0.022699
    89  C    0.032237
    90  C    0.082827
    91  C    0.069534
    92  C   -0.053094
    93  H    0.008458
    94  N   -0.381680
    95  C    0.167559
    96  C   -0.137031
    97  C   -0.024671
    98  C    0.115524
    99  C    0.116994
   100  C    0.007375
   101  O   -0.226554
   102  C    0.070461
   103  N   -0.264395
   104  C    0.101603
   105  C   -0.027380
   106  C   -0.054103
   107  C    0.007697
   108  C    0.065017
   109  C    0.060295
   110  C    0.025636
   111  N   -0.347627
   112  C    0.034472
   113  C   -0.140322
   114  C    0.052363
   115  C    0.114908
   116  C    0.104369
   117  C   -0.012337
   118  O   -0.157332
   119  C   -0.046268
   120  C    0.232181
   121  O   -0.211945
   122  O   -0.335441
   123  C    0.185510
   124  H   -0.025999
   125  H   -0.042717
   126  H   -0.041108
   127  H   -0.000727
   128  H    0.006112
   129  H    0.004936
   130  H    0.021618
   131  H    0.031775
   132  H   -0.004016
   133  H    0.028907
   134  H    0.025647
   135  H    0.027215
   136  H   -0.002846
   137  H    0.041091
   138  H    0.035886
   139  H    0.040805
   140  H    0.068740
   141  H    0.028212
   142  H    0.010239
   143  H    0.006688
   144  H    0.011348
   145  H    0.019373
   146  H    0.006942
   147  H    0.016834
   148  H    0.001355
   149  H    0.007787
   150  H    0.022108
   151  H    0.031322
   152  H    0.034189
   153  H    0.016136
   154  H    0.019410
   155  H    0.024835
   156  H    0.038231
   157  H    0.041654
   158  H    0.026719
 Sum of Mulliken charges =  -0.00000

 Dipole moment (field-independent basis, Debye):
    X=             -6.4416    Y=              0.9272    Z=             -1.0216  Tot=              6.5877
 Quadrupole moment (field-independent basis, Debye-Ang):
   XX=           -478.2544   YY=           -544.4955   ZZ=           -499.2130
   XY=            177.8260   XZ=              6.4400   YZ=             -1.3041

 Normal termination of Gaussian 16 at Thu Sep  2 21:23:55 2021.
