 Gaussian 16, Revision A.03,
 Gaussian 16:  ES64L-G16RevA.03 25-Dec-2016

 ----------------------------------------------------------
 #p cam-b3lyp/Def2SVP td=(nstates=5) density=(transition=1)
 ----------------------------------------------------------

 --------------------------------
 TDDFT excited states in gaussian
 --------------------------------
 Symbolic Z-matrix:
 Charge =  0 Multiplicity = 1

                         Standard orientation:
 ---------------------------------------------------------------------
 Center     Atomic      Atomic             Coordinates (Angstroms)
 Number     Number       Type             X           Y           Z
 ---------------------------------------------------------------------
      1         12           0       13.531294   -0.687026    0.203531
      2          6           0       12.266814    2.198055   -1.261834
      3          6           0       15.333688    1.410360    2.296860
      4          6           0       15.163828   -3.458503    1.308062
      5          6           0       11.780110   -2.585717   -2.095212
      6          7           0       13.808361    1.552582    0.441457
      7          6           0       13.157576    2.564630   -0.247638
      8          6           0       13.631135    4.016513    0.154420
      9          6           0       14.856257    3.652259    1.079661
     10          6           0       14.701653    2.098590    1.272157
     11          6           0       16.292623    3.960948    0.647147
     12          6           0       12.485600    4.804468    0.815863
     13          6           0       11.858215    5.910624    0.009038
     14          1           0       11.430939    7.173436    0.778004
     15          7           0       14.891114   -1.050582    1.725814
     16          6           0       15.417299   -0.051101    2.483339
     17          6           0       16.346372   -0.714857    3.418563
     18          6           0       16.402956   -2.081861    3.105055
     19          6           0       15.488566   -2.278297    2.048104
     20          6           0       16.951763    0.026803    4.540538
     21          6           0       17.250503   -3.174049    3.688776
     22          8           0       17.120736   -4.392648    3.385813
     23          6           0       18.311410   -2.949055    4.619539
     24          7           0       13.426502   -2.687263   -0.246937
     25          6           0       14.172915   -3.652849    0.355605
     26          6           0       13.920158   -5.011003   -0.169928
     27          6           0       12.786035   -4.764607   -1.228645
     28          6           0       12.710244   -3.284042   -1.227433
     29          6           0       15.039754   -5.923218   -0.752078
     30          6           0       11.412896   -5.560005   -0.967366
     31          6           0       10.293501   -5.035622   -0.019677
     32          7           0       12.310054   -0.347560   -1.388204
     33          6           0       11.639478   -1.209374   -2.207559
     34          6           0       10.731354   -0.507607   -3.005083
     35          6           0       11.034767    0.875286   -2.701232
     36          6           0       11.978953    0.901864   -1.694258
     37          6           0        9.676875   -1.075943   -3.952976
     38          6           0       10.577448    2.206404   -2.979574
     39          8           0        9.673116    2.677044   -3.639138
     40          6           0       11.557165    3.146396   -2.193321
     41          6           0       12.475768    3.815156   -3.135971
     42          8           0       13.709833    3.633212   -3.226702
     43          8           0       11.877057    4.682360   -3.981292
     44          6           0       12.717641    5.600426   -4.823237
     45          1           0       15.945760    2.075368    2.908672
     46          1           0       15.677837   -4.379085    1.592935
     47          1           0       11.070342   -3.117918   -2.732743
     48          1           0       14.169457    4.511526   -0.654512
     49          1           0       14.654010    4.140457    2.032952
     50          1           0       16.825845    3.035893    0.426664
     51          1           0       16.804744    4.318905    1.539071
     52          1           0       16.393771    4.652570   -0.189945
     53          1           0       12.940242    5.289004    1.680734
     54          1           0       11.755848    4.088331    1.193629
     55          1           0       10.967249    5.500706   -0.467346
     56          1           0       12.448898    6.272768   -0.832533
     57          1           0       16.568094   -0.462189    5.435034
     58          1           0       16.785774    1.101144    4.630026
     59          1           0       18.034105   -0.100112    4.518986
     60          1           0       18.858829   -2.092928    4.226106
     61          1           0       18.837205   -3.877258    4.839574
     62          1           0       17.929590   -2.562087    5.564333
     63          1           0       13.524760   -5.472957    0.734233
     64          1           0       13.151546   -5.039909   -2.217243
     65          1           0       15.205295   -6.809675   -0.139730
     66          1           0       15.997720   -5.402809   -0.778967
     67          1           0       14.863643   -6.219016   -1.786225
     68          1           0       11.772038   -6.483476   -0.512644
     69          1           0       11.088830   -5.734613   -1.993437
     70          1           0       10.424944   -4.015185    0.339301
     71          1           0        9.995878   -5.705941    0.787170
     72          1           0        9.401704   -5.064818   -0.644356
     73          1           0        9.796304   -0.698033   -4.968908
     74          1           0        8.705427   -0.716132   -3.614357
     75          1           0        9.601877   -2.163669   -3.948372
     76          1           0       10.966166    3.975345   -1.803502
     77          1           0       11.917434    6.284547   -5.105983
     78          1           0       13.203304    5.129348   -5.677191
     79          1           0       13.487288    6.063771   -4.205163
     80         12           0      -13.734045   -0.693121   -0.198429
     81          6           0      -11.924561    2.285444    0.485769
     82          6           0      -16.636796    1.320440   -0.020598
     83          6           0      -15.544316   -3.394802   -0.459534
     84          6           0      -10.754057   -2.478619   -0.030334
     85          7           0      -14.235428    1.593506    0.205925
     86          6           0      -13.277388    2.567186    0.348050
     87          6           0      -13.854011    3.972250    0.388399
     88          6           0      -15.398845    3.603017    0.350991
     89          6           0      -15.446552    2.083815    0.126438
     90          6           0      -16.123048    4.155950    1.574923
     91          6           0      -13.386518    4.791006   -0.834963
     92          6           0      -13.101309    6.329886   -0.647807
     93          1           0      -13.733367    7.045256    0.569387
     94          7           0      -15.811079   -1.003404   -0.314335
     95          6           0      -16.819935   -0.055867   -0.138581
     96          6           0      -18.115975   -0.737904   -0.281480
     97          6           0      -17.796927   -2.115873   -0.511937
     98          6           0      -16.323386   -2.180242   -0.472537
     99          6           0      -19.377797   -0.075832   -0.114285
    100          6           0      -18.748946   -3.287459   -0.730572
    101          8           0      -18.322853   -4.449790   -0.821030
    102          6           0      -20.180632   -3.054749   -1.015946
    103          7           0      -13.228159   -2.672880   -0.135475
    104          6           0      -14.155747   -3.604984   -0.369258
    105          6           0      -13.537189   -5.039650   -0.314511
    106          6           0      -12.009775   -4.719694   -0.374249
    107          6           0      -11.950605   -3.240468   -0.154944
    108          6           0      -14.015614   -5.904475    0.906818
    109          6           0      -11.565972   -5.099938   -1.838376
    110          6           0      -11.545113   -4.011835   -2.966634
    111          7           0      -11.734742   -0.238603    0.045930
    112          6           0      -10.625647   -1.101744    0.105935
    113          6           0       -9.419563   -0.288327    0.399340
    114          6           0       -9.910660    0.995940    0.603058
    115          6           0      -11.267981    1.038986    0.364259
    116          6           0       -8.158170   -0.934856    0.717637
    117          6           0       -9.484528    2.311843    1.073012
    118          8           0       -8.367255    2.653945    1.443642
    119          6           0      -10.797069    3.227430    1.045481
    120          6           0      -11.087565    3.789805    2.386777
    121          8           0      -11.842912    3.308581    3.226417
    122          8           0      -10.368465    4.989483    2.545999
    123          6           0      -10.408202    5.736158    3.783019
    124          1           0      -17.547195    1.888056   -0.226103
    125          1           0      -16.088282   -4.335950   -0.567014
    126          1           0       -9.885360   -3.139691   -0.045119
    127          1           0      -13.589603    4.508991    1.299864
    128          1           0      -15.822664    4.184268   -0.467471
    129          1           0      -16.977563    4.794559    1.353897
    130          1           0      -15.510597    4.710094    2.286250
    131          1           0      -16.569673    3.298479    2.080037
    132          1           0      -14.096205    4.698779   -1.657030
    133          1           0      -12.485457    4.239656   -1.105904
    134          1           0      -13.512993    6.894905   -1.483423
    135          1           0      -12.029771    6.439815   -0.814539
    136          1           0      -19.961736   -0.305496   -1.005795
    137          1           0      -19.237797    0.954538    0.211151
    138          1           0      -19.730979   -0.567338    0.792788
    139          1           0      -20.750165   -2.724706   -0.146626
    140          1           0      -20.641955   -3.990005   -1.332513
    141          1           0      -20.245800   -2.215003   -1.707214
    142          1           0      -13.977441   -5.428877   -1.232572
    143          1           0      -11.438320   -5.333935    0.322085
    144          1           0      -14.836392   -6.554939    0.604334
    145          1           0      -14.238159   -5.207491    1.714125
    146          1           0      -13.155647   -6.507241    1.198283
    147          1           0      -12.044664   -6.036084   -2.126455
    148          1           0      -10.486316   -5.216623   -1.739823
    149          1           0      -11.988745   -4.527613   -3.817765
    150          1           0      -10.536155   -3.705782   -3.246096
    151          1           0      -12.145424   -3.120779   -2.786152
    152          1           0       -8.344908   -1.711339    1.458365
    153          1           0       -7.528933   -0.172002    1.177250
    154          1           0       -7.617527   -1.205873   -0.188796
    155          1           0      -10.520556    4.036775    0.369046
    156          1           0       -9.570590    5.520348    4.445847
    157          1           0      -11.411536    5.746772    4.209092
    158          1           0      -10.357142    6.756443    3.401800
 ---------------------------------------------------------------------

 SCF Done:  E(RCAM-B3LYP) =  -4069.81429239     A.U. after   19 cycles

 Excitation energies and oscillator strengths:

 Excited State   1:      Singlet-A      1.7034 eV  727.88 nm  f=0.4142  <S**2>=0.000
     310 -> 316        0.17700
     311 -> 313        0.68400
     310 <- 316        0.10740
 This state for optimization and/or second-order correction.
 Total Energy, E(TD-HF/TD-DFT) =  -4069.75169539
 Copying the excited state density for this state as the 1-particle RhoCI density.

 Excited State   2:      Singlet-A      1.7491 eV  708.86 nm  f=0.3523  <S**2>=0.000
     309 -> 315        0.18966
     312 -> 314        0.68056
     309 <- 315        0.10793

 Excited State   3:      Singlet-A      2.2074 eV  561.66 nm  f=0.1388  <S**2>=0.000
     310 -> 313        0.65101
     311 -> 316       -0.26103

 Excited State   4:      Singlet-A      2.2729 eV  545.50 nm  f=0.0728  <S**2>=0.000
     309 -> 314        0.62310
     312 -> 315       -0.32200

 Excited State   5:      Singlet-A      2.9461 eV  420.84 nm  f=0.0000  <S**2>=0.000
     312 -> 313        0.70707

 The electronic state is 1-A.
 Alpha  occ. eigenvalues --  -46.88472 -46.87468 -19.24005 -19.23944 -19.19848
 Alpha  occ. eigenvalues --  -19.19280 -19.18706 -19.18200 -19.18159 -19.17897
 Alpha  occ. eigenvalues --  -14.42090 -14.41942 -14.41799 -14.41252 -14.39651
 Alpha  occ. eigenvalues --  -14.39471 -14.38883 -14.38297 -10.39447 -10.38479
 Alpha  occ. eigenvalues --  -10.35336 -10.35256 -10.34463 -10.34113 -10.31957
 Alpha  occ. eigenvalues --  -10.31149 -10.30973 -10.30897 -10.30745 -10.30737
 Alpha  occ. eigenvalues --  -10.30531 -10.30417 -10.30405 -10.30355 -10.30280
 Alpha  occ. eigenvalues --  -10.30181 -10.30062 -10.29963 -10.29196 -10.29154
 Alpha  occ. eigenvalues --  -10.28995 -10.28834 -10.28834 -10.28496 -10.28304
 Alpha  occ. eigenvalues --  -10.28231 -10.28201 -10.28085 -10.28005 -10.27777
 Alpha  occ. eigenvalues --  -10.27670 -10.27599 -10.27549 -10.27523 -10.27416
 Alpha  occ. eigenvalues --  -10.27359 -10.27320 -10.27246 -10.27206 -10.27194
 Alpha  occ. eigenvalues --  -10.27191 -10.27111 -10.27084 -10.27035 -10.27007
 Alpha  occ. eigenvalues --  -10.26837 -10.26825 -10.26772 -10.26688 -10.26637
 Alpha  occ. eigenvalues --  -10.26479 -10.26397 -10.26338 -10.26250 -10.25943
 Alpha  occ. eigenvalues --  -10.25861 -10.25830 -10.25724 -10.25654 -10.25615
 Alpha  occ. eigenvalues --  -10.25307 -10.25278 -10.25244 -10.25055 -10.24660
 Alpha  occ. eigenvalues --  -10.24548  -3.17015  -3.16184  -1.91922  -1.91482
 Alpha  occ. eigenvalues --   -1.91302  -1.91094  -1.90643  -1.90488  -1.15074
 Alpha  occ. eigenvalues --   -1.14618  -1.09618  -1.09460  -1.09174  -1.07895
 Alpha  occ. eigenvalues --   -1.07210  -1.05070  -1.04778  -1.04725  -1.04024
 Alpha  occ. eigenvalues --   -1.04006  -1.03177  -1.03059  -1.02166  -1.01339
 Alpha  occ. eigenvalues --   -0.93019  -0.91943  -0.89849  -0.88971  -0.88622
 Alpha  occ. eigenvalues --   -0.88388  -0.88353  -0.88239  -0.87516  -0.87298
 Alpha  occ. eigenvalues --   -0.86946  -0.86702  -0.86147  -0.86035  -0.84317
 Alpha  occ. eigenvalues --   -0.84097  -0.83584  -0.83264  -0.82750  -0.82611
 Alpha  occ. eigenvalues --   -0.82401  -0.81958  -0.80925  -0.80795  -0.80484
 Alpha  occ. eigenvalues --   -0.80403  -0.78911  -0.78493  -0.77449  -0.77070
 Alpha  occ. eigenvalues --   -0.76817  -0.76804  -0.76149  -0.75749  -0.75236
 Alpha  occ. eigenvalues --   -0.74744  -0.73050  -0.72089  -0.71273  -0.71267
 Alpha  occ. eigenvalues --   -0.70043  -0.69200  -0.68873  -0.68711  -0.67937
 Alpha  occ. eigenvalues --   -0.67801  -0.67040  -0.66671  -0.65138  -0.65025
 Alpha  occ. eigenvalues --   -0.64965  -0.64643  -0.64549  -0.64423  -0.64304
 Alpha  occ. eigenvalues --   -0.64147  -0.61495  -0.61430  -0.60294  -0.59900
 Alpha  occ. eigenvalues --   -0.59581  -0.59324  -0.59085  -0.59006  -0.58530
 Alpha  occ. eigenvalues --   -0.58023  -0.57836  -0.57733  -0.57244  -0.57126
 Alpha  occ. eigenvalues --   -0.56241  -0.56108  -0.55576  -0.55452  -0.55291
 Alpha  occ. eigenvalues --   -0.54835  -0.54382  -0.54241  -0.53921  -0.53811
 Alpha  occ. eigenvalues --   -0.53765  -0.53286  -0.53185  -0.53114  -0.52853
 Alpha  occ. eigenvalues --   -0.52727  -0.52464  -0.52377  -0.52289  -0.52013
 Alpha  occ. eigenvalues --   -0.51823  -0.51768  -0.51459  -0.51264  -0.51006
 Alpha  occ. eigenvalues --   -0.50775  -0.50728  -0.50566  -0.50291  -0.50102
 Alpha  occ. eigenvalues --   -0.49868  -0.49742  -0.49704  -0.49578  -0.49520
 Alpha  occ. eigenvalues --   -0.49367  -0.48988  -0.48878  -0.48868  -0.48743
 Alpha  occ. eigenvalues --   -0.48486  -0.48416  -0.48349  -0.48128  -0.48041
 Alpha  occ. eigenvalues --   -0.47866  -0.47705  -0.47556  -0.47322  -0.47167
 Alpha  occ. eigenvalues --   -0.46909  -0.46690  -0.46641  -0.46433  -0.46187
 Alpha  occ. eigenvalues --   -0.46064  -0.45953  -0.45926  -0.45645  -0.45353
 Alpha  occ. eigenvalues --   -0.45340  -0.45201  -0.45107  -0.44977  -0.44739
 Alpha  occ. eigenvalues --   -0.44573  -0.44211  -0.44194  -0.44187  -0.44009
 Alpha  occ. eigenvalues --   -0.43920  -0.43889  -0.43752  -0.43731  -0.43622
 Alpha  occ. eigenvalues --   -0.43379  -0.43355  -0.43274  -0.42916  -0.42830
 Alpha  occ. eigenvalues --   -0.42697  -0.42512  -0.42392  -0.41910  -0.41657
 Alpha  occ. eigenvalues --   -0.41538  -0.41419  -0.41266  -0.41062  -0.40982
 Alpha  occ. eigenvalues --   -0.40731  -0.40622  -0.40306  -0.40269  -0.39923
 Alpha  occ. eigenvalues --   -0.39814  -0.39642  -0.39331  -0.38861  -0.38535
 Alpha  occ. eigenvalues --   -0.38141  -0.37752  -0.37708  -0.37383  -0.37071
 Alpha  occ. eigenvalues --   -0.36848  -0.36595  -0.36442  -0.36324  -0.36079
 Alpha  occ. eigenvalues --   -0.35643  -0.35542  -0.34244  -0.34135  -0.33996
 Alpha  occ. eigenvalues --   -0.33254  -0.33126  -0.32819  -0.31160  -0.30932
 Alpha  occ. eigenvalues --   -0.30920  -0.30779  -0.30557  -0.30115  -0.29969
 Alpha  occ. eigenvalues --   -0.29830  -0.29301  -0.29254  -0.23840  -0.23578
 Alpha  occ. eigenvalues --   -0.21048  -0.20742
 Alpha virt. eigenvalues --   -0.08627  -0.08103  -0.01665  -0.01246   0.00278
 Alpha virt. eigenvalues --    0.00749   0.02225   0.02424   0.03373   0.03637
 Alpha virt. eigenvalues --    0.04872   0.05116   0.05131   0.05707   0.05771

 Mulliken charges:
               1
     1  Mg  12.000073
     2  C    5.977403
     3  C    6.020408
     4  C    6.024882
     5  C    5.997309
     6  N    6.995235
     7  C    6.029296
     8  C    5.987483
     9  C    6.006132
    10  C    5.972057
    11  C    6.002248
    12  C    5.995233
    13  C    5.998200
    14  H    1.007128
    15  N    7.008905
    16  C    5.952020
    17  C    5.969899
    18  C    5.993669
    19  C    5.958655
    20  C    6.008190
    21  C    5.987585
    22  O    7.974274
    23  C    6.004969
    24  N    7.009630
    25  C    5.956918
    26  C    6.016798
    27  C    5.985379
    28  C    6.034679
    29  C    5.998804
    30  C    5.995464
    31  C    5.998256
    32  N    6.993476
    33  C    6.031689
    34  C    6.028951
    35  C    6.006250
    36  C    6.032015
    37  C    5.996218
    38  C    6.013379
    39  O    8.029605
    40  C    6.005263
    41  C    6.000734
    42  O    8.009921
    43  O    7.998248
    44  C    5.997597
    45  H    0.989863
    46  H    0.992024
    47  H    1.013407
    48  H    1.004711
    49  H    0.998909
    50  H    1.004118
    51  H    1.000834
    52  H    0.986980
    53  H    1.009968
    54  H    1.000477
    55  H    0.994441
    56  H    0.999775
    57  H    0.977279
    58  H    0.977503
    59  H    0.976197
    60  H    0.996557
    61  H    0.985407
    62  H    0.993089
    63  H    0.999866
    64  H    1.000637
    65  H    0.999802
    66  H    1.002814
    67  H    0.988729
    68  H    1.013250
    69  H    0.998479
    70  H    0.999027
    71  H    1.009197
    72  H    0.998247
    73  H    1.019816
    74  H    1.019045
    75  H    1.018153
    76  H    1.008629
    77  H    1.003064
    78  H    1.002856
    79  H    1.006324
    80  Mg  11.999890
    81  C    6.001131
    82  C    5.999646
    83  C    5.998460
    84  C    6.000462
    85  N    7.000469
    86  C    5.998564
    87  C    6.000803
    88  C    5.999245
    89  C    6.001495
    90  C    5.999912
    91  C    6.000073
    92  C    6.000019
    93  H    0.999990
    94  N    6.999363
    95  C    6.002363
    96  C    6.000759
    97  C    6.001005
    98  C    6.001567
    99  C    5.999692
   100  C    6.000662
   101  O    8.001489
   102  C    5.999709
   103  N    6.999510
   104  C    6.001902
   105  C    5.999750
   106  C    6.000535
   107  C    5.998706
   108  C    5.999855
   109  C    6.000135
   110  C    6.000403
   111  N    7.000380
   112  C    5.998186
   113  C    5.998073
   114  C    6.000126
   115  C    5.998150
   116  C    6.000287
   117  C    5.999117
   118  O    7.998556
   119  C    5.999831
   120  C    5.999958
   121  O    7.999757
   122  O    7.999907
   123  C    6.000119
   124  H    1.000714
   125  H    1.000164
   126  H    0.999257
   127  H    0.999999
   128  H    1.000322
   129  H    1.000280
   130  H    1.000726
   131  H    0.999919
   132  H    0.999540
   133  H    1.000212
   134  H    0.999859
   135  H    1.000023
   136  H    1.000946
   137  H    1.000836
   138  H    1.001024
   139  H    1.000530
   140  H    1.000823
   141  H    1.000217
   142  H    0.999797
   143  H    0.999842
   144  H    0.999949
   145  H    1.000105
   146  H    1.000510
   147  H    0.999516
   148  H    0.999840
   149  H    0.999525
   150  H    0.999832
   151  H    0.999837
   152  H    0.999169
   153  H    0.999038
   154  H    0.998500
   155  H    0.999516
   156  H    0.999955
   157  H    0.999883
   158  H    0.999778
 Sum of Mulliken charges = 624.00000

 Dipole moment (field-independent basis, Debye):
    X=             -7.8499    Y=              1.7726    Z=             -7.9679  Tot=             11.3247
 Quadrupole moment (field-independent basis, Debye-Ang):
   XX=           -183.6383   YY=              1.5956   ZZ=             -3.6611
   XY=             31.6495   XZ=           -110.1620   YZ=              4.3644

 Normal termination of Gaussian 16 at Tue Sep 21 23:29:29 2021.
