 Gaussian 16, Revision A.03,
 Gaussian 16:  ES64L-G16RevA.03 25-Dec-2016

 -----------------------------------
 #p cam-b3lyp/Def2SVP td=(nstates=5)
 -----------------------------------

 --------------------------------
 TDDFT excited states in gaussian
 --------------------------------
 Symbolic Z-matrix:
 Charge =  0 Multiplicity = 1

                         Standard orientation:
 ---------------------------------------------------------------------
 Center     Atomic      Atomic             Coordinates (Angstroms)
 Number     Number       Type             X           Y           Z
 ---------------------------------------------------------------------
      1         12           0       24.984632   -0.007991    0.063931
      2          6           0       21.801868   -1.218432   -0.209405
      3          6           0       25.206640   -0.224845   -3.480968
      4          6           0       27.971748    1.550149    0.251692
      5          6           0       24.290467    0.995493    3.327103
      6          7           0       23.437969   -0.326814   -1.735239
      7          6           0       22.294645   -1.039790   -1.532277
      8          6           0       21.633932   -1.329872   -2.851466
      9          6           0       22.741964   -0.973385   -3.935315
     10          6           0       23.920691   -0.475232   -3.040532
     11          6           0       22.876921   -1.912937   -5.077485
     12          6           0       20.176704   -0.741022   -3.159887
     13          6           0       19.802330    0.578459   -2.552611
     14          1           0       19.184961    1.616244   -3.479515
     15          7           0       26.469901    0.353403   -1.379269
     16          6           0       26.397866    0.182225   -2.726958
     17          6           0       27.602035    0.590772   -3.387784
     18          6           0       28.489434    1.014899   -2.268880
     19          6           0       27.651180    0.980426   -1.050528
     20          6           0       27.916636    0.556329   -4.806874
     21          6           0       29.956381    1.417802   -2.314602
     22          8           0       30.504265    1.571510   -3.347993
     23          6           0       30.826859    1.759023   -1.137037
     24          7           0       25.908808    1.201883    1.506153
     25          6           0       27.199188    1.551839    1.393021
     26          6           0       27.647891    2.489610    2.632473
     27          6           0       26.593770    1.958357    3.721535
     28          6           0       25.534269    1.412082    2.794376
     29          6           0       29.106771    2.354281    3.077491
     30          6           0       26.184894    3.042417    4.735080
     31          6           0       26.176690    2.746620    6.239497
     32          7           0       23.338544    0.013009    1.292044
     33          6           0       23.178360    0.406506    2.614835
     34          6           0       21.921405    0.016486    3.124279
     35          6           0       21.324727   -0.683953    2.088943
     36          6           0       22.228168   -0.667932    0.967849
     37          6           0       21.382840    0.230558    4.505078
     38          6           0       20.244860   -1.455089    1.631651
     39          8           0       19.223042   -1.744061    2.251056
     40          6           0       20.401759   -1.690762    0.102370
     41          6           0       20.192137   -3.191294   -0.038245
     42          8           0       19.381557   -3.714671   -0.831849
     43          8           0       21.138158   -3.814626    0.740915
     44          6           0       21.389683   -5.274195    0.658025
     45          1           0       25.164642   -0.197943   -4.571767
     46          1           0       28.833474    2.220683    0.256795
     47          1           0       24.108591    1.251048    4.372736
     48          1           0       21.398058   -2.393970   -2.890189
     49          1           0       22.421499   -0.036555   -4.390198
     50          1           0       23.907116   -2.206868   -5.278145
     51          1           0       22.353342   -1.560224   -5.966070
     52          1           0       22.398139   -2.858446   -4.822595
     53          1           0       19.355354   -1.379814   -2.834978
     54          1           0       20.096864   -0.514359   -4.223526
     55          1           0       20.555493    1.007831   -1.892780
     56          1           0       18.935327    0.396009   -1.916841
     57          1           0       27.381731   -0.276054   -5.263099
     58          1           0       28.979079    0.455200   -5.025206
     59          1           0       27.559042    1.496555   -5.228188
     60          1           0       30.329574    1.074139   -0.449787
     61          1           0       30.713534    2.792166   -0.810086
     62          1           0       31.894563    1.560852   -1.232465
     63          1           0       27.362447    3.503740    2.351254
     64          1           0       26.860870    1.093802    4.328736
     65          1           0       29.100346    1.794308    4.013031
     66          1           0       29.605425    3.322453    3.042290
     67          1           0       29.711355    1.763466    2.390008
     68          1           0       25.180064    3.361801    4.457370
     69          1           0       26.782133    3.930965    4.529864
     70          1           0       26.673988    3.445807    6.911927
     71          1           0       26.485219    1.727102    6.474467
     72          1           0       25.109450    2.663515    6.442410
     73          1           0       20.742526   -0.570921    4.874283
     74          1           0       20.814748    1.161074    4.512110
     75          1           0       22.161408    0.293328    5.266460
     76          1           0       19.592628   -1.092950   -0.315415
     77          1           0       22.447879   -5.522212    0.738685
     78          1           0       21.011882   -5.628178   -0.301310
     79          1           0       20.930443   -5.959204    1.369641
     80         12           0      -24.892623    0.583103    0.271106
     81          6           0      -21.997028   -1.350612    0.584831
     82          6           0      -26.719581   -2.343732    0.322055
     83          6           0      -27.649966    2.328405   -0.729913
     84          6           0      -22.895269    3.326924   -0.418100
     85          7           0      -24.374972   -1.527572    0.523925
     86          6           0      -23.179079   -2.037286    0.845400
     87          6           0      -23.211348   -3.495454    1.326123
     88          6           0      -24.718301   -3.876393    1.060820
     89          6           0      -25.399604   -2.446153    0.679552
     90          6           0      -24.997094   -4.954436   -0.008662
     91          6           0      -22.757285   -3.700574    2.771488
     92          6           0      -22.189045   -5.106544    3.036869
     93          1           0      -22.155341   -6.131068    1.894015
     94          7           0      -26.922248    0.113112   -0.041678
     95          6           0      -27.509371   -1.165915    0.095244
     96          6           0      -28.933777   -1.040025   -0.139792
     97          6           0      -29.222843    0.323897   -0.518574
     98          6           0      -27.930124    0.998215   -0.409881
     99          6           0      -29.864046   -2.196897    0.101288
    100          6           0      -30.615013    1.044369   -0.810352
    101          8           0      -30.733045    2.233603   -0.980302
    102          6           0      -31.831028    0.146851   -0.886671
    103          7           0      -25.210527    2.496710   -0.550666
    104          6           0      -26.432886    3.022473   -0.851502
    105          6           0      -26.339302    4.523082   -1.314219
    106          6           0      -24.847586    4.797774   -1.131193
    107          6           0      -24.292864    3.459627   -0.680352
    108          6           0      -26.946247    5.002306   -2.694137
    109          6           0      -24.607308    5.914524   -0.088385
    110          6           0      -24.623172    5.550137    1.412740
    111          7           0      -22.848585    1.040153    0.241975
    112          6           0      -22.174528    2.196656   -0.053519
    113          6           0      -20.765777    2.016118    0.056739
    114          6           0      -20.620760    0.578736    0.311898
    115          6           0      -21.864205    0.082910    0.381774
    116          6           0      -19.650001    2.954907   -0.079511
    117          6           0      -19.679625   -0.527878    0.415102
    118          8           0      -18.445269   -0.518124    0.470633
    119          6           0      -20.503205   -1.835700    0.604641
    120          6           0      -20.201239   -2.814280   -0.434986
    121          8           0      -20.625851   -2.799923   -1.585525
    122          8           0      -19.187927   -3.632135   -0.001827
    123          6           0      -18.414618   -4.420175   -0.981145
    124          1           0      -27.210672   -3.319279    0.324723
    125          1           0      -28.545728    2.936620   -0.871609
    126          1           0      -22.265639    4.210811   -0.539297
    127          1           0      -22.656859   -4.151280    0.655286
    128          1           0      -25.269667   -4.118338    1.968720
    129          1           0      -25.619215   -5.640260    0.566140
    130          1           0      -24.070775   -5.435827   -0.321276
    131          1           0      -25.490266   -4.514386   -0.875487
    132          1           0      -23.555324   -3.496550    3.484335
    133          1           0      -21.974361   -2.984991    3.024054
    134          1           0      -22.845942   -5.436593    3.841905
    135          1           0      -21.208110   -5.065912    3.512539
    136          1           0      -29.217874   -3.061100    0.255709
    137          1           0      -30.509405   -2.320932   -0.768586
    138          1           0      -30.516962   -2.047594    0.962545
    139          1           0      -31.947826   -0.456409   -1.787557
    140          1           0      -32.710606    0.767126   -0.714365
    141          1           0      -31.685829   -0.496562   -0.018963
    142          1           0      -26.948311    5.006721   -0.550817
    143          1           0      -24.468852    5.092543   -2.109186
    144          1           0      -26.275822    5.611314   -3.299404
    145          1           0      -27.800709    5.643858   -2.481070
    146          1           0      -27.312193    4.118627   -3.217762
    147          1           0      -25.361469    6.671223   -0.301177
    148          1           0      -23.641441    6.340873   -0.360953
    149          1           0      -25.165672    6.369078    1.884419
    150          1           0      -23.630796    5.528422    1.862509
    151          1           0      -25.036160    4.566229    1.632338
    152          1           0      -18.931882    2.729002    0.707987
    153          1           0      -19.914290    4.011389   -0.032705
    154          1           0      -19.075303    2.720241   -0.975659
    155          1           0      -20.222790   -2.179912    1.600011
    156          1           0      -18.793915   -4.301756   -1.996735
    157          1           0      -18.518389   -5.472150   -0.714154
    158          1           0      -17.420112   -3.997374   -0.843092
 ---------------------------------------------------------------------

 SCF Done:  E(RCAM-B3LYP) =  -4069.77236615     A.U. after   19 cycles

 Excitation energies and oscillator strengths:

 Excited State   1:      Singlet-A      1.6348 eV  758.42 nm  f=0.3910  <S**2>=0.000
     309 -> 315        0.16910
     311 -> 313        0.68878
     309 <- 315        0.10871
 This state for optimization and/or second-order correction.
 Total Energy, E(TD-HF/TD-DFT) =  -4069.71228938
 Copying the excited state density for this state as the 1-particle RhoCI density.

 Excited State   2:      Singlet-A      1.7177 eV  721.80 nm  f=0.4093  <S**2>=0.000
     310 -> 316        0.18152
     312 -> 314        0.68397
     310 <- 316        0.10676

 Excited State   3:      Singlet-A      2.1355 eV  580.60 nm  f=0.1574  <S**2>=0.000
     310 -> 314        0.65931
     312 -> 316       -0.23564

 Excited State   4:      Singlet-A      2.1489 eV  576.97 nm  f=0.1479  <S**2>=0.000
     309 -> 313        0.65217
     311 -> 315       -0.25538

 Excited State   5:      Singlet-A      2.9714 eV  417.26 nm  f=0.0000  <S**2>=0.000
     312 -> 313        0.70710

 The electronic state is 1-A.
 Alpha  occ. eigenvalues --  -46.89954 -46.88220 -19.26227 -19.23848 -19.20328
 Alpha  occ. eigenvalues --  -19.19922 -19.18961 -19.18680 -19.18482 -19.17245
 Alpha  occ. eigenvalues --  -14.42586 -14.42257 -14.42040 -14.41869 -14.40059
 Alpha  occ. eigenvalues --  -14.39665 -14.39407 -14.38140 -10.40481 -10.38657
 Alpha  occ. eigenvalues --  -10.36166 -10.35060 -10.34281 -10.33582 -10.32826
 Alpha  occ. eigenvalues --  -10.32097 -10.31612 -10.31140 -10.31016 -10.30931
 Alpha  occ. eigenvalues --  -10.30862 -10.30856 -10.30765 -10.30702 -10.30687
 Alpha  occ. eigenvalues --  -10.30649 -10.30294 -10.30181 -10.29848 -10.29394
 Alpha  occ. eigenvalues --  -10.28901 -10.28860 -10.28850 -10.28830 -10.28553
 Alpha  occ. eigenvalues --  -10.28467 -10.28438 -10.28301 -10.28248 -10.28204
 Alpha  occ. eigenvalues --  -10.28130 -10.28086 -10.27974 -10.27962 -10.27808
 Alpha  occ. eigenvalues --  -10.27753 -10.27638 -10.27552 -10.27547 -10.27524
 Alpha  occ. eigenvalues --  -10.27516 -10.27400 -10.27236 -10.27101 -10.26978
 Alpha  occ. eigenvalues --  -10.26926 -10.26891 -10.26796 -10.26782 -10.26734
 Alpha  occ. eigenvalues --  -10.26697 -10.26568 -10.26351 -10.26324 -10.26302
 Alpha  occ. eigenvalues --  -10.26228 -10.26072 -10.25961 -10.25895 -10.25825
 Alpha  occ. eigenvalues --  -10.25773 -10.25519 -10.25449 -10.25171 -10.25087
 Alpha  occ. eigenvalues --  -10.24735  -3.18425  -3.16745  -1.93283  -1.92917
 Alpha  occ. eigenvalues --   -1.92701  -1.91646  -1.91198  -1.91052  -1.15686
 Alpha  occ. eigenvalues --   -1.15064  -1.11561  -1.11422  -1.09362  -1.08841
 Alpha  occ. eigenvalues --   -1.07257  -1.06618  -1.05175  -1.04427  -1.04371
 Alpha  occ. eigenvalues --   -1.03305  -1.02944  -1.02424  -1.02163  -1.00998
 Alpha  occ. eigenvalues --   -0.93699  -0.92051  -0.89850  -0.89160  -0.88785
 Alpha  occ. eigenvalues --   -0.88745  -0.88412  -0.88117  -0.87950  -0.87261
 Alpha  occ. eigenvalues --   -0.87073  -0.86437  -0.86064  -0.85896  -0.84561
 Alpha  occ. eigenvalues --   -0.84178  -0.84006  -0.83415  -0.83109  -0.82316
 Alpha  occ. eigenvalues --   -0.82187  -0.81944  -0.80993  -0.80977  -0.80600
 Alpha  occ. eigenvalues --   -0.80148  -0.78527  -0.78105  -0.77817  -0.77118
 Alpha  occ. eigenvalues --   -0.77003  -0.76816  -0.76707  -0.75877  -0.75487
 Alpha  occ. eigenvalues --   -0.74991  -0.73597  -0.72409  -0.71765  -0.71071
 Alpha  occ. eigenvalues --   -0.70043  -0.69798  -0.69401  -0.68426  -0.68415
 Alpha  occ. eigenvalues --   -0.67664  -0.66580  -0.66284  -0.66056  -0.65504
 Alpha  occ. eigenvalues --   -0.64744  -0.64726  -0.64679  -0.64420  -0.64412
 Alpha  occ. eigenvalues --   -0.63703  -0.63606  -0.61377  -0.60293  -0.59750
 Alpha  occ. eigenvalues --   -0.59406  -0.59069  -0.59059  -0.58900  -0.58293
 Alpha  occ. eigenvalues --   -0.58075  -0.57646  -0.57634  -0.57388  -0.57231
 Alpha  occ. eigenvalues --   -0.56542  -0.55834  -0.55809  -0.55414  -0.55339
 Alpha  occ. eigenvalues --   -0.55148  -0.55123  -0.54640  -0.54476  -0.53983
 Alpha  occ. eigenvalues --   -0.53682  -0.53327  -0.53285  -0.53195  -0.52846
 Alpha  occ. eigenvalues --   -0.52657  -0.52521  -0.52305  -0.52111  -0.52089
 Alpha  occ. eigenvalues --   -0.51955  -0.51859  -0.51815  -0.51588  -0.51362
 Alpha  occ. eigenvalues --   -0.51091  -0.50780  -0.50705  -0.50614  -0.50604
 Alpha  occ. eigenvalues --   -0.50202  -0.49993  -0.49725  -0.49649  -0.49561
 Alpha  occ. eigenvalues --   -0.49474  -0.49344  -0.49195  -0.49038  -0.49009
 Alpha  occ. eigenvalues --   -0.48980  -0.48519  -0.48240  -0.48208  -0.48107
 Alpha  occ. eigenvalues --   -0.47881  -0.47600  -0.47572  -0.47317  -0.47234
 Alpha  occ. eigenvalues --   -0.47094  -0.47091  -0.46912  -0.46724  -0.46425
 Alpha  occ. eigenvalues --   -0.46234  -0.46154  -0.46103  -0.45803  -0.45626
 Alpha  occ. eigenvalues --   -0.45624  -0.45540  -0.45329  -0.45224  -0.45030
 Alpha  occ. eigenvalues --   -0.45006  -0.44895  -0.44620  -0.44245  -0.44165
 Alpha  occ. eigenvalues --   -0.44011  -0.43946  -0.43619  -0.43394  -0.43384
 Alpha  occ. eigenvalues --   -0.43164  -0.43083  -0.43034  -0.42767  -0.42718
 Alpha  occ. eigenvalues --   -0.42652  -0.42649  -0.42384  -0.42340  -0.42086
 Alpha  occ. eigenvalues --   -0.41956  -0.41905  -0.41737  -0.41495  -0.41476
 Alpha  occ. eigenvalues --   -0.41297  -0.41074  -0.40861  -0.40592  -0.40574
 Alpha  occ. eigenvalues --   -0.40238  -0.40208  -0.39893  -0.39042  -0.38685
 Alpha  occ. eigenvalues --   -0.38492  -0.38369  -0.37996  -0.37818  -0.37666
 Alpha  occ. eigenvalues --   -0.37376  -0.36890  -0.36605  -0.36157  -0.36099
 Alpha  occ. eigenvalues --   -0.35647  -0.35613  -0.34792  -0.34296  -0.33873
 Alpha  occ. eigenvalues --   -0.33775  -0.33252  -0.33092  -0.31582  -0.31578
 Alpha  occ. eigenvalues --   -0.30903  -0.30860  -0.30792  -0.30514  -0.29582
 Alpha  occ. eigenvalues --   -0.29556  -0.28631  -0.28360  -0.24470  -0.23490
 Alpha  occ. eigenvalues --   -0.21727  -0.21294
 Alpha virt. eigenvalues --   -0.09673  -0.08890  -0.01966  -0.01289   0.00137
 Alpha virt. eigenvalues --    0.00626   0.00992   0.02515   0.02633   0.02685
 Alpha virt. eigenvalues --    0.04563   0.04907   0.05165   0.05357   0.05906

 Mulliken charges:
               1
     1  Mg   0.824992
     2  C    0.019325
     3  C   -0.076970
     4  C   -0.075323
     5  C   -0.091273
     6  N   -0.272167
     7  C   -0.046292
     8  C    0.019118
     9  C   -0.037936
    10  C    0.011836
    11  C    0.090881
    12  C    0.034493
    13  C   -0.113685
    14  H    0.011974
    15  N   -0.363518
    16  C    0.155783
    17  C   -0.164919
    18  C   -0.053239
    19  C    0.113973
    20  C    0.136384
    21  C   -0.034859
    22  O   -0.178707
    23  C    0.046385
    24  N   -0.288431
    25  C    0.057809
    26  C   -0.083514
    27  C   -0.035985
    28  C    0.048065
    29  C    0.096429
    30  C    0.030977
    31  C    0.010220
    32  N   -0.351643
    33  C    0.123551
    34  C   -0.172819
    35  C    0.107937
    36  C    0.078489
    37  C    0.118784
    38  C   -0.023668
    39  O   -0.180916
    40  C   -0.040738
    41  C    0.244516
    42  O   -0.225255
    43  O   -0.349248
    44  C    0.180469
    45  H   -0.016072
    46  H   -0.017629
    47  H   -0.037879
    48  H    0.015014
    49  H    0.022361
    50  H    0.014208
    51  H    0.019012
    52  H    0.005482
    53  H    0.034713
    54  H    0.020732
    55  H    0.042976
    56  H    0.034014
    57  H    0.010765
    58  H    0.039532
    59  H    0.029650
    60  H    0.015079
    61  H    0.049011
    62  H    0.031105
    63  H    0.029330
    64  H    0.016130
    65  H    0.016706
    66  H    0.016747
    67  H    0.012740
    68  H    0.006076
    69  H    0.002118
    70  H    0.033168
    71  H    0.005105
    72  H    0.010970
    73  H    0.037315
    74  H    0.037084
    75  H    0.010957
    76  H    0.037039
    77  H    0.035816
    78  H    0.037914
    79  H    0.041429
    80  Mg   0.823028
    81  C    0.006426
    82  C   -0.075167
    83  C   -0.064068
    84  C   -0.084813
    85  N   -0.287776
    86  C   -0.049467
    87  C   -0.003268
    88  C   -0.105793
    89  C    0.045289
    90  C    0.081860
    91  C    0.056996
    92  C   -0.056547
    93  H    0.033396
    94  N   -0.398847
    95  C    0.148735
    96  C   -0.158265
    97  C   -0.054718
    98  C    0.106829
    99  C    0.107924
   100  C    0.035159
   101  O   -0.175867
   102  C    0.039525
   103  N   -0.264180
   104  C    0.020602
   105  C   -0.037472
   106  C    0.004156
   107  C    0.026927
   108  C    0.071308
   109  C    0.003275
   110  C    0.023094
   111  N   -0.363412
   112  C    0.130869
   113  C   -0.149181
   114  C    0.007068
   115  C    0.102494
   116  C    0.128398
   117  C    0.019666
   118  O   -0.184978
   119  C    0.009745
   120  C    0.206547
   121  O   -0.224794
   122  O   -0.347445
   123  C    0.165982
   124  H   -0.022154
   125  H   -0.007222
   126  H   -0.041541
   127  H    0.017807
   128  H    0.005489
   129  H    0.018264
   130  H    0.021372
   131  H    0.034503
   132  H    0.006319
   133  H    0.007297
   134  H    0.018411
   135  H    0.031242
   136  H    0.004034
   137  H    0.025167
   138  H    0.045378
   139  H    0.059595
   140  H    0.027287
   141  H    0.011652
   142  H    0.014048
   143  H    0.008375
   144  H    0.018918
   145  H    0.013826
   146  H    0.029138
   147  H    0.005392
   148  H    0.006374
   149  H    0.017061
   150  H    0.015000
   151  H    0.026898
   152  H    0.029774
   153  H    0.012626
   154  H    0.034378
   155  H    0.043382
   156  H    0.050328
   157  H    0.036880
   158  H    0.055462
 Sum of Mulliken charges =  -0.00000

 Dipole moment (field-independent basis, Debye):
    X=              0.0957    Y=             -1.2196    Z=              5.2234  Tot=              5.3648
 Quadrupole moment (field-independent basis, Debye-Ang):
   XX=           -296.0769   YY=           -469.4660   ZZ=           -497.2398
   XY=             21.1033   XZ=             46.5874   YZ=              6.1038

 Normal termination of Gaussian 16 at Wed Sep 15 00:49:05 2021.
