 Gaussian 16, Revision A.03,
 Gaussian 16:  ES64L-G16RevA.03 25-Dec-2016

 ----------------------------------------------------------
 #p cam-b3lyp/Def2SVP td=(nstates=5) density=(transition=1)
 ----------------------------------------------------------

 --------------------------------
 TDDFT excited states in gaussian
 --------------------------------
 Symbolic Z-matrix:
 Charge =  0 Multiplicity = 1

                         Standard orientation:
 ---------------------------------------------------------------------
 Center     Atomic      Atomic             Coordinates (Angstroms)
 Number     Number       Type             X           Y           Z
 ---------------------------------------------------------------------
      1         12           0      -20.830874   -0.420733   -0.127942
      2          6           0      -18.434560    2.105677   -0.078323
      3          6           0      -23.216899    1.856873    0.848912
      4          6           0      -22.968575   -3.029060    0.042987
      5          6           0      -18.196585   -2.754207   -0.748530
      6          7           0      -20.763709    1.682158    0.424176
      7          6           0      -19.704193    2.532619    0.349554
      8          6           0      -20.124213    3.978118    0.645866
      9          6           0      -21.645115    3.784909    1.076984
     10          6           0      -21.887345    2.310379    0.737914
     11          6           0      -21.860520    4.063486    2.559671
     12          6           0      -20.106153    4.962903   -0.577048
     13          6           0      -19.879098    6.423637   -0.286150
     14          1           0      -20.023482    6.919250    1.082883
     15          7           0      -22.800059   -0.539631    0.281316
     16          6           0      -23.617895    0.536828    0.679258
     17          6           0      -24.965564    0.031446    0.699713
     18          6           0      -24.955593   -1.359206    0.423545
     19          6           0      -23.526857   -1.711603    0.234285
     20          6           0      -26.146161    0.841311    1.191349
     21          6           0      -26.052304   -2.330273    0.286654
     22          8           0      -25.878425   -3.529534    0.243023
     23          6           0      -27.548931   -1.854848    0.354386
     24          7           0      -20.681408   -2.627936   -0.492146
     25          6           0      -21.687729   -3.433806   -0.329055
     26          6           0      -21.269378   -4.919185   -0.546242
     27          6           0      -19.787903   -4.852781   -0.869959
     28          6           0      -19.463427   -3.330851   -0.653472
     29          6           0      -21.709094   -5.812968    0.707161
     30          6           0      -19.448763   -5.398810   -2.273072
     31          6           0      -18.971335   -6.896203   -2.366714
     32          7           0      -18.865188   -0.376551   -0.613681
     33          6           0      -17.907221   -1.396002   -0.839522
     34          6           0      -16.630243   -0.850153   -1.101610
     35          6           0      -16.807286    0.546954   -0.718300
     36          6           0      -18.198320    0.732625   -0.475419
     37          6           0      -15.345694   -1.636178   -1.290619
     38          6           0      -16.048096    1.728629   -0.535345
     39          8           0      -14.860951    1.978286   -0.702763
     40          6           0      -17.185273    2.891059   -0.165832
     41          6           0      -16.693610    3.530205    1.099604
     42          8           0      -16.493079    2.924105    2.157375
     43          8           0      -16.346519    4.902581    0.923614
     44          6           0      -15.835818    5.605645    2.141869
     45          1           0      -23.920136    2.632621    1.161275
     46          1           0      -23.671692   -3.823645    0.299881
     47          1           0      -17.363117   -3.416612   -0.989974
     48          1           0      -19.502922    4.308987    1.478403
     49          1           0      -22.325224    4.449093    0.543839
     50          1           0      -21.009089    4.589919    2.990139
     51          1           0      -22.121526    3.167700    3.123839
     52          1           0      -22.628909    4.810190    2.760084
     53          1           0      -21.046546    4.835689   -1.112178
     54          1           0      -19.371839    4.568042   -1.279505
     55          1           0      -20.647285    6.975619   -0.827278
     56          1           0      -18.879969    6.701451   -0.621897
     57          1           0      -26.568844    0.462671    2.121917
     58          1           0      -26.889671    0.869867    0.393708
     59          1           0      -25.943069    1.882421    1.441717
     60          1           0      -27.780110   -1.757440    1.415443
     61          1           0      -28.211376   -2.653959    0.021407
     62          1           0      -27.670607   -0.882633   -0.121651
     63          1           0      -21.871001   -5.216710   -1.405299
     64          1           0      -19.183457   -5.327971   -0.098874
     65          1           0      -20.847539   -6.327853    1.132047
     66          1           0      -22.370824   -6.638147    0.443182
     67          1           0      -22.114138   -5.095622    1.422111
     68          1           0      -18.650034   -4.762890   -2.656451
     69          1           0      -20.330094   -5.231115   -2.892311
     70          1           0      -17.895541   -6.910232   -2.188335
     71          1           0      -19.223813   -7.476613   -3.254320
     72          1           0      -19.427124   -7.302423   -1.464381
     73          1           0      -15.362532   -1.884152   -2.351582
     74          1           0      -15.350700   -2.554353   -0.704417
     75          1           0      -14.438735   -1.190606   -0.879956
     76          1           0      -17.260729    3.585519   -1.003487
     77          1           0      -14.901337    5.170462    2.494240
     78          1           0      -16.487969    5.674738    3.012923
     79          1           0      -15.620669    6.577215    1.697054
     80         12           0       20.303719   -0.749042    0.188508
     81          6           0       19.356500    2.267618   -1.176944
     82          6           0       21.767363    1.056433    2.902598
     83          6           0       21.551161   -3.543734    1.370140
     84          6           0       19.007330   -2.451545   -2.565472
     85          7           0       20.484304    1.418359    0.720821
     86          6           0       19.995985    2.456781    0.036131
     87          6           0       20.246689    3.765202    0.854577
     88          6           0       21.148764    3.309237    2.091350
     89          6           0       21.190062    1.784652    1.871447
     90          6           0       22.594239    3.768280    2.096287
     91          6           0       18.976831    4.541592    1.234490
     92          6           0       19.085897    6.006630    0.846597
     93          1           0       18.300996    7.087566    1.603977
     94          7           0       21.425790   -1.172929    1.944542
     95          6           0       21.879846   -0.352044    2.936273
     96          6           0       22.522554   -1.055186    3.954814
     97          6           0       22.600395   -2.417655    3.499893
     98          6           0       21.822746   -2.439295    2.212901
     99          6           0       23.062811   -0.414577    5.225095
    100          6           0       23.333510   -3.593960    4.123751
    101          8           0       23.414552   -4.654393    3.473934
    102          6           0       24.045871   -3.478038    5.409228
    103          7           0       20.236574   -2.662767   -0.496449
    104          6           0       20.782679   -3.723859    0.196106
    105          6           0       20.624391   -5.119907   -0.513112
    106          6           0       19.558144   -4.723168   -1.621443
    107          6           0       19.608740   -3.184824   -1.583251
    108          6           0       21.863767   -5.873947   -1.138252
    109          6           0       18.119680   -5.413276   -1.577588
    110          6           0       17.167982   -4.865422   -0.547135
    111          7           0       19.505903   -0.270288   -1.571681
    112          6           0       19.013455   -1.021375   -2.621920
    113          6           0       18.470559   -0.221173   -3.642174
    114          6           0       18.559101    1.059364   -3.084149
    115          6           0       19.195081    1.003338   -1.809755
    116          6           0       17.855065   -0.795650   -4.846372
    117          6           0       18.322098    2.401096   -3.455678
    118          8           0       17.920215    2.822405   -4.542147
    119          6           0       18.806501    3.308126   -2.207629
    120          6           0       19.809758    4.251904   -2.668038
    121          8           0       20.962007    4.008559   -2.944987
    122          8           0       19.265032    5.446348   -2.863979
    123          6           0       20.061693    6.489092   -3.436540
    124          1           0       22.255855    1.619265    3.700218
    125          1           0       21.902816   -4.542833    1.634622
    126          1           0       18.616771   -3.023370   -3.409882
    127          1           0       20.871009    4.312352    0.148931
    128          1           0       20.698873    3.785791    2.963042
    129          1           0       22.852258    4.462588    1.296061
    130          1           0       23.259347    2.917642    1.949911
    131          1           0       22.867816    4.116498    3.092737
    132          1           0       18.695041    4.477427    2.285624
    133          1           0       18.140623    4.078314    0.711347
    134          1           0       18.668326    6.078789   -0.158312
    135          1           0       20.147241    6.249551    0.894387
    136          1           0       22.703592    0.607549    5.345205
    137          1           0       24.140802   -0.288734    5.121727
    138          1           0       22.909876   -1.062505    6.087364
    139          1           0       24.800183   -4.259669    5.506390
    140          1           0       23.310687   -3.657778    6.194250
    141          1           0       24.524124   -2.502289    5.491123
    142          1           0       20.066152   -5.832342    0.095101
    143          1           0       19.908028   -5.095547   -2.583452
    144          1           0       22.748294   -5.265982   -0.952413
    145          1           0       21.802177   -5.808906   -2.225293
    146          1           0       22.043495   -6.908215   -0.843421
    147          1           0       18.294373   -6.446846   -1.279730
    148          1           0       17.627677   -5.477287   -2.547373
    149          1           0       16.164458   -4.975763   -0.956583
    150          1           0       17.286068   -3.857350   -0.151686
    151          1           0       17.289443   -5.485570    0.341002
    152          1           0       17.370165   -1.768765   -4.773058
    153          1           0       18.445548   -0.738332   -5.759987
    154          1           0       17.081720   -0.055663   -5.050853
    155          1           0       17.937208    3.850134   -1.835763
    156          1           0       20.593432    7.067693   -2.680309
    157          1           0       19.372717    7.182494   -3.918482
    158          1           0       20.793228    6.061906   -4.122615
 ---------------------------------------------------------------------

 SCF Done:  E(RCAM-B3LYP) =  -4069.85599945     A.U. after   19 cycles

 Excitation energies and oscillator strengths:

 Excited State   1:      Singlet-A      1.7067 eV  726.45 nm  f=0.4244  <S**2>=0.000
     310 -> 316        0.17254
     312 -> 314        0.68644
     310 <- 316        0.10532
 This state for optimization and/or second-order correction.
 Total Energy, E(TD-HF/TD-DFT) =  -4069.79327909
 Copying the excited state density for this state as the 1-particle RhoCI density.

 Excited State   2:      Singlet-A      1.7265 eV  718.14 nm  f=0.3664  <S**2>=0.000
     309 -> 315        0.17534
     311 -> 313        0.68612
     309 <- 315        0.10548

 Excited State   3:      Singlet-A      2.2215 eV  558.11 nm  f=0.1181  <S**2>=0.000
     310 -> 314        0.64640
     312 -> 316       -0.25138

 Excited State   4:      Singlet-A      2.2227 eV  557.82 nm  f=0.1871  <S**2>=0.000
     309 -> 313        0.64378
     311 -> 315       -0.25852

 Excited State   5:      Singlet-A      3.1436 eV  394.40 nm  f=0.0000  <S**2>=0.000
     312 -> 313        0.70710

 The electronic state is 1-A.
 Alpha  occ. eigenvalues --  -46.87991 -46.87648 -19.24790 -19.24154 -19.19456
 Alpha  occ. eigenvalues --  -19.19276 -19.18588 -19.18554 -19.18224 -19.18207
 Alpha  occ. eigenvalues --  -14.42691 -14.42262 -14.42129 -14.41654 -14.40174
 Alpha  occ. eigenvalues --  -14.39677 -14.39356 -14.38926 -10.39069 -10.38265
 Alpha  occ. eigenvalues --  -10.35476 -10.34835 -10.34473 -10.34342 -10.31703
 Alpha  occ. eigenvalues --  -10.31613 -10.31465 -10.31192 -10.31182 -10.31162
 Alpha  occ. eigenvalues --  -10.31149 -10.31121 -10.30856 -10.30815 -10.30701
 Alpha  occ. eigenvalues --  -10.30697 -10.30119 -10.29704 -10.29347 -10.29017
 Alpha  occ. eigenvalues --  -10.28952 -10.28904 -10.28872 -10.28518 -10.28490
 Alpha  occ. eigenvalues --  -10.28485 -10.28246 -10.28238 -10.28229 -10.28108
 Alpha  occ. eigenvalues --  -10.28052 -10.27939 -10.27924 -10.27852 -10.27775
 Alpha  occ. eigenvalues --  -10.27774 -10.27762 -10.27662 -10.27628 -10.27619
 Alpha  occ. eigenvalues --  -10.27550 -10.27508 -10.27481 -10.27462 -10.27258
 Alpha  occ. eigenvalues --  -10.27153 -10.26884 -10.26815 -10.26760 -10.26564
 Alpha  occ. eigenvalues --  -10.26370 -10.26351 -10.26332 -10.26274 -10.26239
 Alpha  occ. eigenvalues --  -10.26149 -10.26132 -10.25999 -10.25865 -10.25858
 Alpha  occ. eigenvalues --  -10.25808 -10.25708 -10.25526 -10.24939 -10.24602
 Alpha  occ. eigenvalues --  -10.24537  -3.16686  -3.16433  -1.91598  -1.91331
 Alpha  occ. eigenvalues --   -1.91135  -1.91005  -1.90904  -1.90737  -1.17896
 Alpha  occ. eigenvalues --   -1.13451  -1.11131  -1.08816  -1.08630  -1.08469
 Alpha  occ. eigenvalues --   -1.07760  -1.05829  -1.05201  -1.04557  -1.03958
 Alpha  occ. eigenvalues --   -1.03665  -1.03386  -1.03295  -1.02510  -1.02431
 Alpha  occ. eigenvalues --   -0.92110  -0.92051  -0.89328  -0.89302  -0.88985
 Alpha  occ. eigenvalues --   -0.88736  -0.88418  -0.88308  -0.87775  -0.87614
 Alpha  occ. eigenvalues --   -0.87496  -0.87480  -0.86749  -0.86275  -0.84557
 Alpha  occ. eigenvalues --   -0.84340  -0.83827  -0.82997  -0.82913  -0.82365
 Alpha  occ. eigenvalues --   -0.82213  -0.81504  -0.81144  -0.80558  -0.80401
 Alpha  occ. eigenvalues --   -0.80038  -0.78799  -0.78305  -0.77296  -0.77280
 Alpha  occ. eigenvalues --   -0.76875  -0.76857  -0.75944  -0.75874  -0.75247
 Alpha  occ. eigenvalues --   -0.75072  -0.73414  -0.73132  -0.71629  -0.71416
 Alpha  occ. eigenvalues --   -0.69614  -0.69577  -0.68986  -0.68802  -0.67996
 Alpha  occ. eigenvalues --   -0.67758  -0.67300  -0.67109  -0.65798  -0.65357
 Alpha  occ. eigenvalues --   -0.65264  -0.64963  -0.64883  -0.64621  -0.64569
 Alpha  occ. eigenvalues --   -0.64348  -0.62307  -0.61406  -0.60391  -0.60361
 Alpha  occ. eigenvalues --   -0.59966  -0.59652  -0.59330  -0.58957  -0.58543
 Alpha  occ. eigenvalues --   -0.58475  -0.58313  -0.57793  -0.57645  -0.57365
 Alpha  occ. eigenvalues --   -0.56490  -0.56272  -0.56168  -0.55057  -0.54986
 Alpha  occ. eigenvalues --   -0.54639  -0.54636  -0.54324  -0.54016  -0.53498
 Alpha  occ. eigenvalues --   -0.53406  -0.53246  -0.53131  -0.52915  -0.52739
 Alpha  occ. eigenvalues --   -0.52503  -0.52471  -0.52382  -0.52315  -0.52268
 Alpha  occ. eigenvalues --   -0.52094  -0.52062  -0.51686  -0.51606  -0.51291
 Alpha  occ. eigenvalues --   -0.51030  -0.50573  -0.50265  -0.50259  -0.50149
 Alpha  occ. eigenvalues --   -0.49926  -0.49882  -0.49630  -0.49619  -0.49524
 Alpha  occ. eigenvalues --   -0.49436  -0.49299  -0.49222  -0.49107  -0.49096
 Alpha  occ. eigenvalues --   -0.48926  -0.48580  -0.48394  -0.48359  -0.48158
 Alpha  occ. eigenvalues --   -0.48109  -0.47739  -0.47667  -0.47511  -0.47294
 Alpha  occ. eigenvalues --   -0.47228  -0.47153  -0.46944  -0.46842  -0.46720
 Alpha  occ. eigenvalues --   -0.46465  -0.46339  -0.45987  -0.45784  -0.45503
 Alpha  occ. eigenvalues --   -0.45388  -0.45114  -0.45085  -0.45061  -0.44890
 Alpha  occ. eigenvalues --   -0.44700  -0.44551  -0.44548  -0.44338  -0.44267
 Alpha  occ. eigenvalues --   -0.44102  -0.43905  -0.43860  -0.43598  -0.43457
 Alpha  occ. eigenvalues --   -0.43385  -0.43203  -0.43031  -0.42896  -0.42642
 Alpha  occ. eigenvalues --   -0.42627  -0.42490  -0.42487  -0.42011  -0.41958
 Alpha  occ. eigenvalues --   -0.41850  -0.41551  -0.41508  -0.41473  -0.41315
 Alpha  occ. eigenvalues --   -0.41286  -0.41076  -0.40952  -0.40829  -0.40448
 Alpha  occ. eigenvalues --   -0.40275  -0.39875  -0.39441  -0.39162  -0.38847
 Alpha  occ. eigenvalues --   -0.38636  -0.38161  -0.37791  -0.37701  -0.37243
 Alpha  occ. eigenvalues --   -0.37153  -0.36997  -0.36500  -0.36320  -0.36173
 Alpha  occ. eigenvalues --   -0.36146  -0.35793  -0.34386  -0.34198  -0.33864
 Alpha  occ. eigenvalues --   -0.33846  -0.33524  -0.33096  -0.31672  -0.31411
 Alpha  occ. eigenvalues --   -0.31086  -0.30750  -0.30521  -0.30496  -0.30025
 Alpha  occ. eigenvalues --   -0.29787  -0.29731  -0.29494  -0.24200  -0.24088
 Alpha  occ. eigenvalues --   -0.21557  -0.21444
 Alpha virt. eigenvalues --   -0.09068  -0.09064  -0.01666  -0.01392   0.00200
 Alpha virt. eigenvalues --    0.00521   0.02386   0.02515   0.03202   0.03732
 Alpha virt. eigenvalues --    0.04698   0.05196   0.05675   0.05703   0.06117

 Mulliken charges:
               1
     1  Mg  11.999958
     2  C    6.001092
     3  C    5.999744
     4  C    5.999193
     5  C    6.000110
     6  N    7.000501
     7  C    5.998781
     8  C    6.000376
     9  C    5.999613
    10  C    6.000857
    11  C    5.999823
    12  C    6.000071
    13  C    6.000001
    14  H    0.999903
    15  N    6.999546
    16  C    6.001297
    17  C    6.000551
    18  C    6.000626
    19  C    6.001055
    20  C    5.999800
    21  C    6.000265
    22  O    8.000951
    23  C    5.999920
    24  N    6.999756
    25  C    6.001007
    26  C    5.999898
    27  C    6.000139
    28  C    5.999318
    29  C    5.999916
    30  C    6.000124
    31  C    5.999972
    32  N    7.000049
    33  C    5.998883
    34  C    5.999262
    35  C    5.999765
    36  C    5.998931
    37  C    6.000036
    38  C    5.999572
    39  O    7.998890
    40  C    5.999657
    41  C    5.999878
    42  O    7.999920
    43  O    7.999910
    44  C    6.000078
    45  H    1.000469
    46  H    1.000094
    47  H    0.999565
    48  H    1.000082
    49  H    1.000125
    50  H    1.000488
    51  H    0.999978
    52  H    1.000158
    53  H    0.999688
    54  H    1.000212
    55  H    0.999903
    56  H    1.000083
    57  H    1.000643
    58  H    1.000576
    59  H    1.000560
    60  H    1.000294
    61  H    1.000484
    62  H    1.000138
    63  H    0.999911
    64  H    1.000039
    65  H    1.000281
    66  H    1.000029
    67  H    0.999849
    68  H    1.000148
    69  H    0.999678
    70  H    1.000032
    71  H    0.999840
    72  H    0.999857
    73  H    0.999439
    74  H    0.999457
    75  H    0.999496
    76  H    0.999762
    77  H    0.999956
    78  H    0.999858
    79  H    0.999832
    80  Mg  12.002643
    81  C    5.980356
    82  C    6.022088
    83  C    6.027010
    84  C    5.987462
    85  N    6.994029
    86  C    6.029281
    87  C    5.992222
    88  C    6.016967
    89  C    5.966324
    90  C    6.003304
    91  C    5.998878
    92  C    5.998518
    93  H    1.005192
    94  N    7.008868
    95  C    5.955062
    96  C    5.983047
    97  C    5.981494
    98  C    5.959268
    99  C    6.003830
   100  C    5.986247
   101  O    7.968162
   102  C    6.006315
   103  N    7.000673
   104  C    5.957717
   105  C    6.016906
   106  C    5.988975
   107  C    6.029589
   108  C    5.999377
   109  C    5.994454
   110  C    5.996792
   111  N    6.995717
   112  C    6.041262
   113  C    6.027424
   114  C    6.003339
   115  C    6.037682
   116  C    5.994178
   117  C    6.016426
   118  O    8.033250
   119  C    6.004100
   120  C    6.004293
   121  O    8.007255
   122  O    8.001143
   123  C    5.996746
   124  H    0.990571
   125  H    0.994375
   126  H    1.011324
   127  H    0.997682
   128  H    0.991489
   129  H    0.984768
   130  H    1.004011
   131  H    0.997926
   132  H    1.009345
   133  H    0.992673
   134  H    0.993570
   135  H    1.005240
   136  H    0.981400
   137  H    0.980099
   138  H    0.983563
   139  H    0.984204
   140  H    0.988601
   141  H    0.994429
   142  H    0.995693
   143  H    1.002198
   144  H    1.003737
   145  H    0.987633
   146  H    0.998574
   147  H    1.011292
   148  H    0.997641
   149  H    0.999517
   150  H    0.999615
   151  H    1.011373
   152  H    1.021357
   153  H    1.024122
   154  H    1.015171
   155  H    1.009607
   156  H    1.007968
   157  H    1.003626
   158  H    1.001742
 Sum of Mulliken charges = 624.00000

 Dipole moment (field-independent basis, Debye):
    X=             -5.9661    Y=              3.0403    Z=             -9.2903  Tot=             11.4520
 Quadrupole moment (field-independent basis, Debye-Ang):
   XX=           -218.1213   YY=             -1.8229   ZZ=             -2.2437
   XY=             67.3797   XZ=           -195.2574   YZ=              5.7384

 Normal termination of Gaussian 16 at Thu Sep 23 06:54:29 2021.
