 Gaussian 16, Revision A.03,
 Gaussian 16:  ES64L-G16RevA.03 25-Dec-2016

 ----------------------------------------------------------
 #p cam-b3lyp/Def2SVP td=(nstates=5) density=(transition=1)
 ----------------------------------------------------------

 --------------------------------
 TDDFT excited states in gaussian
 --------------------------------
 Symbolic Z-matrix:
 Charge =  0 Multiplicity = 1

                         Standard orientation:
 ---------------------------------------------------------------------
 Center     Atomic      Atomic             Coordinates (Angstroms)
 Number     Number       Type             X           Y           Z
 ---------------------------------------------------------------------
      1         12           0      -25.400560    0.767402    0.409973
      2          6           0      -25.911947   -2.283831   -1.314112
      3          6           0      -25.414980   -1.157307    3.327829
      4          6           0      -24.814956    3.484827    2.157028
      5          6           0      -26.229052    2.510240   -2.482439
      6          7           0      -25.605618   -1.457104    0.890126
      7          6           0      -25.655446   -2.516869    0.035991
      8          6           0      -25.724320   -3.907179    0.690738
      9          6           0      -25.679650   -3.427944    2.229279
     10          6           0      -25.577679   -1.935934    2.112236
     11          6           0      -26.961981   -3.812434    3.068300
     12          6           0      -24.519957   -4.826064    0.303717
     13          6           0      -24.631676   -6.083904   -0.549012
     14          1           0      -23.756997   -7.301380   -0.280335
     15          7           0      -25.068179    1.139837    2.456887
     16          6           0      -25.185328    0.228777    3.516516
     17          6           0      -25.038191    0.975756    4.745719
     18          6           0      -24.703173    2.291409    4.435164
     19          6           0      -24.797132    2.340969    2.963072
     20          6           0      -25.026080    0.227020    6.034599
     21          6           0      -24.422266    3.501622    5.325199
     22          8           0      -24.166772    4.635544    4.908534
     23          6           0      -24.313305    3.254965    6.778385
     24          7           0      -25.597400    2.738723   -0.029868
     25          6           0      -25.094806    3.718973    0.780230
     26          6           0      -24.890594    5.054931   -0.011554
     27          6           0      -25.432093    4.718541   -1.394912
     28          6           0      -25.857837    3.227098   -1.298650
     29          6           0      -25.525860    6.300439    0.688687
     30          6           0      -24.348717    4.982057   -2.451794
     31          6           0      -24.738964    5.675548   -3.706147
     32          7           0      -26.059528    0.284418   -1.495798
     33          6           0      -26.329378    1.084135   -2.577436
     34          6           0      -26.676439    0.306221   -3.728995
     35          6           0      -26.439867   -1.105603   -3.351589
     36          6           0      -26.053507   -1.026924   -1.955768
     37          6           0      -27.134678    0.863549   -5.087577
     38          6           0      -26.450456   -2.528715   -3.774510
     39          8           0      -26.592719   -3.029020   -4.903147
     40          6           0      -26.099135   -3.328456   -2.452949
     41          6           0      -27.319399   -4.187793   -2.339551
     42          8           0      -28.390334   -3.925328   -1.805715
     43          8           0      -27.084884   -5.387995   -2.794944
     44          6           0      -28.201317   -6.354925   -2.929929
     45          1           0      -25.287590   -1.889360    4.127623
     46          1           0      -24.673840    4.464468    2.617670
     47          1           0      -26.416334    3.074107   -3.398247
     48          1           0      -26.699503   -4.334815    0.454485
     49          1           0      -24.821698   -3.718678    2.836281
     50          1           0      -27.848586   -4.113425    2.510905
     51          1           0      -27.274674   -2.963314    3.675006
     52          1           0      -26.697659   -4.627510    3.742258
     53          1           0      -24.088161   -5.173613    1.242400
     54          1           0      -23.766972   -4.252608   -0.235400
     55          1           0      -24.254782   -5.707439   -1.500085
     56          1           0      -25.700851   -6.289430   -0.495856
     57          1           0      -24.075649    0.330553    6.556292
     58          1           0      -25.198706   -0.837226    5.872365
     59          1           0      -25.784858    0.568173    6.738198
     60          1           0      -23.637447    2.418146    6.955060
     61          1           0      -25.238855    2.869456    7.206224
     62          1           0      -23.908105    4.090726    7.347946
     63          1           0      -23.805894    5.157796    0.014472
     64          1           0      -26.249885    5.384347   -1.670129
     65          1           0      -25.881599    6.111952    1.701509
     66          1           0      -26.382013    6.714649    0.157498
     67          1           0      -24.836514    7.142983    0.635697
     68          1           0      -24.003353    3.975900   -2.685989
     69          1           0      -23.515214    5.593469   -2.106917
     70          1           0      -24.416224    5.003190   -4.500706
     71          1           0      -24.322602    6.682657   -3.725641
     72          1           0      -25.813549    5.756564   -3.871278
     73          1           0      -28.220828    0.947338   -5.087467
     74          1           0      -26.775552    0.193810   -5.868825
     75          1           0      -26.758604    1.870893   -5.267591
     76          1           0      -25.218713   -3.930109   -2.677987
     77          1           0      -28.697059   -6.594122   -1.989755
     78          1           0      -27.923746   -7.291982   -3.412207
     79          1           0      -29.023108   -6.068245   -3.585397
     80         12           0       25.282287    0.467118   -0.397305
     81          6           0       26.448182   -1.888433    1.799882
     82          6           0       24.007498   -1.947528   -2.332186
     83          6           0       24.415488    2.885313   -2.579998
     84          6           0       27.131473    2.981969    1.466913
     85          7           0       25.487359   -1.739604   -0.383056
     86          6           0       25.893501   -2.488687    0.649167
     87          6           0       25.621632   -4.053279    0.359631
     88          6           0       24.822576   -3.942356   -0.992474
     89          6           0       24.782217   -2.435648   -1.318041
     90          6           0       25.368241   -4.851305   -2.110960
     91          6           0       24.834830   -4.773658    1.491138
     92          6           0       24.201331   -6.169219    1.181294
     93          1           0       24.933604   -7.446487    1.743125
     94          7           0       24.373653    0.460070   -2.249141
     95          6           0       23.835238   -0.593399   -2.827313
     96          6           0       23.183390   -0.166329   -4.056090
     97          6           0       23.365717    1.237211   -4.240758
     98          6           0       24.074508    1.589844   -2.990947
     99          6           0       22.554693   -1.088219   -5.087841
    100          6           0       22.993405    2.144996   -5.408400
    101          8           0       23.484697    3.264265   -5.521965
    102          6           0       22.020618    1.647572   -6.419532
    103          7           0       25.758889    2.628901   -0.551879
    104          6           0       25.237924    3.384333   -1.511429
    105          6           0       25.501312    4.880884   -1.275925
    106          6           0       26.162382    4.841579    0.099410
    107          6           0       26.389872    3.393655    0.326340
    108          6           0       26.292721    5.650895   -2.343546
    109          6           0       25.454696    5.663001    1.147169
    110          6           0       26.262193    6.870150    1.744469
    111          7           0       26.462305    0.575736    1.268619
    112          6           0       27.085270    1.659227    1.974275
    113          6           0       27.680576    1.203490    3.211194
    114          6           0       27.409032   -0.191247    3.140677
    115          6           0       26.700861   -0.498297    1.972006
    116          6           0       28.266107    1.947312    4.359318
    117          6           0       27.477731   -1.350860    3.993609
    118          8           0       27.770874   -1.532621    5.184778
    119          6           0       27.003325   -2.529237    3.180450
    120          6           0       28.227689   -3.402589    2.828209
    121          8           0       29.348107   -3.021177    2.456433
    122          8           0       27.862211   -4.706018    2.989586
    123          6           0       28.900069   -5.756253    2.740985
    124          1           0       23.444754   -2.621836   -2.981113
    125          1           0       24.355114    3.690730   -3.314925
    126          1           0       27.545374    3.809639    2.045685
    127          1           0       26.618657   -4.462865    0.201622
    128          1           0       23.789604   -4.221325   -0.784633
    129          1           0       24.505413   -5.302953   -2.599282
    130          1           0       25.966952   -5.671424   -1.714512
    131          1           0       25.958532   -4.277661   -2.825620
    132          1           0       23.948132   -4.160425    1.651721
    133          1           0       25.476481   -4.910980    2.361424
    134          1           0       24.275458   -6.315165    0.103165
    135          1           0       23.189241   -6.189271    1.584018
    136          1           0       22.617132   -2.131746   -4.779290
    137          1           0       23.073261   -0.978076   -6.039926
    138          1           0       21.506731   -0.847655   -5.262179
    139          1           0       21.180424    1.264020   -5.840008
    140          1           0       22.261442    0.869443   -7.143201
    141          1           0       21.666613    2.432704   -7.086755
    142          1           0       24.533881    5.375655   -1.197091
    143          1           0       27.143768    5.304315   -0.003275
    144          1           0       25.793020    6.618002   -2.393479
    145          1           0       26.319254    5.092685   -3.279274
    146          1           0       27.359140    5.739539   -2.136433
    147          1           0       25.336192    4.968659    1.978395
    148          1           0       24.504027    6.075724    0.810781
    149          1           0       27.258607    6.906424    1.303273
    150          1           0       26.372214    6.685985    2.813592
    151          1           0       25.763529    7.838158    1.693480
    152          1           0       28.084557    3.015755    4.245849
    153          1           0       29.344127    1.834192    4.250472
    154          1           0       27.780533    1.524558    5.240048
    155          1           0       26.310177   -3.047437    3.843379
    156          1           0       29.478133   -5.629709    1.825274
    157          1           0       28.523154   -6.777963    2.773470
    158          1           0       29.631149   -5.631868    3.539646
 ---------------------------------------------------------------------

 SCF Done:  E(RCAM-B3LYP) =  -4069.80726162     A.U. after   19 cycles

 Excitation energies and oscillator strengths:

 Excited State   1:      Singlet-A      1.7216 eV  720.19 nm  f=0.3987  <S**2>=0.000
     310 -> 316       -0.17580
     312 -> 313        0.68383
     310 <- 316       -0.10320
 This state for optimization and/or second-order correction.
 Total Energy, E(TD-HF/TD-DFT) =  -4069.74399551
 Copying the excited state density for this state as the 1-particle RhoCI density.

 Excited State   2:      Singlet-A      1.7572 eV  705.57 nm  f=0.3844  <S**2>=0.000
     309 -> 315        0.18343
     311 -> 314        0.68374
     309 <- 315        0.10474

 Excited State   3:      Singlet-A      2.2202 eV  558.43 nm  f=0.1056  <S**2>=0.000
     309 -> 314        0.63626
     311 -> 315       -0.29385

 Excited State   4:      Singlet-A      2.2690 eV  546.42 nm  f=0.1129  <S**2>=0.000
     310 -> 313        0.63910
     312 -> 316        0.28652

 Excited State   5:      Singlet-A      3.2381 eV  382.89 nm  f=0.0000  <S**2>=0.000
     312 -> 314        0.70711

 The electronic state is 1-A.
 Alpha  occ. eigenvalues --  -46.89193 -46.88546 -19.25628 -19.25323 -19.19601
 Alpha  occ. eigenvalues --  -19.19542 -19.19456 -19.18891 -19.18206 -19.17681
 Alpha  occ. eigenvalues --  -14.42602 -14.42073 -14.41922 -14.41735 -14.40092
 Alpha  occ. eigenvalues --  -14.39842 -14.39282 -14.39005 -10.39558 -10.38665
 Alpha  occ. eigenvalues --  -10.36101 -10.35994 -10.35460 -10.33347 -10.32185
 Alpha  occ. eigenvalues --  -10.31963 -10.31686 -10.31654 -10.31423 -10.31130
 Alpha  occ. eigenvalues --  -10.30973 -10.30932 -10.30762 -10.30543 -10.30494
 Alpha  occ. eigenvalues --  -10.30388 -10.30315 -10.30025 -10.29990 -10.29446
 Alpha  occ. eigenvalues --  -10.29356 -10.29055 -10.28878 -10.28809 -10.28786
 Alpha  occ. eigenvalues --  -10.28754 -10.28642 -10.28586 -10.28418 -10.28390
 Alpha  occ. eigenvalues --  -10.28103 -10.28069 -10.28056 -10.28049 -10.27994
 Alpha  occ. eigenvalues --  -10.27971 -10.27897 -10.27776 -10.27729 -10.27544
 Alpha  occ. eigenvalues --  -10.27538 -10.27497 -10.27077 -10.27031 -10.27029
 Alpha  occ. eigenvalues --  -10.27001 -10.26758 -10.26712 -10.26540 -10.26530
 Alpha  occ. eigenvalues --  -10.26519 -10.26498 -10.26424 -10.26262 -10.26249
 Alpha  occ. eigenvalues --  -10.26231 -10.26185 -10.25873 -10.25843 -10.25718
 Alpha  occ. eigenvalues --  -10.25708 -10.25667 -10.25660 -10.25243 -10.24881
 Alpha  occ. eigenvalues --  -10.24403  -3.17718  -3.17142  -1.92609  -1.92166
 Alpha  occ. eigenvalues --   -1.92043  -1.92031  -1.91599  -1.91446  -1.17815
 Alpha  occ. eigenvalues --   -1.15563  -1.10392  -1.10103  -1.08407  -1.07971
 Alpha  occ. eigenvalues --   -1.06542  -1.06506  -1.05733  -1.05493  -1.04389
 Alpha  occ. eigenvalues --   -1.04028  -1.03880  -1.02960  -1.02797  -1.01380
 Alpha  occ. eigenvalues --   -0.91864  -0.91274  -0.89924  -0.89596  -0.89062
 Alpha  occ. eigenvalues --   -0.88812  -0.88733  -0.88175  -0.87738  -0.87556
 Alpha  occ. eigenvalues --   -0.87160  -0.87006  -0.86778  -0.85129  -0.84358
 Alpha  occ. eigenvalues --   -0.84194  -0.83499  -0.83338  -0.82896  -0.82716
 Alpha  occ. eigenvalues --   -0.82363  -0.82170  -0.81112  -0.80848  -0.80536
 Alpha  occ. eigenvalues --   -0.80044  -0.78795  -0.78540  -0.77561  -0.77516
 Alpha  occ. eigenvalues --   -0.76893  -0.76744  -0.76210  -0.76102  -0.75355
 Alpha  occ. eigenvalues --   -0.75178  -0.72638  -0.72247  -0.71835  -0.71689
 Alpha  occ. eigenvalues --   -0.69448  -0.69245  -0.69115  -0.68221  -0.67714
 Alpha  occ. eigenvalues --   -0.67631  -0.67580  -0.66948  -0.65892  -0.65850
 Alpha  occ. eigenvalues --   -0.65302  -0.64893  -0.64884  -0.64466  -0.64222
 Alpha  occ. eigenvalues --   -0.63948  -0.62640  -0.62422  -0.60967  -0.60734
 Alpha  occ. eigenvalues --   -0.59661  -0.59531  -0.59002  -0.58885  -0.58643
 Alpha  occ. eigenvalues --   -0.58516  -0.57992  -0.57868  -0.57660  -0.57443
 Alpha  occ. eigenvalues --   -0.56718  -0.56314  -0.55664  -0.55659  -0.55148
 Alpha  occ. eigenvalues --   -0.54992  -0.54544  -0.54327  -0.54199  -0.54197
 Alpha  occ. eigenvalues --   -0.53860  -0.53746  -0.53575  -0.53405  -0.52939
 Alpha  occ. eigenvalues --   -0.52804  -0.52660  -0.52585  -0.52578  -0.52170
 Alpha  occ. eigenvalues --   -0.52158  -0.51688  -0.51442  -0.51193  -0.51119
 Alpha  occ. eigenvalues --   -0.50711  -0.50598  -0.50487  -0.50467  -0.50045
 Alpha  occ. eigenvalues --   -0.49973  -0.49902  -0.49794  -0.49760  -0.49697
 Alpha  occ. eigenvalues --   -0.49432  -0.49371  -0.49081  -0.49046  -0.48973
 Alpha  occ. eigenvalues --   -0.48730  -0.48574  -0.48517  -0.48209  -0.48171
 Alpha  occ. eigenvalues --   -0.48052  -0.47826  -0.47798  -0.47662  -0.47451
 Alpha  occ. eigenvalues --   -0.47306  -0.46792  -0.46652  -0.46388  -0.46338
 Alpha  occ. eigenvalues --   -0.46145  -0.46107  -0.45973  -0.45856  -0.45600
 Alpha  occ. eigenvalues --   -0.45470  -0.45190  -0.45046  -0.44989  -0.44701
 Alpha  occ. eigenvalues --   -0.44675  -0.44523  -0.44411  -0.44377  -0.44278
 Alpha  occ. eigenvalues --   -0.44134  -0.44038  -0.44013  -0.43868  -0.43598
 Alpha  occ. eigenvalues --   -0.43214  -0.43079  -0.42926  -0.42831  -0.42764
 Alpha  occ. eigenvalues --   -0.42439  -0.42213  -0.42023  -0.41993  -0.41922
 Alpha  occ. eigenvalues --   -0.41842  -0.41665  -0.41534  -0.41427  -0.41253
 Alpha  occ. eigenvalues --   -0.41101  -0.40847  -0.40844  -0.40440  -0.40431
 Alpha  occ. eigenvalues --   -0.40091  -0.39863  -0.39532  -0.39283  -0.39096
 Alpha  occ. eigenvalues --   -0.38463  -0.38272  -0.37942  -0.37874  -0.37258
 Alpha  occ. eigenvalues --   -0.37057  -0.36685  -0.36647  -0.36401  -0.36210
 Alpha  occ. eigenvalues --   -0.35962  -0.35867  -0.34471  -0.34292  -0.34008
 Alpha  occ. eigenvalues --   -0.33462  -0.33364  -0.33111  -0.31973  -0.31939
 Alpha  occ. eigenvalues --   -0.31801  -0.31113  -0.30622  -0.30596  -0.30334
 Alpha  occ. eigenvalues --   -0.29975  -0.29674  -0.28735  -0.23935  -0.23920
 Alpha  occ. eigenvalues --   -0.21200  -0.21112
 Alpha virt. eigenvalues --   -0.08558  -0.08541  -0.01883  -0.01778  -0.00212
 Alpha virt. eigenvalues --    0.00569   0.01888   0.02055   0.02545   0.02671
 Alpha virt. eigenvalues --    0.04894   0.05220   0.05672   0.05747   0.06163

 Mulliken charges:
               1
     1  Mg  11.999963
     2  C    6.000099
     3  C    5.999997
     4  C    5.999808
     5  C    6.000037
     6  N    7.000043
     7  C    5.999848
     8  C    6.000063
     9  C    5.999942
    10  C    6.000141
    11  C    5.999956
    12  C    6.000026
    13  C    6.000016
    14  H    0.999955
    15  N    6.999997
    16  C    6.000200
    17  C    6.000097
    18  C    6.000106
    19  C    6.000172
    20  C    5.999919
    21  C    6.000079
    22  O    8.000138
    23  C    5.999964
    24  N    6.999935
    25  C    6.000230
    26  C    5.999967
    27  C    6.000029
    28  C    5.999905
    29  C    5.999978
    30  C    6.000026
    31  C    6.000000
    32  N    6.999978
    33  C    5.999822
    34  C    5.999843
    35  C    5.999989
    36  C    5.999808
    37  C    6.000037
    38  C    5.999872
    39  O    7.999843
    40  C    6.000024
    41  C    5.999992
    42  O    7.999978
    43  O    7.999989
    44  C    6.000009
    45  H    1.000087
    46  H    1.000025
    47  H    0.999931
    48  H    1.000006
    49  H    1.000000
    50  H    1.000088
    51  H    0.999997
    52  H    1.000059
    53  H    0.999957
    54  H    0.999983
    55  H    1.000003
    56  H    1.000017
    57  H    1.000113
    58  H    1.000101
    59  H    1.000139
    60  H    1.000030
    61  H    1.000064
    62  H    1.000094
    63  H    0.999982
    64  H    0.999999
    65  H    0.999991
    66  H    1.000055
    67  H    1.000011
    68  H    1.000008
    69  H    0.999915
    70  H    0.999992
    71  H    0.999956
    72  H    1.000024
    73  H    0.999898
    74  H    0.999889
    75  H    0.999876
    76  H    0.999932
    77  H    0.999985
    78  H    0.999968
    79  H    1.000002
    80  Mg  11.998813
    81  C    6.021506
    82  C    5.969815
    83  C    5.990756
    84  C    6.015135
    85  N    6.999546
    86  C    5.966298
    87  C    6.007797
    88  C    5.988937
    89  C    6.036957
    90  C    5.998607
    91  C    6.005464
    92  C    5.998668
    93  H    1.000221
    94  N    6.994221
    95  C    6.049392
    96  C    6.018711
    97  C    6.017711
    98  C    6.034353
    99  C    5.995200
   100  C    6.013632
   101  O    8.025178
   102  C    5.992571
   103  N    7.002043
   104  C    6.035320
   105  C    5.987501
   106  C    6.013829
   107  C    5.964536
   108  C    5.997692
   109  C    5.999538
   110  C    6.000407
   111  N    7.003721
   112  C    5.954813
   113  C    5.973849
   114  C    5.989613
   115  C    5.970065
   116  C    6.002775
   117  C    5.985770
   118  O    7.964379
   119  C    6.001777
   120  C    5.994003
   121  O    7.997962
   122  O    7.997943
   123  C    6.001612
   124  H    1.003355
   125  H    1.008463
   126  H    0.987884
   127  H    0.999920
   128  H    1.001593
   129  H    0.998672
   130  H    1.010881
   131  H    0.997778
   132  H    0.996094
   133  H    1.005797
   134  H    0.992780
   135  H    0.997847
   136  H    1.022060
   137  H    1.019550
   138  H    1.020410
   139  H    1.005222
   140  H    1.009799
   141  H    1.015601
   142  H    1.000842
   143  H    1.000093
   144  H    1.005498
   145  H    0.993212
   146  H    1.011320
   147  H    1.006375
   148  H    0.987572
   149  H    0.998033
   150  H    1.003446
   151  H    0.994139
   152  H    0.981385
   153  H    0.981420
   154  H    0.986316
   155  H    0.990540
   156  H    0.994956
   157  H    0.993718
   158  H    0.998793
 Sum of Mulliken charges = 624.00000

 Dipole moment (field-independent basis, Debye):
    X=             -5.3570    Y=              0.5841    Z=             -9.6493  Tot=             11.0520
 Quadrupole moment (field-independent basis, Debye-Ang):
   XX=           -273.2476   YY=             -2.6409   ZZ=             10.0660
   XY=             12.1378   XZ=           -245.3335   YZ=             -5.2781

 Normal termination of Gaussian 16 at Thu Sep 23 08:51:03 2021.
