 Gaussian 16, Revision A.03,
 Gaussian 16:  ES64L-G16RevA.03 25-Dec-2016

 -----------------------------------
 #p cam-b3lyp/Def2SVP td=(nstates=5)
 -----------------------------------

 --------------------------------
 TDDFT excited states in gaussian
 --------------------------------
 Symbolic Z-matrix:
 Charge =  0 Multiplicity = 1

                         Standard orientation:
 ---------------------------------------------------------------------
 Center     Atomic      Atomic             Coordinates (Angstroms)
 Number     Number       Type             X           Y           Z
 ---------------------------------------------------------------------
      1         12           0       21.124821    0.786766   -0.516312
      2          6           0       21.042475   -2.745509    0.474581
      3          6           0       17.947529    0.938380    0.848061
      4          6           0       21.535172    3.945880   -0.369756
      5          6           0       24.559095    0.181206   -1.382816
      6          7           0       19.703869   -0.807848    0.705521
      7          6           0       19.870077   -2.150495    0.966162
      8          6           0       18.665041   -2.665006    1.835609
      9          6           0       17.592806   -1.570597    1.694945
     10          6           0       18.449297   -0.415056    1.050723
     11          6           0       16.327063   -1.861669    0.786069
     12          6           0       19.056468   -3.011810    3.312903
     13          6           0       18.402946   -4.238677    3.911667
     14          1           0       17.213274   -3.992455    4.891778
     15          7           0       19.895597    2.243047    0.018069
     16          6           0       18.600389    2.152520    0.450234
     17          6           0       18.052486    3.515377    0.691515
     18          6           0       19.120063    4.388173    0.355706
     19          6           0       20.255712    3.531483    0.023556
     20          6           0       16.669997    3.872945    1.261240
     21          6           0       19.207535    5.905032    0.547069
     22          8           0       18.197840    6.479721    0.945009
     23          6           0       20.345641    6.689535    0.270557
     24          7           0       22.936000    1.888476   -0.585431
     25          6           0       22.710317    3.240711   -0.749859
     26          6           0       24.068904    3.912722   -1.187986
     27          6           0       25.086251    2.715917   -1.197591
     28          6           0       24.111621    1.514818   -1.148994
     29          6           0       24.029991    4.700458   -2.526262
     30          6           0       26.209557    2.658413   -0.085295
     31          6           0       27.457988    3.538129   -0.271779
     32          7           0       22.574596   -0.888731   -0.544303
     33          6           0       23.859522   -0.977434   -1.041368
     34          6           0       24.328195   -2.341473   -1.080792
     35          6           0       23.231719   -3.083119   -0.501066
     36          6           0       22.172346   -2.188943   -0.116603
     37          6           0       25.692855   -2.749554   -1.543556
     38          6           0       22.849261   -4.360174   -0.092208
     39          8           0       23.485449   -5.402039   -0.008882
     40          6           0       21.498864   -4.206147    0.665695
     41          6           0       20.555645   -5.147595   -0.046195
     42          8           0       19.840622   -5.964476    0.539499
     43          8           0       20.410358   -4.924516   -1.474531
     44          6           0       19.241695   -5.605587   -2.029410
     45          1           0       16.917661    1.000118    1.204469
     46          1           0       21.764237    4.999414   -0.543083
     47          1           0       25.584122    0.145227   -1.757391
     48          1           0       18.201725   -3.506127    1.317928
     49          1           0       17.276974   -1.185587    2.664536
     50          1           0       15.512384   -2.016031    1.493266
     51          1           0       16.445978   -2.791957    0.231376
     52          1           0       16.102912   -1.105136    0.034133
     53          1           0       18.751046   -2.269387    4.050657
     54          1           0       20.128901   -3.193047    3.387762
     55          1           0       19.200052   -4.839652    4.349371
     56          1           0       17.986104   -4.821369    3.089579
     57          1           0       16.267260    4.739042    0.735420
     58          1           0       16.860807    4.036810    2.321761
     59          1           0       15.956505    3.067946    1.090483
     60          1           0       20.515330    6.668309   -0.806417
     61          1           0       21.233588    6.428383    0.846359
     62          1           0       20.035799    7.649056    0.686001
     63          1           0       24.453167    4.634282   -0.467798
     64          1           0       25.573978    2.617653   -2.167117
     65          1           0       24.794932    4.237863   -3.150092
     66          1           0       24.293021    5.737335   -2.319307
     67          1           0       23.003570    4.565353   -2.869491
     68          1           0       26.508646    1.609741   -0.086268
     69          1           0       25.823041    2.994940    0.876937
     70          1           0       27.259032    3.960834   -1.257001
     71          1           0       28.353999    2.929818   -0.403173
     72          1           0       27.625545    4.325493    0.462727
     73          1           0       26.386423   -2.190462   -0.916854
     74          1           0       25.926989   -2.416533   -2.554525
     75          1           0       25.926598   -3.788845   -1.312297
     76          1           0       21.660456   -4.581702    1.675931
     77          1           0       19.113442   -4.925598   -2.872442
     78          1           0       18.452224   -5.738074   -1.289655
     79          1           0       19.605499   -6.546321   -2.442834
     80         12           0      -21.758189    0.453457   -0.384723
     81          6           0      -18.835002   -1.487139   -0.097490
     82          6           0      -23.534372   -2.477821    0.204000
     83          6           0      -24.564517    2.236301   -0.190931
     84          6           0      -19.781355    3.283180   -0.026684
     85          7           0      -21.164848   -1.704939    0.170813
     86          6           0      -19.934011   -2.329159    0.113528
     87          6           0      -19.975138   -3.841433    0.047434
     88          6           0      -21.487975   -4.157980    0.120618
     89          6           0      -22.131243   -2.734002    0.185593
     90          6           0      -22.033218   -5.022251   -1.087812
     91          6           0      -19.174699   -4.625374    1.180957
     92          6           0      -19.065496   -3.972863    2.568728
     93          1           0      -19.957353   -4.528101    3.718459
     94          7           0      -23.725298   -0.047195   -0.056807
     95          6           0      -24.261764   -1.293308    0.101737
     96          6           0      -25.727618   -1.204039    0.159014
     97          6           0      -26.053857    0.181672    0.040334
     98          6           0      -24.726844    0.862115   -0.067354
     99          6           0      -26.642440   -2.415292    0.295900
    100          6           0      -27.557970    0.628642    0.166762
    101          8           0      -28.393935   -0.233400    0.399351
    102          6           0      -27.945044    2.165068    0.085445
    103          7           0      -22.101314    2.423429   -0.021604
    104          6           0      -23.371038    2.982679   -0.146040
    105          6           0      -23.290920    4.611315   -0.086407
    106          6           0      -21.694389    4.817656    0.125105
    107          6           0      -21.174709    3.420798    0.009976
    108          6           0      -23.853546    5.287389   -1.371293
    109          6           0      -21.273280    5.487399    1.502912
    110          6           0      -20.336832    6.705459    1.482924
    111          7           0      -19.695878    0.882245   -0.236005
    112          6           0      -19.010437    2.060265   -0.084048
    113          6           0      -17.568668    1.753392    0.025866
    114          6           0      -17.478332    0.341077   -0.099157
    115          6           0      -18.820736   -0.118474   -0.205954
    116          6           0      -16.436730    2.718653    0.244542
    117          6           0      -16.510179   -0.770706   -0.049631
    118          8           0      -15.271233   -0.808577   -0.028666
    119          6           0      -17.381517   -2.001403   -0.252010
    120          6           0      -17.099385   -2.687169   -1.467876
    121          8           0      -17.536229   -2.285169   -2.577322
    122          8           0      -16.328334   -3.844570   -1.241485
    123          6           0      -16.090669   -4.746978   -2.363514
    124          1           0      -24.148180   -3.380582    0.212150
    125          1           0      -25.466891    2.842595   -0.289633
    126          1           0      -19.228618    4.223197    0.022431
    127          1           0      -19.534717   -4.045942   -0.927693
    128          1           0      -21.650863   -4.569227    1.116177
    129          1           0      -22.304415   -6.015346   -0.729710
    130          1           0      -21.218180   -5.072637   -1.810305
    131          1           0      -22.922895   -4.572445   -1.529802
    132          1           0      -18.172247   -4.646398    0.751586
    133          1           0      -19.555034   -5.645136    1.244645
    134          1           0      -19.256175   -2.901053    2.504926
    135          1           0      -18.023916   -4.022325    2.883407
    136          1           0      -27.058167   -2.563647    1.292549
    137          1           0      -26.197139   -3.296966   -0.165203
    138          1           0      -27.504036   -2.324448   -0.365306
    139          1           0      -27.432721    2.572467   -0.786466
    140          1           0      -27.605040    2.634495    1.008174
    141          1           0      -29.014714    2.357782    0.167700
    142          1           0      -23.974909    4.912861    0.706337
    143          1           0      -21.333341    5.386025   -0.732342
    144          1           0      -23.010598    5.474337   -2.036240
    145          1           0      -24.450608    6.173750   -1.156551
    146          1           0      -24.586915    4.684920   -1.907043
    147          1           0      -20.861316    4.689514    2.121618
    148          1           0      -22.241171    5.809698    1.886831
    149          1           0      -19.846700    6.861281    2.444354
    150          1           0      -21.024345    7.519655    1.254878
    151          1           0      -19.619049    6.474968    0.695394
    152          1           0      -16.903174    3.558585    0.758659
    153          1           0      -16.196902    3.026260   -0.773263
    154          1           0      -15.543293    2.293651    0.702920
    155          1           0      -17.110907   -2.599038    0.618172
    156          1           0      -15.496111   -4.367936   -3.194777
    157          1           0      -17.041421   -5.094174   -2.769085
    158          1           0      -15.701682   -5.670974   -1.935391
 ---------------------------------------------------------------------

 SCF Done:  E(RCAM-B3LYP) =  -4069.75094137     A.U. after   18 cycles

 Excitation energies and oscillator strengths:

 Excited State   1:      Singlet-A      1.7179 eV  721.73 nm  f=0.4254  <S**2>=0.000
     310 -> 316        0.17983
     312 -> 314        0.67893
     310 <- 316        0.10693
 This state for optimization and/or second-order correction.
 Total Energy, E(TD-HF/TD-DFT) =  -4069.68781024
 Copying the excited state density for this state as the 1-particle RhoCI density.

 Excited State   2:      Singlet-A      1.7225 eV  719.78 nm  f=0.3052  <S**2>=0.000
     309 -> 315        0.19514
     311 -> 313        0.67326
     309 <- 315        0.10937

 Excited State   3:      Singlet-A      2.2417 eV  553.07 nm  f=0.0692  <S**2>=0.000
     309 -> 313        0.61607
     311 -> 315       -0.33055

 Excited State   4:      Singlet-A      2.3104 eV  536.64 nm  f=0.0713  <S**2>=0.000
     310 -> 314        0.61633
     312 -> 316       -0.33582

 Excited State   5:      Singlet-A      3.0597 eV  405.22 nm  f=0.0000  <S**2>=0.000
     312 -> 313        0.70710

 The electronic state is 1-A.
 Alpha  occ. eigenvalues --  -46.90749 -46.88939 -19.25806 -19.23700 -19.20249
 Alpha  occ. eigenvalues --  -19.20073 -19.19626 -19.19206 -19.18777 -19.17855
 Alpha  occ. eigenvalues --  -14.42702 -14.42650 -14.42095 -14.42003 -14.40798
 Alpha  occ. eigenvalues --  -14.39970 -14.39327 -14.39127 -10.40037 -10.39375
 Alpha  occ. eigenvalues --  -10.36505 -10.35364 -10.34921 -10.33494 -10.32300
 Alpha  occ. eigenvalues --  -10.32129 -10.31892 -10.31871 -10.31574 -10.31514
 Alpha  occ. eigenvalues --  -10.31361 -10.31354 -10.30998 -10.30948 -10.30765
 Alpha  occ. eigenvalues --  -10.30650 -10.30597 -10.30101 -10.29852 -10.29642
 Alpha  occ. eigenvalues --  -10.29383 -10.29312 -10.29225 -10.29012 -10.28900
 Alpha  occ. eigenvalues --  -10.28898 -10.28819 -10.28513 -10.28476 -10.28392
 Alpha  occ. eigenvalues --  -10.28382 -10.28319 -10.28318 -10.28317 -10.28310
 Alpha  occ. eigenvalues --  -10.28306 -10.28202 -10.28052 -10.28044 -10.27774
 Alpha  occ. eigenvalues --  -10.27754 -10.27481 -10.27448 -10.27402 -10.27329
 Alpha  occ. eigenvalues --  -10.27166 -10.27151 -10.26961 -10.26840 -10.26839
 Alpha  occ. eigenvalues --  -10.26807 -10.26789 -10.26744 -10.26671 -10.26641
 Alpha  occ. eigenvalues --  -10.26636 -10.26597 -10.26583 -10.26226 -10.26172
 Alpha  occ. eigenvalues --  -10.26068 -10.25873 -10.25836 -10.25468 -10.25223
 Alpha  occ. eigenvalues --  -10.25186  -3.19160  -3.17565  -1.94005  -1.93667
 Alpha  occ. eigenvalues --   -1.93425  -1.92423  -1.92036  -1.91870  -1.14985
 Alpha  occ. eigenvalues --   -1.13931  -1.10445  -1.10427  -1.09069  -1.08969
 Alpha  occ. eigenvalues --   -1.07036  -1.06333  -1.05020  -1.04159  -1.03559
 Alpha  occ. eigenvalues --   -1.03357  -1.03329  -1.02625  -1.01892  -1.01071
 Alpha  occ. eigenvalues --   -0.93146  -0.92876  -0.89177  -0.88993  -0.88932
 Alpha  occ. eigenvalues --   -0.88859  -0.88499  -0.88061  -0.86982  -0.86917
 Alpha  occ. eigenvalues --   -0.86819  -0.86093  -0.85921  -0.85573  -0.85010
 Alpha  occ. eigenvalues --   -0.84536  -0.83927  -0.83862  -0.83685  -0.82813
 Alpha  occ. eigenvalues --   -0.82521  -0.81674  -0.81143  -0.81021  -0.80095
 Alpha  occ. eigenvalues --   -0.79870  -0.78245  -0.78181  -0.77349  -0.77230
 Alpha  occ. eigenvalues --   -0.77031  -0.76782  -0.76534  -0.75818  -0.75264
 Alpha  occ. eigenvalues --   -0.74915  -0.72830  -0.72345  -0.71915  -0.71762
 Alpha  occ. eigenvalues --   -0.69306  -0.69135  -0.68923  -0.68592  -0.68446
 Alpha  occ. eigenvalues --   -0.67705  -0.67003  -0.66823  -0.65792  -0.65560
 Alpha  occ. eigenvalues --   -0.65369  -0.65199  -0.65041  -0.64591  -0.64213
 Alpha  occ. eigenvalues --   -0.64019  -0.62454  -0.61895  -0.60376  -0.60245
 Alpha  occ. eigenvalues --   -0.59803  -0.59636  -0.59260  -0.59077  -0.58913
 Alpha  occ. eigenvalues --   -0.58665  -0.57752  -0.57196  -0.57156  -0.56991
 Alpha  occ. eigenvalues --   -0.56754  -0.56154  -0.55616  -0.55598  -0.54959
 Alpha  occ. eigenvalues --   -0.54777  -0.54444  -0.54325  -0.54205  -0.53933
 Alpha  occ. eigenvalues --   -0.53777  -0.53777  -0.53542  -0.53291  -0.53097
 Alpha  occ. eigenvalues --   -0.52884  -0.52628  -0.52476  -0.52354  -0.52137
 Alpha  occ. eigenvalues --   -0.51981  -0.51733  -0.51574  -0.51430  -0.51198
 Alpha  occ. eigenvalues --   -0.51014  -0.50958  -0.50720  -0.50615  -0.50312
 Alpha  occ. eigenvalues --   -0.49991  -0.49883  -0.49850  -0.49509  -0.49370
 Alpha  occ. eigenvalues --   -0.49363  -0.49268  -0.49115  -0.48976  -0.48945
 Alpha  occ. eigenvalues --   -0.48633  -0.48584  -0.48383  -0.48357  -0.48151
 Alpha  occ. eigenvalues --   -0.48148  -0.47954  -0.47728  -0.47378  -0.47267
 Alpha  occ. eigenvalues --   -0.47211  -0.46725  -0.46623  -0.46515  -0.46458
 Alpha  occ. eigenvalues --   -0.46250  -0.46171  -0.46134  -0.45893  -0.45780
 Alpha  occ. eigenvalues --   -0.45391  -0.45360  -0.44978  -0.44962  -0.44800
 Alpha  occ. eigenvalues --   -0.44679  -0.44622  -0.44566  -0.44463  -0.44322
 Alpha  occ. eigenvalues --   -0.44191  -0.44110  -0.43933  -0.43795  -0.43584
 Alpha  occ. eigenvalues --   -0.43237  -0.43180  -0.43042  -0.42938  -0.42685
 Alpha  occ. eigenvalues --   -0.42554  -0.42446  -0.42402  -0.42296  -0.42270
 Alpha  occ. eigenvalues --   -0.42106  -0.42053  -0.41924  -0.41572  -0.41481
 Alpha  occ. eigenvalues --   -0.41340  -0.41072  -0.40615  -0.40283  -0.40259
 Alpha  occ. eigenvalues --   -0.40202  -0.39956  -0.39866  -0.39706  -0.39298
 Alpha  occ. eigenvalues --   -0.38912  -0.38850  -0.37854  -0.37652  -0.37520
 Alpha  occ. eigenvalues --   -0.37514  -0.37156  -0.37087  -0.37020  -0.36635
 Alpha  occ. eigenvalues --   -0.36326  -0.35354  -0.34764  -0.34469  -0.34418
 Alpha  occ. eigenvalues --   -0.33850  -0.33205  -0.33187  -0.31740  -0.31419
 Alpha  occ. eigenvalues --   -0.31389  -0.31209  -0.31029  -0.30986  -0.30270
 Alpha  occ. eigenvalues --   -0.30145  -0.29609  -0.28731  -0.24458  -0.24148
 Alpha  occ. eigenvalues --   -0.21446  -0.20836
 Alpha virt. eigenvalues --   -0.08778  -0.08191  -0.02691  -0.01812  -0.00354
 Alpha virt. eigenvalues --    0.00271   0.00594   0.01642   0.02047   0.02179
 Alpha virt. eigenvalues --    0.03430   0.04391   0.04831   0.05029   0.05216

 Mulliken charges:
               1
     1  Mg   0.834448
     2  C   -0.008384
     3  C   -0.051058
     4  C   -0.074895
     5  C   -0.087897
     6  N   -0.224661
     7  C   -0.070865
     8  C    0.059339
     9  C   -0.071625
    10  C   -0.036569
    11  C    0.062100
    12  C    0.059737
    13  C   -0.072201
    14  H    0.007786
    15  N   -0.409475
    16  C    0.147856
    17  C   -0.174467
    18  C   -0.015341
    19  C    0.192177
    20  C    0.144588
    21  C   -0.033276
    22  O   -0.215686
    23  C    0.089255
    24  N   -0.319237
    25  C    0.023092
    26  C   -0.072988
    27  C   -0.047455
    28  C    0.019176
    29  C    0.084300
    30  C    0.042798
    31  C    0.012941
    32  N   -0.344557
    33  C    0.143201
    34  C   -0.151078
    35  C    0.030892
    36  C    0.129255
    37  C    0.139489
    38  C   -0.006506
    39  O   -0.179841
    40  C   -0.020506
    41  C    0.217689
    42  O   -0.226388
    43  O   -0.390008
    44  C    0.179635
    45  H   -0.026285
    46  H   -0.046937
    47  H   -0.027829
    48  H    0.012237
    49  H    0.017835
    50  H    0.026345
    51  H    0.015303
    52  H    0.028908
    53  H    0.025177
    54  H    0.019024
    55  H    0.034356
    56  H    0.030268
    57  H    0.044843
    58  H    0.045441
    59  H    0.009030
    60  H    0.054014
    61  H    0.041920
    62  H    0.028064
    63  H    0.008447
    64  H   -0.003918
    65  H    0.016865
    66  H    0.020055
    67  H    0.021298
    68  H    0.004887
    69  H    0.011209
    70  H   -0.004510
    71  H    0.017466
    72  H    0.028211
    73  H    0.012441
    74  H    0.025021
    75  H    0.037619
    76  H    0.040525
    77  H    0.031533
    78  H    0.052794
    79  H    0.033558
    80  Mg   0.851551
    81  C   -0.100124
    82  C   -0.078323
    83  C   -0.099238
    84  C   -0.088980
    85  N   -0.279400
    86  C   -0.081199
    87  C   -0.019305
    88  C   -0.002825
    89  C   -0.000085
    90  C    0.073891
    91  C    0.027080
    92  C   -0.064903
    93  H    0.020906
    94  N   -0.362120
    95  C    0.140233
    96  C   -0.140674
    97  C   -0.078365
    98  C    0.187274
    99  C    0.142635
   100  C    0.026509
   101  O   -0.197121
   102  C    0.035350
   103  N   -0.347398
   104  C    0.055848
   105  C   -0.054214
   106  C   -0.028380
   107  C    0.061108
   108  C    0.055236
   109  C    0.021394
   110  C    0.018572
   111  N   -0.317890
   112  C    0.107222
   113  C   -0.195300
   114  C   -0.057902
   115  C    0.233673
   116  C    0.136018
   117  C    0.071820
   118  O   -0.182104
   119  C    0.008134
   120  C    0.252086
   121  O   -0.249971
   122  O   -0.351331
   123  C    0.193050
   124  H   -0.033181
   125  H   -0.057976
   126  H   -0.041251
   127  H    0.023632
   128  H    0.018858
   129  H    0.021292
   130  H    0.018757
   131  H    0.026159
   132  H    0.015702
   133  H    0.022994
   134  H    0.041897
   135  H    0.033123
   136  H    0.040419
   137  H    0.001805
   138  H    0.020848
   139  H    0.054657
   140  H    0.038698
   141  H    0.026082
   142  H    0.018367
   143  H    0.011693
   144  H    0.016636
   145  H    0.016004
   146  H    0.011108
   147  H    0.024249
   148  H    0.000209
   149  H    0.028356
   150  H    0.019643
   151  H    0.018963
   152  H    0.013663
   153  H    0.031427
   154  H    0.042846
   155  H    0.030572
   156  H    0.050905
   157  H    0.016634
   158  H    0.033773
 Sum of Mulliken charges =  -0.00000

 Dipole moment (field-independent basis, Debye):
    X=             -1.8920    Y=              5.9934    Z=             -3.0220  Tot=              6.9738
 Quadrupole moment (field-independent basis, Debye-Ang):
   XX=           -442.9551   YY=           -509.9816   ZZ=           -511.9089
   XY=            100.5128   XZ=            -31.4533   YZ=              5.1490

 Normal termination of Gaussian 16 at Thu Sep  2 14:57:12 2021.
