 Gaussian 16, Revision A.03,
 Gaussian 16:  ES64L-G16RevA.03 25-Dec-2016

 -----------------------------------------------------------
 #p cam-b3lyp/Def2SVP td=(nstates=5, root=1) density=current
 -----------------------------------------------------------

 --------------------------------
 TDDFT excited states in gaussian
 --------------------------------
 Symbolic Z-matrix:
 Charge =  0 Multiplicity = 1

                         Standard orientation:
 ---------------------------------------------------------------------
 Center     Atomic      Atomic             Coordinates (Angstroms)
 Number     Number       Type             X           Y           Z
 ---------------------------------------------------------------------
      1         12           0       -0.772797   -0.008693   -0.552231
      2          6           0        2.796740    0.246665    0.259447
      3          6           0       -0.297677   -3.422794   -0.239414
      4          6           0       -3.933533   -0.232550   -0.192365
      5          6           0       -0.801403    3.577332   -0.325558
      6          7           0        1.125488   -1.422807    0.119761
      7          6           0        2.440902   -1.105807    0.379485
      8          6           0        3.212919   -2.404465    0.815660
      9          6           0        2.297282   -3.561971    0.380924
     10          6           0        0.969578   -2.772081    0.069236
     11          6           0        2.711509   -4.422087   -0.884580
     12          6           0        3.613846   -2.420561    2.330548
     13          6           0        4.975287   -2.993899    2.660051
     14          1           0        5.005861   -4.447325    3.228542
     15          7           0       -1.962984   -1.581080   -0.383828
     16          6           0       -1.629795   -2.908290   -0.378610
     17          6           0       -2.862002   -3.737539   -0.279585
     18          6           0       -3.919935   -2.792261   -0.240988
     19          6           0       -3.287584   -1.475476   -0.228703
     20          6           0       -2.944043   -5.267934   -0.157621
     21          6           0       -5.409902   -3.038797    0.012684
     22          8           0       -5.779692   -4.207040    0.093749
     23          6           0       -6.387411   -2.029535    0.126938
     24          7           0       -2.153251    1.511997   -0.022360
     25          6           0       -3.460536    1.108610   -0.208891
     26          6           0       -4.376290    2.393145   -0.182939
     27          6           0       -3.363614    3.562754    0.088963
     28          6           0       -2.021614    2.849627   -0.203257
     29          6           0       -5.255989    2.618872   -1.443178
     30          6           0       -3.395213    4.290456    1.493163
     31          6           0       -4.476618    5.358963    1.730046
     32          7           0        0.639615    1.657009   -0.177460
     33          6           0        0.478956    3.026128   -0.252809
     34          6           0        1.741840    3.720607   -0.184739
     35          6           0        2.695707    2.651414    0.003262
     36          6           0        2.018574    1.383640    0.065491
     37          6           0        1.885315    5.211124   -0.212122
     38          6           0        4.047144    2.398122    0.235149
     39          8           0        4.976444    3.155038    0.481401
     40          6           0        4.175763    0.877491    0.539861
     41          6           0        5.194143    0.376342   -0.457398
     42          8           0        6.161171   -0.323886   -0.147353
     43          8           0        4.879393    0.630366   -1.852899
     44          6           0        5.690992   -0.175727   -2.763418
     45          1           0       -0.163196   -4.505833   -0.219187
     46          1           0       -5.020902   -0.153933   -0.254773
     47          1           0       -0.961950    4.656704   -0.363789
     48          1           0        4.071613   -2.532441    0.155049
     49          1           0        2.049994   -4.218445    1.215178
     50          1           0        3.053079   -5.370551   -0.470574
     51          1           0        3.561212   -3.977594   -1.401969
     52          1           0        1.941012   -4.540810   -1.646311
     53          1           0        2.994105   -3.061320    2.958325
     54          1           0        3.625890   -1.406130    2.729733
     55          1           0        5.474561   -2.271650    3.305973
     56          1           0        5.547048   -3.032857    1.732319
     57          1           0       -3.774789   -5.641578   -0.756836
     58          1           0       -3.047736   -5.437692    0.914012
     59          1           0       -2.051817   -5.741144   -0.565370
     60          1           0       -6.483327   -1.542598   -0.844046
     61          1           0       -6.225476   -1.324444    0.942304
     62          1           0       -7.246742   -2.616181    0.453545
     63          1           0       -5.087857    2.407461    0.641952
     64          1           0       -3.425967    4.329026   -0.683342
     65          1           0       -4.975866    3.605822   -1.811625
     66          1           0       -6.300831    2.617808   -1.134254
     67          1           0       -4.986618    1.784818   -2.092326
     68          1           0       -2.412027    4.758185    1.554329
     69          1           0       -3.584066    3.578642    2.297022
     70          1           0       -4.942239    5.393678    0.744695
     71          1           0       -4.033331    6.346481    1.865863
     72          1           0       -5.216871    5.154218    2.503105
     73          1           0        1.276035    5.572335    0.615332
     74          1           0        1.436127    5.675302   -1.089931
     75          1           0        2.889084    5.546060    0.049623
     76          1           0        4.603099    0.791825    1.538749
     77          1           0        4.972786   -0.163527   -3.584130
     78          1           0        6.009702   -1.114285   -2.310000
     79          1           0        6.523339    0.457506   -3.070776
 ---------------------------------------------------------------------

 SCF Done:  E(RCAM-B3LYP) =  -2034.85415776     A.U. after   17 cycles

 Excitation energies and oscillator strengths:

 Excited State   1:      Singlet-A      1.7224 eV  719.84 nm  f=0.3533  <S**2>=0.000
     155 ->158        -0.19698
     156 ->157         0.67935
     155 <-158        -0.11039
 This state for optimization and/or second-order correction.
 Total Energy, E(TD-HF/TD-DFT) =  -2034.79086145
 Copying the excited state density for this state as the 1-particle RhoCI density.

 Excited State   2:      Singlet-A      2.2417 eV  553.08 nm  f=0.0694  <S**2>=0.000
     155 ->157         0.61605
     156 ->158         0.33060

 Excited State   3:      Singlet-A      3.1899 eV  388.68 nm  f=0.0087  <S**2>=0.000
     153 ->157        -0.11001
     154 ->157         0.63052
     156 ->158        -0.21964

 Excited State   4:      Singlet-A      3.3835 eV  366.43 nm  f=0.0274  <S**2>=0.000
     153 ->157         0.56148
     153 ->159         0.23011
     153 ->160        -0.16240
     153 ->161         0.16632
     154 ->157         0.12139
     156 ->158        -0.15125

 Excited State   5:      Singlet-A      3.4740 eV  356.89 nm  f=0.6876  <S**2>=0.000
     152 ->157        -0.15733
     153 ->157         0.10537
     154 ->157         0.22042
     155 ->157        -0.30602
     156 ->158         0.53106
     156 ->159        -0.12418
     156 ->160        -0.14422
     155 <-157         0.10119

 The electronic state is 1-A.
 Alpha  occ. eigenvalues --  -46.90772 -19.23723 -19.20096 -19.18799 -19.17877
 Alpha  occ. eigenvalues --  -14.42724 -14.42025 -14.40820 -14.39149 -10.39398
 Alpha  occ. eigenvalues --  -10.34943 -10.33516 -10.32321 -10.31894 -10.31597
 Alpha  occ. eigenvalues --  -10.31536 -10.31376 -10.31020 -10.30789 -10.29664
 Alpha  occ. eigenvalues --  -10.29405 -10.29248 -10.28924 -10.28922 -10.28844
 Alpha  occ. eigenvalues --  -10.28536 -10.28412 -10.28333 -10.28331 -10.28225
 Alpha  occ. eigenvalues --  -10.28072 -10.27471 -10.27351 -10.26988 -10.26862
 Alpha  occ. eigenvalues --  -10.26858 -10.26814 -10.26666 -10.26656 -10.26248
 Alpha  occ. eigenvalues --  -10.26192 -10.25853 -10.25245  -3.19182  -1.94027
 Alpha  occ. eigenvalues --   -1.93690  -1.93448  -1.13954  -1.10468  -1.08991
 Alpha  occ. eigenvalues --   -1.06356  -1.05043  -1.03378  -1.03352  -1.01094
 Alpha  occ. eigenvalues --   -0.92898  -0.89016  -0.88955  -0.88520  -0.87004
 Alpha  occ. eigenvalues --   -0.86940  -0.85943  -0.85033  -0.83883  -0.83708
 Alpha  occ. eigenvalues --   -0.82544  -0.81165  -0.79893  -0.78268  -0.77371
 Alpha  occ. eigenvalues --   -0.77055  -0.75842  -0.75286  -0.72852  -0.71937
 Alpha  occ. eigenvalues --   -0.69156  -0.68613  -0.67728  -0.67027  -0.65583
 Alpha  occ. eigenvalues --   -0.65390  -0.65063  -0.64041  -0.61917  -0.60398
 Alpha  occ. eigenvalues --   -0.59826  -0.59283  -0.58935  -0.57178  -0.57013
 Alpha  occ. eigenvalues --   -0.56776  -0.55621  -0.54799  -0.54347  -0.53955
 Alpha  occ. eigenvalues --   -0.53798  -0.53565  -0.53313  -0.52905  -0.52499
 Alpha  occ. eigenvalues --   -0.52004  -0.51756  -0.51453  -0.51036  -0.50635
 Alpha  occ. eigenvalues --   -0.49905  -0.49873  -0.49532  -0.49137  -0.48968
 Alpha  occ. eigenvalues --   -0.48654  -0.48404  -0.48174  -0.47976  -0.47751
 Alpha  occ. eigenvalues --   -0.47291  -0.46747  -0.46540  -0.46157  -0.45916
 Alpha  occ. eigenvalues --   -0.45382  -0.44984  -0.44700  -0.44486  -0.44345
 Alpha  occ. eigenvalues --   -0.44130  -0.43816  -0.43606  -0.43203  -0.42576
 Alpha  occ. eigenvalues --   -0.42467  -0.42320  -0.42076  -0.41947  -0.41504
 Alpha  occ. eigenvalues --   -0.41362  -0.40280  -0.40226  -0.39975  -0.39322
 Alpha  occ. eigenvalues --   -0.38872  -0.37876  -0.37537  -0.37179  -0.36350
 Alpha  occ. eigenvalues --   -0.35377  -0.34492  -0.33872  -0.33209  -0.31763
 Alpha  occ. eigenvalues --   -0.31411  -0.31052  -0.30167  -0.28753  -0.24480
 Alpha  occ. eigenvalues --   -0.21468
 Alpha virt. eigenvalues --   -0.08800  -0.02713  -0.00376   0.00572   0.02157
 Alpha virt. eigenvalues --    0.04368   0.04808   0.05470   0.06930   0.07719
 Alpha virt. eigenvalues --    0.08243   0.08749   0.09118   0.09468   0.10266

 Mulliken charges:
               1
     1  Mg   0.823323
     2  C   -0.024088
     3  C   -0.059938
     4  C   -0.076335
     5  C   -0.097274
     6  N   -0.239892
     7  C   -0.049606
     8  C    0.056047
     9  C   -0.074872
    10  C   -0.023844
    11  C    0.063369
    12  C    0.059304
    13  C   -0.073025
    14  H    0.009746
    15  N   -0.409933
    16  C    0.149520
    17  C   -0.180921
    18  C   -0.014258
    19  C    0.191728
    20  C    0.145504
    21  C   -0.037729
    22  O   -0.220251
    23  C    0.090818
    24  N   -0.330082
    25  C    0.031479
    26  C   -0.074034
    27  C   -0.050647
    28  C    0.036340
    29  C    0.084918
    30  C    0.042193
    31  C    0.012984
    32  N   -0.348465
    33  C    0.150794
    34  C   -0.145983
    35  C    0.030243
    36  C    0.144682
    37  C    0.139890
    38  C   -0.010018
    39  O   -0.182065
    40  C   -0.019020
    41  C    0.217262
    42  O   -0.226932
    43  O   -0.390214
    44  C    0.179657
    45  H   -0.029978
    46  H   -0.047965
    47  H   -0.028003
    48  H    0.016370
    49  H    0.021181
    50  H    0.027076
    51  H    0.014918
    52  H    0.031733
    53  H    0.027452
    54  H    0.020646
    55  H    0.035308
    56  H    0.030872
    57  H    0.042435
    58  H    0.042018
    59  H    0.005941
    60  H    0.051699
    61  H    0.039117
    62  H    0.025904
    63  H    0.011028
    64  H   -0.001326
    65  H    0.016643
    66  H    0.021476
    67  H    0.023237
    68  H    0.006381
    69  H    0.013800
    70  H   -0.003655
    71  H    0.018511
    72  H    0.029740
    73  H    0.013434
    74  H    0.026605
    75  H    0.039672
    76  H    0.039870
    77  H    0.031458
    78  H    0.052351
    79  H    0.033678
 Sum of Mulliken charges =  -0.00000

 Dipole moment (field-independent basis, Debye):
    X=             -4.4504    Y=              0.9675    Z=             -1.8632  Tot=              4.9208
 Quadrupole moment (field-independent basis, Debye-Ang):
   XX=           -290.7189   YY=           -254.5143   ZZ=           -249.9315
   XY=            -45.5787   XZ=             -7.8291   YZ=              1.3720

 Normal termination of Gaussian 16 at Tue Oct 12 15:52:13 2021.
