 Gaussian 16, Revision A.03,
 Gaussian 16:  ES64L-G16RevA.03 25-Dec-2016

 ----------------------------------------------------------
 #p cam-b3lyp/Def2SVP td=(nstates=5) density=(transition=1)
 ----------------------------------------------------------

 --------------------------------
 TDDFT excited states in gaussian
 --------------------------------
 Symbolic Z-matrix:
 Charge =  0 Multiplicity = 1

                         Standard orientation:
 ---------------------------------------------------------------------
 Center     Atomic      Atomic             Coordinates (Angstroms)
 Number     Number       Type             X           Y           Z
 ---------------------------------------------------------------------
      1         12           0       26.173493    0.346454    0.286665
      2          6           0       24.576564   -2.234104   -1.241745
      3          6           0       26.082294    2.350659   -2.520097
      4          6           0       27.967889    2.725485    1.972998
      5          6           0       26.722046   -1.808542    3.140780
      6          7           0       25.600951   -0.010317   -1.695293
      7          6           0       24.711797   -1.075160   -2.063260
      8          6           0       24.071396   -0.802155   -3.365219
      9          6           0       24.912015    0.455060   -3.870171
     10          6           0       25.601475    1.004666   -2.641282
     11          6           0       25.986757    0.082409   -5.009579
     12          6           0       22.516390   -0.691166   -3.318176
     13          6           0       21.791784   -1.418634   -4.404548
     14          1           0       22.446219   -1.353547   -5.840641
     15          7           0       26.859950    2.305769   -0.184960
     16          6           0       26.706677    2.887091   -1.408454
     17          6           0       27.276207    4.188963   -1.337724
     18          6           0       27.776889    4.397710    0.006508
     19          6           0       27.486689    3.119216    0.738013
     20          6           0       27.385821    5.106886   -2.574824
     21          6           0       28.414752    5.565844    0.691299
     22          8           0       28.909085    5.617208    1.823138
     23          6           0       28.403814    6.910281   -0.130160
     24          7           0       27.322395    0.425633    2.283190
     25          6           0       27.858003    1.529564    2.741416
     26          6           0       28.218042    1.431548    4.222430
     27          6           0       27.811157   -0.027276    4.576932
     28          6           0       27.258875   -0.527068    3.243440
     29          6           0       29.771549    1.734099    4.532197
     30          6           0       26.704274    0.013642    5.720767
     31          6           0       25.293594    0.591112    5.446860
     32          7           0       25.887762   -1.675928    0.796110
     33          6           0       26.110656   -2.352203    1.980671
     34          6           0       25.470811   -3.675040    1.830707
     35          6           0       24.837441   -3.729020    0.625523
     36          6           0       25.134723   -2.452979    0.023033
     37          6           0       25.650651   -4.802558    2.787862
     38          6           0       24.021980   -4.525130   -0.291396
     39          8           0       23.578066   -5.657028   -0.195585
     40          6           0       23.843314   -3.557414   -1.542379
     41          6           0       24.489295   -4.215033   -2.696462
     42          8           0       25.663618   -4.612099   -2.792766
     43          8           0       23.485513   -4.297031   -3.640152
     44          6           0       23.931412   -4.754093   -4.962844
     45          1           0       26.027371    3.034973   -3.369130
     46          1           0       28.430660    3.569472    2.490003
     47          1           0       26.809565   -2.446633    4.021905
     48          1           0       24.300599   -1.682502   -3.967020
     49          1           0       24.208777    1.196501   -4.248190
     50          1           0       25.827409   -0.898969   -5.456350
     51          1           0       26.940198   -0.035582   -4.494862
     52          1           0       25.965032    0.949527   -5.668376
     53          1           0       22.221317    0.356176   -3.382895
     54          1           0       22.275951   -1.137600   -2.353403
     55          1           0       20.798921   -1.015048   -4.599220
     56          1           0       21.529652   -2.472489   -4.309854
     57          1           0       26.464528    5.601406   -2.882450
     58          1           0       27.798585    4.433251   -3.325601
     59          1           0       28.012242    5.981597   -2.401273
     60          1           0       29.133809    6.837120   -0.936334
     61          1           0       28.468116    7.736331    0.577847
     62          1           0       27.433487    7.147201   -0.567031
     63          1           0       27.586178    2.124508    4.777486
     64          1           0       28.639146   -0.635614    4.940999
     65          1           0       29.795280    2.721902    4.993791
     66          1           0       30.340639    1.765826    3.602532
     67          1           0       30.318044    1.096959    5.226366
     68          1           0       27.021536    0.480731    6.652974
     69          1           0       26.540946   -1.051979    5.884890
     70          1           0       24.654933   -0.284129    5.566690
     71          1           0       25.213259    1.058489    4.466230
     72          1           0       24.987585    1.363554    6.152365
     73          1           0       24.697764   -5.326193    2.717393
     74          1           0       25.861333   -4.467670    3.803692
     75          1           0       26.326968   -5.517056    2.320442
     76          1           0       22.760850   -3.615745   -1.653155
     77          1           0       22.986633   -4.855364   -5.497706
     78          1           0       24.343986   -5.751178   -4.808855
     79          1           0       24.717541   -4.160463   -5.429889
     80         12           0      -26.198564   -0.546107   -0.379666
     81          6           0      -25.176376    2.749514    0.016627
     82          6           0      -23.063650   -1.594766    0.897511
     83          6           0      -27.487062   -3.544346    0.337612
     84          6           0      -29.455482    0.668279   -0.968237
     85          7           0      -24.412746    0.523296    0.724563
     86          6           0      -24.179616    1.856792    0.488397
     87          6           0      -22.819570    2.267906    0.958328
     88          6           0      -22.056910    0.864565    0.995262
     89          6           0      -23.226151   -0.178200    0.898828
     90          6           0      -20.943450    0.636725   -0.147092
     91          6           0      -22.923139    3.119464    2.326379
     92          6           0      -21.828441    4.033619    2.554786
     93          1           0      -21.118597    3.822474    3.908908
     94          7           0      -25.379770   -2.368650    0.315900
     95          6           0      -24.057484   -2.598753    0.788799
     96          6           0      -23.950395   -4.010159    1.117670
     97          6           0      -25.216691   -4.620492    0.946290
     98          6           0      -26.088975   -3.514008    0.427127
     99          6           0      -22.718108   -4.589361    1.705975
    100          6           0      -25.537189   -6.131177    1.307466
    101          8           0      -24.607911   -6.807003    1.746432
    102          6           0      -26.818211   -6.818449    0.847341
    103          7           0      -28.189877   -1.243197   -0.240508
    104          6           0      -28.406439   -2.568311   -0.042933
    105          6           0      -30.012980   -2.950432    0.023694
    106          6           0      -30.633383   -1.618418   -0.618515
    107          6           0      -29.406288   -0.653542   -0.656243
    108          6           0      -30.451705   -4.220786   -0.798710
    109          6           0      -31.781959   -1.032568    0.204881
    110          6           0      -33.186140   -0.840313   -0.416526
    111          7           0      -27.067867    1.291372   -0.742734
    112          6           0      -28.369037    1.613535   -0.998779
    113          6           0      -28.455453    3.015810   -1.300443
    114          6           0      -27.175417    3.503052   -0.837858
    115          6           0      -26.405884    2.385001   -0.473558
    116          6           0      -29.695006    3.773614   -1.679249
    117          6           0      -26.431320    4.713985   -0.560759
    118          8           0      -26.663581    5.844104   -0.866170
    119          6           0      -25.006871    4.300472   -0.021104
    120          6           0      -23.831173    4.669493   -0.952444
    121          8           0      -23.784579    4.415615   -2.136902
    122          8           0      -22.881546    5.427610   -0.236885
    123          6           0      -21.809998    6.000075   -0.994535
    124          1           0      -22.056523   -1.855201    1.227299
    125          1           0      -27.992010   -4.408904    0.773136
    126          1           0      -30.476730    0.996716   -1.169833
    127          1           0      -22.245503    2.771256    0.179702
    128          1           0      -21.576632    0.768934    1.969731
    129          1           0      -20.011043    0.475536    0.393808
    130          1           0      -20.861826    1.478582   -0.833940
    131          1           0      -21.229940   -0.274603   -0.672775
    132          1           0      -22.907717    2.351580    3.099643
    133          1           0      -23.930654    3.527121    2.239437
    134          1           0      -22.258575    5.033551    2.512531
    135          1           0      -21.059762    3.893835    1.794774
    136          1           0      -21.870899   -3.909905    1.614521
    137          1           0      -22.414171   -5.469912    1.139427
    138          1           0      -22.847802   -4.801661    2.767465
    139          1           0      -27.721666   -6.418834    1.309044
    140          1           0      -26.713624   -7.881830    1.065196
    141          1           0      -26.866518   -6.717455   -0.236954
    142          1           0      -30.213818   -2.986989    1.094057
    143          1           0      -30.902731   -1.698597   -1.671891
    144          1           0      -30.776297   -5.005875   -0.116412
    145          1           0      -29.604561   -4.587147   -1.379800
    146          1           0      -31.271926   -3.904891   -1.444234
    147          1           0      -31.493262   -0.100912    0.690942
    148          1           0      -31.996628   -1.565889    1.130801
    149          1           0      -33.523294    0.181450   -0.593075
    150          1           0      -33.876150   -1.244881    0.324347
    151          1           0      -33.271704   -1.362952   -1.369980
    152          1           0      -29.368462    4.711313   -2.129586
    153          1           0      -30.224651    4.238498   -0.848305
    154          1           0      -30.419235    3.209857   -2.266681
    155          1           0      -24.917501    4.884587    0.895252
    156          1           0      -21.040862    6.058067   -0.223679
    157          1           0      -22.003101    7.040861   -1.253901
    158          1           0      -21.601217    5.406551   -1.883714
 ---------------------------------------------------------------------

 SCF Done:  E(RCAM-B3LYP) =  -4069.77704878     A.U. after   19 cycles

 Excitation energies and oscillator strengths:

 Excited State   1:      Singlet-A      1.6846 eV  736.00 nm  f=0.3766  <S**2>=0.000
     310 -> 316        0.17407
     311 -> 313        0.68804
     310 <- 316        0.10833
 This state for optimization and/or second-order correction.
 Total Energy, E(TD-HF/TD-DFT) =  -4069.71514192
 Copying the excited state density for this state as the 1-particle RhoCI density.

 Excited State   2:      Singlet-A      1.6991 eV  729.70 nm  f=0.3933  <S**2>=0.000
     309 -> 315       -0.18618
     312 -> 314        0.68398
     309 <- 315       -0.10901

 Excited State   3:      Singlet-A      2.2457 eV  552.09 nm  f=0.1076  <S**2>=0.000
     310 -> 313        0.63690
     311 -> 316       -0.29190

 Excited State   4:      Singlet-A      2.2666 eV  547.00 nm  f=0.0453  <S**2>=0.000
     309 -> 314        0.60928
     312 -> 315        0.34928

 Excited State   5:      Singlet-A      3.1346 eV  395.54 nm  f=0.0000  <S**2>=0.000
     312 -> 313        0.70711

 The electronic state is 1-A.
 Alpha  occ. eigenvalues --  -46.89816 -46.89273 -19.25673 -19.25149 -19.20761
 Alpha  occ. eigenvalues --  -19.20278 -19.19710 -19.19575 -19.19521 -19.18274
 Alpha  occ. eigenvalues --  -14.42327 -14.42314 -14.42214 -14.42027 -14.40212
 Alpha  occ. eigenvalues --  -14.39524 -14.39505 -14.39096 -10.40100 -10.39541
 Alpha  occ. eigenvalues --  -10.36394 -10.35727 -10.35430 -10.34035 -10.32003
 Alpha  occ. eigenvalues --  -10.31854 -10.31826 -10.31796 -10.31635 -10.31476
 Alpha  occ. eigenvalues --  -10.31203 -10.30984 -10.30892 -10.30575 -10.30490
 Alpha  occ. eigenvalues --  -10.30357 -10.30198 -10.29917 -10.29668 -10.29611
 Alpha  occ. eigenvalues --  -10.29295 -10.29258 -10.29107 -10.28839 -10.28663
 Alpha  occ. eigenvalues --  -10.28524 -10.28523 -10.28496 -10.28356 -10.28354
 Alpha  occ. eigenvalues --  -10.28237 -10.28181 -10.28152 -10.28150 -10.28132
 Alpha  occ. eigenvalues --  -10.27909 -10.27862 -10.27826 -10.27778 -10.27666
 Alpha  occ. eigenvalues --  -10.27636 -10.27606 -10.27580 -10.27516 -10.27436
 Alpha  occ. eigenvalues --  -10.27400 -10.27372 -10.27054 -10.26879 -10.26712
 Alpha  occ. eigenvalues --  -10.26610 -10.26513 -10.26453 -10.26444 -10.26412
 Alpha  occ. eigenvalues --  -10.26307 -10.26249 -10.25872 -10.25870 -10.25863
 Alpha  occ. eigenvalues --  -10.25711 -10.25592 -10.25513 -10.25474 -10.24753
 Alpha  occ. eigenvalues --  -10.24647  -3.18233  -3.17677  -1.93083  -1.92743
 Alpha  occ. eigenvalues --   -1.92580  -1.92500  -1.92122  -1.91978  -1.16098
 Alpha  occ. eigenvalues --   -1.15985  -1.10811  -1.10305  -1.10220  -1.09627
 Alpha  occ. eigenvalues --   -1.08753  -1.07494  -1.05149  -1.04928  -1.03800
 Alpha  occ. eigenvalues --   -1.02930  -1.02915  -1.02400  -1.01736  -1.01611
 Alpha  occ. eigenvalues --   -0.92399  -0.92260  -0.89231  -0.89123  -0.88816
 Alpha  occ. eigenvalues --   -0.88388  -0.88201  -0.88029  -0.87300  -0.86932
 Alpha  occ. eigenvalues --   -0.86889  -0.86444  -0.86271  -0.85829  -0.84671
 Alpha  occ. eigenvalues --   -0.84108  -0.83396  -0.83385  -0.82716  -0.82440
 Alpha  occ. eigenvalues --   -0.82248  -0.81560  -0.81231  -0.81165  -0.80270
 Alpha  occ. eigenvalues --   -0.79988  -0.78108  -0.77851  -0.77381  -0.77347
 Alpha  occ. eigenvalues --   -0.77225  -0.76781  -0.76142  -0.75827  -0.74999
 Alpha  occ. eigenvalues --   -0.74952  -0.72678  -0.72490  -0.72201  -0.71361
 Alpha  occ. eigenvalues --   -0.69891  -0.69285  -0.69256  -0.68454  -0.68374
 Alpha  occ. eigenvalues --   -0.67471  -0.67456  -0.66523  -0.65935  -0.65257
 Alpha  occ. eigenvalues --   -0.65024  -0.64831  -0.64728  -0.64521  -0.64414
 Alpha  occ. eigenvalues --   -0.64111  -0.62840  -0.62560  -0.60323  -0.59667
 Alpha  occ. eigenvalues --   -0.59495  -0.59442  -0.59010  -0.58940  -0.58800
 Alpha  occ. eigenvalues --   -0.58584  -0.58025  -0.57997  -0.57507  -0.57482
 Alpha  occ. eigenvalues --   -0.56347  -0.55947  -0.55561  -0.55350  -0.55089
 Alpha  occ. eigenvalues --   -0.54983  -0.54901  -0.54852  -0.54444  -0.54023
 Alpha  occ. eigenvalues --   -0.53563  -0.53262  -0.53215  -0.53176  -0.52738
 Alpha  occ. eigenvalues --   -0.52616  -0.52464  -0.52418  -0.52308  -0.52152
 Alpha  occ. eigenvalues --   -0.52108  -0.51965  -0.51753  -0.51658  -0.51525
 Alpha  occ. eigenvalues --   -0.51078  -0.51056  -0.50912  -0.50816  -0.50218
 Alpha  occ. eigenvalues --   -0.50101  -0.49879  -0.49721  -0.49675  -0.49631
 Alpha  occ. eigenvalues --   -0.49357  -0.49234  -0.49165  -0.48941  -0.48778
 Alpha  occ. eigenvalues --   -0.48607  -0.48542  -0.48497  -0.48468  -0.48142
 Alpha  occ. eigenvalues --   -0.48031  -0.47908  -0.47720  -0.47405  -0.47324
 Alpha  occ. eigenvalues --   -0.47261  -0.47043  -0.46967  -0.46868  -0.46767
 Alpha  occ. eigenvalues --   -0.46439  -0.46187  -0.46162  -0.45939  -0.45898
 Alpha  occ. eigenvalues --   -0.45693  -0.45639  -0.45255  -0.45210  -0.44974
 Alpha  occ. eigenvalues --   -0.44795  -0.44781  -0.44556  -0.44528  -0.44091
 Alpha  occ. eigenvalues --   -0.43983  -0.43932  -0.43548  -0.43484  -0.43398
 Alpha  occ. eigenvalues --   -0.43241  -0.43126  -0.43010  -0.42930  -0.42791
 Alpha  occ. eigenvalues --   -0.42727  -0.42697  -0.42512  -0.42329  -0.42211
 Alpha  occ. eigenvalues --   -0.42160  -0.42126  -0.41959  -0.41710  -0.41559
 Alpha  occ. eigenvalues --   -0.41443  -0.41092  -0.40993  -0.40765  -0.40562
 Alpha  occ. eigenvalues --   -0.40479  -0.39819  -0.39814  -0.39538  -0.38668
 Alpha  occ. eigenvalues --   -0.38201  -0.37893  -0.37744  -0.37516  -0.37167
 Alpha  occ. eigenvalues --   -0.37084  -0.36745  -0.36712  -0.36417  -0.36282
 Alpha  occ. eigenvalues --   -0.36246  -0.35623  -0.34805  -0.34689  -0.34278
 Alpha  occ. eigenvalues --   -0.34230  -0.33500  -0.33296  -0.31599  -0.31268
 Alpha  occ. eigenvalues --   -0.31241  -0.31132  -0.31005  -0.30400  -0.30234
 Alpha  occ. eigenvalues --   -0.29985  -0.29903  -0.29189  -0.24432  -0.24332
 Alpha  occ. eigenvalues --   -0.21186  -0.20976
 Alpha virt. eigenvalues --   -0.08799  -0.08507  -0.02377  -0.01664  -0.00263
 Alpha virt. eigenvalues --    0.00375   0.01317   0.01931   0.02147   0.02151
 Alpha virt. eigenvalues --    0.04553   0.04652   0.04712   0.04918   0.05419

 Mulliken charges:
               1
     1  Mg  12.000050
     2  C    6.000681
     3  C    5.999452
     4  C    5.999747
     5  C    6.000420
     6  N    7.000068
     7  C    5.999109
     8  C    6.000306
     9  C    5.999759
    10  C    6.000760
    11  C    5.999967
    12  C    6.000040
    13  C    6.000097
    14  H    0.999836
    15  N    6.999734
    16  C    6.000858
    17  C    6.000425
    18  C    6.000330
    19  C    6.000647
    20  C    5.999943
    21  C    6.000240
    22  O    8.000598
    23  C    5.999891
    24  N    7.000045
    25  C    6.000649
    26  C    5.999765
    27  C    6.000244
    28  C    5.999366
    29  C    5.999976
    30  C    6.000032
    31  C    6.000111
    32  N    7.000134
    33  C    5.999020
    34  C    5.999504
    35  C    5.999911
    36  C    5.999195
    37  C    6.000099
    38  C    5.999620
    39  O    7.999447
    40  C    5.999928
    41  C    5.999946
    42  O    7.999920
    43  O    7.999955
    44  C    6.000052
    45  H    1.000167
    46  H    1.000170
    47  H    0.999805
    48  H    0.999952
    49  H    1.000044
    50  H    1.000281
    51  H    1.000017
    52  H    1.000004
    53  H    0.999760
    54  H    1.000091
    55  H    0.999913
    56  H    1.000034
    57  H    1.000436
    58  H    1.000314
    59  H    1.000309
    60  H    1.000186
    61  H    1.000310
    62  H    1.000164
    63  H    1.000035
    64  H    0.999944
    65  H    0.999984
    66  H    0.999952
    67  H    1.000203
    68  H    0.999807
    69  H    1.000083
    70  H    1.000091
    71  H    0.999821
    72  H    0.999865
    73  H    0.999639
    74  H    0.999607
    75  H    0.999568
    76  H    0.999831
    77  H    0.999896
    78  H    0.999962
    79  H    0.999880
    80  Mg  11.998772
    81  C    6.012393
    82  C    5.971399
    83  C    5.986162
    84  C    6.028780
    85  N    6.990926
    86  C    5.971144
    87  C    6.013983
    88  C    5.987590
    89  C    6.042846
    90  C    5.998546
    91  C    6.001651
    92  C    6.004335
    93  H    0.988513
    94  N    6.989765
    95  C    6.058536
    96  C    6.008825
    97  C    6.022458
    98  C    6.035168
    99  C    5.992682
   100  C    6.012426
   101  O    8.020886
   102  C    5.996073
   103  N    7.014885
   104  C    6.025751
   105  C    5.991174
   106  C    6.008647
   107  C    5.960741
   108  C    5.998621
   109  C    6.002326
   110  C    6.000952
   111  N    7.002784
   112  C    5.950594
   113  C    5.980061
   114  C    5.987816
   115  C    5.972110
   116  C    6.002752
   117  C    5.982744
   118  O    7.968843
   119  C    5.997429
   120  C    5.994480
   121  O    7.994891
   122  O    7.996799
   123  C    6.003208
   124  H    1.008575
   125  H    1.007839
   126  H    0.993228
   127  H    0.997242
   128  H    1.004036
   129  H    1.003228
   130  H    1.014347
   131  H    0.995588
   132  H    0.987536
   133  H    1.009330
   134  H    1.003331
   135  H    0.995842
   136  H    1.019350
   137  H    1.016824
   138  H    1.019002
   139  H    1.012095
   140  H    1.013259
   141  H    1.008393
   142  H    1.002415
   143  H    0.999094
   144  H    0.999853
   145  H    0.995999
   146  H    1.010880
   147  H    1.005133
   148  H    0.990937
   149  H    1.003634
   150  H    0.995740
   151  H    0.996621
   152  H    0.986235
   153  H    0.976937
   154  H    0.981095
   155  H    0.989551
   156  H    0.993551
   157  H    0.996925
   158  H    0.994887
 Sum of Mulliken charges = 624.00000

 Dipole moment (field-independent basis, Debye):
    X=              3.6214    Y=             -9.9726    Z=              2.3122  Tot=             10.8588
 Quadrupole moment (field-independent basis, Debye-Ang):
   XX=           -183.5971   YY=              7.8351   ZZ=             -0.7490
   XY=            268.2256   XZ=            -63.2719   YZ=             -1.9716

 Normal termination of Gaussian 16 at Tue Sep 21 17:28:46 2021.
