 Gaussian 16, Revision A.03,
 Gaussian 16:  ES64L-G16RevA.03 25-Dec-2016

 -----------------------------------
 #p cam-b3lyp/Def2SVP td=(nstates=5)
 -----------------------------------

 --------------------------------
 TDDFT excited states in gaussian
 --------------------------------
 Symbolic Z-matrix:
 Charge =  0 Multiplicity = 1

                         Standard orientation:
 ---------------------------------------------------------------------
 Center     Atomic      Atomic             Coordinates (Angstroms)
 Number     Number       Type             X           Y           Z
 ---------------------------------------------------------------------
      1         12           0       16.339589    0.604548   -0.228079
      2          6           0       15.740675   -2.097196    1.913538
      3          6           0       13.733581    2.299141    1.192374
      4          6           0       16.749344    2.966218   -2.507512
      5          6           0       18.913312   -1.355143   -1.748599
      6          7           0       14.873986    0.099636    1.355857
      7          6           0       14.826505   -1.014703    2.163748
      8          6           0       13.875595   -0.789549    3.324795
      9          6           0       13.070495    0.494951    2.880100
     10          6           0       14.039463    1.035084    1.773706
     11          6           0       11.682056    0.187017    2.334084
     12          6           0       14.674396   -0.778916    4.678930
     13          6           0       13.816132   -0.343461    5.898965
     14          1           0       12.337136   -0.664283    5.839062
     15          7           0       15.416715    2.333397   -0.580049
     16          6           0       14.281303    2.840348    0.039360
     17          6           0       13.848159    4.110014   -0.570165
     18          6           0       14.779036    4.306588   -1.636238
     19          6           0       15.694062    3.168584   -1.607457
     20          6           0       12.719254    4.918196   -0.049454
     21          6           0       14.789262    5.461638   -2.604082
     22          8           0       15.678739    5.581695   -3.491619
     23          6           0       13.779981    6.573193   -2.504721
     24          7           0       17.702986    0.797616   -1.873521
     25          6           0       17.627757    1.891658   -2.631771
     26          6           0       18.615392    1.772850   -3.874584
     27          6           0       19.308664    0.315715   -3.648587
     28          6           0       18.600367   -0.120026   -2.365166
     29          6           0       17.766454    1.901222   -5.205269
     30          6           0       20.877256    0.364815   -3.403110
     31          6           0       21.763262    0.367619   -4.681872
     32          7           0       17.139937   -1.306893   -0.065697
     33          6           0       18.258897   -1.951180   -0.656505
     34          6           0       18.469382   -3.314251    0.001519
     35          6           0       17.469385   -3.450253    0.959129
     36          6           0       16.735993   -2.159073    0.929811
     37          6           0       19.555976   -4.306542   -0.271575
     38          6           0       16.917586   -4.276012    2.007614
     39          8           0       17.219582   -5.398976    2.423721
     40          6           0       15.871785   -3.353001    2.809171
     41          6           0       14.554278   -4.048331    3.065133
     42          8           0       13.636646   -4.057624    2.289799
     43          8           0       14.455279   -4.473925    4.409108
     44          6           0       13.108183   -4.748627    4.931215
     45          1           0       12.853870    2.685736    1.711830
     46          1           0       16.869460    3.741998   -3.266789
     47          1           0       19.610075   -2.045386   -2.228949
     48          1           0       13.210551   -1.650857    3.373267
     49          1           0       12.982182    1.279286    3.632539
     50          1           0       10.991262    0.764420    2.948318
     51          1           0       11.542988   -0.893829    2.336195
     52          1           0       11.501829    0.639704    1.359341
     53          1           0       15.583453   -0.255411    4.384504
     54          1           0       14.998135   -1.808580    4.827109
     55          1           0       13.987055    0.732043    5.946480
     56          1           0       14.220633   -0.831539    6.785563
     57          1           0       12.007379    4.880982   -0.873865
     58          1           0       13.009923    5.927644    0.240226
     59          1           0       12.154798    4.559205    0.812090
     60          1           0       13.919830    7.093199   -1.558013
     61          1           0       12.874376    5.972482   -2.597883
     62          1           0       13.762505    7.287916   -3.327034
     63          1           0       19.294265    2.597156   -3.652617
     64          1           0       18.996116   -0.498064   -4.304320
     65          1           0       16.694215    2.017580   -5.048523
     66          1           0       17.898854    1.007616   -5.815809
     67          1           0       18.094910    2.830897   -5.669005
     68          1           0       21.199111   -0.342302   -2.639119
     69          1           0       21.068159    1.327398   -2.929782
     70          1           0       22.402636    1.247213   -4.615798
     71          1           0       21.110513    0.333375   -5.554233
     72          1           0       22.416091   -0.504291   -4.729344
     73          1           0       20.228237   -4.261476    0.585518
     74          1           0       20.066729   -4.060320   -1.203278
     75          1           0       19.278568   -5.357951   -0.344042
     76          1           0       16.366377   -3.081143    3.741229
     77          1           0       12.854932   -5.733276    4.539140
     78          1           0       12.429030   -3.927564    4.700746
     79          1           0       13.199828   -4.749069    6.017026
     80         12           0      -16.126077    0.489214    0.567289
     81          6           0      -16.337530   -2.505651   -1.397471
     82          6           0      -12.617443    0.334469   -0.084949
     83          6           0      -15.744724    3.714007    1.429926
     84          6           0      -19.531589    0.754783    0.399150
     85          7           0      -14.717451   -0.905625   -0.627982
     86          6           0      -15.017239   -2.049983   -1.307727
     87          6           0      -13.738704   -2.711262   -1.931099
     88          6           0      -12.579343   -1.959479   -1.117773
     89          6           0      -13.339218   -0.729354   -0.647685
     90          6           0      -12.034949   -2.728615    0.064058
     91          6           0      -13.711693   -2.662248   -3.449815
     92          6           0      -13.277470   -3.948002   -4.200353
     93          1           0      -11.795661   -4.098635   -4.782944
     94          7           0      -14.363224    1.866998    0.767309
     95          6           0      -13.013214    1.536666    0.526685
     96          6           0      -12.176158    2.687925    0.885915
     97          6           0      -13.106368    3.683095    1.384009
     98          6           0      -14.436663    3.170031    1.136605
     99          6           0      -10.707597    2.811258    0.726101
    100          6           0      -12.714397    4.986008    2.034586
    101          8           0      -11.546982    5.161969    2.301809
    102          6           0      -13.684530    6.088865    2.390395
    103          7           0      -17.443266    1.965517    0.734135
    104          6           0      -17.032820    3.183683    1.268356
    105          6           0      -18.281119    4.053633    1.433371
    106          6           0      -19.473863    3.036346    1.309161
    107          6           0      -18.764892    1.817977    0.821912
    108          6           0      -18.358851    5.015695    2.675220
    109          6           0      -20.710541    3.454685    0.456001
    110          6           0      -22.056540    3.406419    1.102473
    111          7           0      -17.658048   -0.648162   -0.181102
    112          6           0      -19.027964   -0.462866   -0.114817
    113          6           0      -19.742097   -1.679761   -0.547061
    114          6           0      -18.674785   -2.474148   -1.120593
    115          6           0      -17.483006   -1.786249   -0.872577
    116          6           0      -21.211225   -2.009600   -0.515147
    117          6           0      -18.402219   -3.771165   -1.807225
    118          8           0      -19.154345   -4.603340   -2.227992
    119          6           0      -16.904166   -3.746752   -2.092921
    120          6           0      -16.308395   -4.997088   -1.518078
    121          8           0      -16.314056   -5.147993   -0.315235
    122          8           0      -15.683031   -5.878854   -2.449984
    123          6           0      -14.908261   -7.018991   -1.872830
    124          1           0      -11.533965    0.297235   -0.217097
    125          1           0      -15.796411    4.759263    1.739212
    126          1           0      -20.612800    0.796014    0.544560
    127          1           0      -13.617254   -3.743963   -1.605439
    128          1           0      -11.792232   -1.604546   -1.782933
    129          1           0      -12.720739   -2.601435    0.901368
    130          1           0      -11.029931   -2.352330    0.254474
    131          1           0      -11.935428   -3.811783   -0.013581
    132          1           0      -12.974396   -1.903861   -3.711330
    133          1           0      -14.655440   -2.232280   -3.785225
    134          1           0      -13.988724   -3.999931   -5.025034
    135          1           0      -13.414002   -4.857266   -3.614820
    136          1           0      -10.277030    2.587270    1.701615
    137          1           0      -10.454416    3.856825    0.550361
    138          1           0      -10.185505    2.228522   -0.033752
    139          1           0      -13.230087    7.011938    2.749748
    140          1           0      -14.299161    5.685038    3.195009
    141          1           0      -14.420754    6.410522    1.654705
    142          1           0      -18.171801    4.746219    0.598317
    143          1           0      -19.759139    2.727418    2.314344
    144          1           0      -17.669536    4.692391    3.455696
    145          1           0      -19.385382    5.094825    3.032630
    146          1           0      -18.108254    6.033628    2.377501
    147          1           0      -20.741428    2.836642   -0.441252
    148          1           0      -20.498378    4.445058    0.053418
    149          1           0      -22.612163    2.557522    0.704580
    150          1           0      -22.612013    4.311406    0.856781
    151          1           0      -22.092408    3.305883    2.187019
    152          1           0      -21.371485   -3.086842   -0.554460
    153          1           0      -21.657279   -1.508550   -1.374723
    154          1           0      -21.642865   -1.518137    0.356968
    155          1           0      -16.780164   -3.600368   -3.166011
    156          1           0      -15.601195   -7.805230   -1.572726
    157          1           0      -14.386443   -6.714945   -0.965685
    158          1           0      -14.172318   -7.387693   -2.587097
 ---------------------------------------------------------------------

 SCF Done:  E(RCAM-B3LYP) =  -4069.82233362     A.U. after   17 cycles

 Excitation energies and oscillator strengths:

 Excited State   1:      Singlet-A      1.6714 eV  741.82 nm  f=0.4001  <S**2>=0.000
     309 -> 316        0.16922
     311 -> 313        0.68832
     309 <- 316        0.10653
 This state for optimization and/or second-order correction.
 Total Energy, E(TD-HF/TD-DFT) =  -4069.76091239
 Copying the excited state density for this state as the 1-particle RhoCI density.

 Excited State   2:      Singlet-A      1.7142 eV  723.28 nm  f=0.3838  <S**2>=0.000
     310 -> 315        0.19936
     312 -> 314        0.68002
     310 <- 315        0.11157

 Excited State   3:      Singlet-A      2.2361 eV  554.47 nm  f=0.1279  <S**2>=0.000
     309 -> 313        0.64119
     311 -> 316       -0.28139

 Excited State   4:      Singlet-A      2.2903 eV  541.34 nm  f=0.0345  <S**2>=0.000
     310 -> 314        0.58796
     312 -> 315       -0.38619

 Excited State   5:      Singlet-A      2.8085 eV  441.46 nm  f=0.0000  <S**2>=0.000
     312 -> 313        0.70709

 The electronic state is 1-A.
 Alpha  occ. eigenvalues --  -46.89354 -46.88054 -19.25278 -19.23962 -19.20750
 Alpha  occ. eigenvalues --  -19.20285 -19.19752 -19.19167 -19.18373 -19.18021
 Alpha  occ. eigenvalues --  -14.42788 -14.42134 -14.41745 -14.41543 -14.39935
 Alpha  occ. eigenvalues --  -14.39860 -14.39366 -14.39188 -10.40242 -10.39405
 Alpha  occ. eigenvalues --  -10.35518 -10.35433 -10.35228 -10.34550 -10.32285
 Alpha  occ. eigenvalues --  -10.31745 -10.31415 -10.31324 -10.30898 -10.30738
 Alpha  occ. eigenvalues --  -10.30723 -10.30594 -10.30545 -10.30350 -10.30340
 Alpha  occ. eigenvalues --  -10.30310 -10.30298 -10.30264 -10.30097 -10.29601
 Alpha  occ. eigenvalues --  -10.29518 -10.29460 -10.29244 -10.29209 -10.29133
 Alpha  occ. eigenvalues --  -10.29088 -10.28859 -10.28691 -10.28668 -10.28587
 Alpha  occ. eigenvalues --  -10.28526 -10.28282 -10.28176 -10.28123 -10.28089
 Alpha  occ. eigenvalues --  -10.28017 -10.27819 -10.27721 -10.27690 -10.27630
 Alpha  occ. eigenvalues --  -10.27591 -10.27558 -10.27250 -10.27144 -10.27041
 Alpha  occ. eigenvalues --  -10.26941 -10.26887 -10.26603 -10.26595 -10.26555
 Alpha  occ. eigenvalues --  -10.26554 -10.26518 -10.26427 -10.26415 -10.26343
 Alpha  occ. eigenvalues --  -10.26206 -10.26076 -10.25970 -10.25930 -10.25761
 Alpha  occ. eigenvalues --  -10.25746 -10.25561 -10.25553 -10.25409 -10.25385
 Alpha  occ. eigenvalues --  -10.25134  -3.17923  -3.16736  -1.92772  -1.92384
 Alpha  occ. eigenvalues --   -1.92230  -1.91641  -1.91177  -1.91067  -1.15461
 Alpha  occ. eigenvalues --   -1.15389  -1.11751  -1.10252  -1.09099  -1.07888
 Alpha  occ. eigenvalues --   -1.07788  -1.07760  -1.04624  -1.04312  -1.03607
 Alpha  occ. eigenvalues --   -1.03451  -1.02805  -1.02782  -1.01541  -1.01359
 Alpha  occ. eigenvalues --   -0.92783  -0.91590  -0.89437  -0.88913  -0.88896
 Alpha  occ. eigenvalues --   -0.88559  -0.88486  -0.87812  -0.87643  -0.87547
 Alpha  occ. eigenvalues --   -0.86710  -0.86306  -0.86260  -0.85681  -0.84522
 Alpha  occ. eigenvalues --   -0.84230  -0.83989  -0.82922  -0.82522  -0.82172
 Alpha  occ. eigenvalues --   -0.81915  -0.81877  -0.80739  -0.80584  -0.80232
 Alpha  occ. eigenvalues --   -0.79985  -0.78945  -0.78193  -0.77519  -0.77402
 Alpha  occ. eigenvalues --   -0.76960  -0.76827  -0.76375  -0.75746  -0.75255
 Alpha  occ. eigenvalues --   -0.74528  -0.72676  -0.72051  -0.71810  -0.71453
 Alpha  occ. eigenvalues --   -0.69579  -0.69393  -0.68964  -0.68600  -0.68259
 Alpha  occ. eigenvalues --   -0.67949  -0.67047  -0.66743  -0.65974  -0.65495
 Alpha  occ. eigenvalues --   -0.65124  -0.65112  -0.64570  -0.64348  -0.63926
 Alpha  occ. eigenvalues --   -0.63747  -0.62349  -0.61249  -0.60619  -0.59826
 Alpha  occ. eigenvalues --   -0.59582  -0.59477  -0.59223  -0.59094  -0.58679
 Alpha  occ. eigenvalues --   -0.58357  -0.57780  -0.57679  -0.57495  -0.56756
 Alpha  occ. eigenvalues --   -0.56571  -0.56134  -0.55931  -0.55688  -0.55464
 Alpha  occ. eigenvalues --   -0.54504  -0.54354  -0.54221  -0.53937  -0.53891
 Alpha  occ. eigenvalues --   -0.53663  -0.53392  -0.53228  -0.53108  -0.52987
 Alpha  occ. eigenvalues --   -0.52494  -0.52269  -0.52193  -0.51882  -0.51864
 Alpha  occ. eigenvalues --   -0.51755  -0.51731  -0.51420  -0.51340  -0.51139
 Alpha  occ. eigenvalues --   -0.51135  -0.50953  -0.50812  -0.50465  -0.50464
 Alpha  occ. eigenvalues --   -0.50044  -0.49966  -0.49899  -0.49768  -0.49518
 Alpha  occ. eigenvalues --   -0.49410  -0.49337  -0.49303  -0.49142  -0.48987
 Alpha  occ. eigenvalues --   -0.48866  -0.48742  -0.48624  -0.48486  -0.48214
 Alpha  occ. eigenvalues --   -0.48089  -0.48036  -0.47719  -0.47367  -0.47114
 Alpha  occ. eigenvalues --   -0.47005  -0.46859  -0.46454  -0.46409  -0.46214
 Alpha  occ. eigenvalues --   -0.46162  -0.46083  -0.46056  -0.46002  -0.45857
 Alpha  occ. eigenvalues --   -0.45713  -0.45577  -0.45276  -0.45189  -0.45142
 Alpha  occ. eigenvalues --   -0.44988  -0.44838  -0.44690  -0.44631  -0.44158
 Alpha  occ. eigenvalues --   -0.43973  -0.43804  -0.43643  -0.43476  -0.43449
 Alpha  occ. eigenvalues --   -0.43339  -0.43103  -0.43052  -0.42931  -0.42875
 Alpha  occ. eigenvalues --   -0.42670  -0.42578  -0.42532  -0.42452  -0.42324
 Alpha  occ. eigenvalues --   -0.42082  -0.41949  -0.41588  -0.41496  -0.41266
 Alpha  occ. eigenvalues --   -0.41152  -0.40891  -0.40858  -0.40602  -0.40314
 Alpha  occ. eigenvalues --   -0.40293  -0.40166  -0.39318  -0.39206  -0.39057
 Alpha  occ. eigenvalues --   -0.38494  -0.38478  -0.38204  -0.37968  -0.37729
 Alpha  occ. eigenvalues --   -0.37370  -0.37180  -0.36632  -0.36537  -0.36256
 Alpha  occ. eigenvalues --   -0.35874  -0.35847  -0.35069  -0.34518  -0.34429
 Alpha  occ. eigenvalues --   -0.34125  -0.33214  -0.33157  -0.31630  -0.31296
 Alpha  occ. eigenvalues --   -0.31140  -0.30911  -0.30532  -0.30493  -0.30471
 Alpha  occ. eigenvalues --   -0.30011  -0.29703  -0.28774  -0.24338  -0.23965
 Alpha  occ. eigenvalues --   -0.21156  -0.20408
 Alpha virt. eigenvalues --   -0.09017  -0.07867  -0.02119  -0.01528  -0.00192
 Alpha virt. eigenvalues --    0.00437   0.01215   0.02190   0.02603   0.03280
 Alpha virt. eigenvalues --    0.04373   0.04380   0.04508   0.04977   0.05573

 Mulliken charges:
               1
     1  Mg   0.842053
     2  C   -0.020565
     3  C   -0.090085
     4  C   -0.079632
     5  C   -0.078344
     6  N   -0.250676
     7  C   -0.044729
     8  C   -0.012976
     9  C   -0.082158
    10  C   -0.014517
    11  C    0.091544
    12  C    0.015930
    13  C   -0.044488
    14  H    0.032189
    15  N   -0.411445
    16  C    0.200982
    17  C   -0.143993
    18  C   -0.033968
    19  C    0.153134
    20  C    0.122172
    21  C   -0.007216
    22  O   -0.241937
    23  C    0.080579
    24  N   -0.275373
    25  C    0.019546
    26  C   -0.035742
    27  C    0.002865
    28  C    0.012023
    29  C    0.060821
    30  C    0.002614
    31  C    0.023787
    32  N   -0.368220
    33  C    0.111805
    34  C   -0.177400
    35  C    0.032688
    36  C    0.112094
    37  C    0.110977
    38  C    0.072007
    39  O   -0.179478
    40  C   -0.071609
    41  C    0.225328
    42  O   -0.190698
    43  O   -0.375627
    44  C    0.183818
    45  H   -0.034804
    46  H   -0.005890
    47  H   -0.023988
    48  H    0.008518
    49  H    0.003713
    50  H    0.006506
    51  H    0.036686
    52  H    0.014649
    53  H    0.016666
    54  H    0.015024
    55  H    0.036693
    56  H    0.035916
    57  H    0.032199
    58  H    0.035733
    59  H    0.012077
    60  H    0.044616
    61  H    0.019951
    62  H    0.028116
    63  H    0.024692
    64  H    0.018518
    65  H    0.031733
    66  H    0.016242
    67  H    0.027668
    68  H    0.011356
    69  H   -0.004938
    70  H    0.019968
    71  H    0.018626
    72  H    0.014645
    73  H    0.037861
    74  H    0.005605
    75  H    0.037434
    76  H    0.063007
    77  H    0.049845
    78  H    0.033294
    79  H    0.033979
    80  Mg   0.850179
    81  C   -0.068691
    82  C   -0.046563
    83  C   -0.070146
    84  C   -0.117755
    85  N   -0.248522
    86  C   -0.056103
    87  C   -0.029249
    88  C   -0.067522
    89  C    0.027852
    90  C    0.088685
    91  C    0.079537
    92  C   -0.054283
    93  H    0.008750
    94  N   -0.346020
    95  C    0.095246
    96  C   -0.125979
    97  C   -0.029174
    98  C    0.139804
    99  C    0.130564
   100  C   -0.009084
   101  O   -0.204599
   102  C    0.048544
   103  N   -0.372412
   104  C    0.069183
   105  C   -0.081020
   106  C    0.022183
   107  C    0.057932
   108  C    0.063543
   109  C    0.049681
   110  C    0.008694
   111  N   -0.354588
   112  C    0.126950
   113  C   -0.180946
   114  C   -0.063965
   115  C    0.147749
   116  C    0.135422
   117  C    0.053092
   118  O   -0.136202
   119  C    0.059760
   120  C    0.212888
   121  O   -0.206838
   122  O   -0.375219
   123  C    0.175390
   124  H   -0.030963
   125  H   -0.056724
   126  H   -0.037277
   127  H    0.003997
   128  H    0.001838
   129  H    0.021980
   130  H    0.020276
   131  H    0.014435
   132  H    0.012511
   133  H    0.016704
   134  H    0.032701
   135  H    0.027215
   136  H    0.030696
   137  H    0.030716
   138  H    0.014409
   139  H    0.023997
   140  H    0.029775
   141  H    0.037108
   142  H    0.024827
   143  H    0.007146
   144  H    0.023759
   145  H    0.015816
   146  H    0.009070
   147  H    0.014453
   148  H   -0.000375
   149  H    0.015740
   150  H    0.013752
   151  H    0.015192
   152  H    0.047939
   153  H    0.030601
   154  H    0.013055
   155  H    0.042092
   156  H    0.044706
   157  H    0.034758
   158  H    0.047324
 Sum of Mulliken charges =  -0.00000

 Dipole moment (field-independent basis, Debye):
    X=             -2.6590    Y=              5.1399    Z=              2.5038  Tot=              6.3054
 Quadrupole moment (field-independent basis, Debye-Ang):
   XX=           -501.5011   YY=           -537.9839   ZZ=           -506.9844
   XY=            -16.4694   XZ=            -14.4301   YZ=             14.9208

 Normal termination of Gaussian 16 at Wed Sep 15 13:04:41 2021.
