 Gaussian 16, Revision A.03,
 Gaussian 16:  ES64L-G16RevA.03 25-Dec-2016

 ----------------------------------------------------------
 #p cam-b3lyp/Def2SVP td=(nstates=5) density=(transition=1)
 ----------------------------------------------------------

 --------------------------------
 TDDFT excited states in gaussian
 --------------------------------
 Symbolic Z-matrix:
 Charge =  0 Multiplicity = 1

                         Standard orientation:
 ---------------------------------------------------------------------
 Center     Atomic      Atomic             Coordinates (Angstroms)
 Number     Number       Type             X           Y           Z
 ---------------------------------------------------------------------
      1         12           0       16.736695    0.500401   -0.254372
      2          6           0       16.122040   -2.076214    1.852752
      3          6           0       13.924887    2.150799    0.943404
      4          6           0       17.348266    3.074604   -2.366463
      5          6           0       19.234792   -1.344360   -1.783886
      6          7           0       15.342341    0.086894    1.268238
      7          6           0       15.222138   -1.041050    2.013006
      8          6           0       14.199673   -0.899912    3.110297
      9          6           0       13.330232    0.325519    2.635004
     10          6           0       14.286820    0.918408    1.549103
     11          6           0       11.830694    0.110527    2.166045
     12          6           0       14.880686   -0.574438    4.515304
     13          6           0       13.993086   -1.001418    5.721409
     14          1           0       12.460409   -1.072969    5.616879
     15          7           0       15.740336    2.358385   -0.747870
     16          6           0       14.575377    2.833310   -0.090212
     17          6           0       14.218507    4.114877   -0.619858
     18          6           0       15.208853    4.414375   -1.622090
     19          6           0       16.158910    3.245832   -1.579599
     20          6           0       13.097779    4.957272   -0.119789
     21          6           0       15.334046    5.639404   -2.520984
     22          8           0       16.168467    5.782316   -3.462313
     23          6           0       14.384328    6.808577   -2.322808
     24          7           0       18.037673    0.802392   -1.883898
     25          6           0       18.245971    2.038435   -2.497887
     26          6           0       19.550883    2.132360   -3.340297
     27          6           0       20.141826    0.640499   -3.052346
     28          6           0       19.130910   -0.012411   -2.182602
     29          6           0       19.182902    2.398299   -4.805667
     30          6           0       21.538084    0.623441   -2.503620
     31          6           0       22.494526   -0.193715   -3.324250
     32          7           0       17.492147   -1.303371   -0.176380
     33          6           0       18.531975   -1.963887   -0.818833
     34          6           0       18.674598   -3.272935   -0.298259
     35          6           0       17.721862   -3.424371    0.744818
     36          6           0       17.089114   -2.169099    0.865063
     37          6           0       19.641173   -4.328395   -0.677275
     38          6           0       17.116948   -4.362457    1.664877
     39          8           0       17.258923   -5.545553    1.904848
     40          6           0       16.084294   -3.438458    2.468855
     41          6           0       14.800369   -4.133801    2.746757
     42          8           0       14.171441   -4.816931    1.979556
     43          8           0       14.370789   -3.971985    4.007901
     44          6           0       13.076516   -4.647224    4.309441
     45          1           0       12.938997    2.497191    1.260800
     46          1           0       17.453120    3.848846   -3.129248
     47          1           0       20.074899   -1.948241   -2.132963
     48          1           0       13.496390   -1.732177    3.133687
     49          1           0       13.324967    1.068586    3.431806
     50          1           0       11.581216   -0.934064    2.352665
     51          1           0       11.583523    0.354975    1.134181
     52          1           0       11.221688    0.794344    2.757625
     53          1           0       15.071933    0.498095    4.476486
     54          1           0       15.825163   -1.117714    4.547927
     55          1           0       14.277421   -0.275178    6.483094
     56          1           0       14.407312   -1.942339    6.082640
     57          1           0       13.309638    5.549457    0.770510
     58          1           0       12.271074    4.266742    0.042252
     59          1           0       12.647215    5.576146   -0.895165
     60          1           0       13.476600    6.549628   -2.867642
     61          1           0       14.872751    7.650045   -2.813596
     62          1           0       14.129400    7.002767   -1.280832
     63          1           0       20.090033    3.000591   -2.961173
     64          1           0       20.181919    0.098606   -3.997854
     65          1           0       18.122197    2.335408   -5.049566
     66          1           0       19.821475    1.789264   -5.445073
     67          1           0       19.420855    3.447466   -4.983329
     68          1           0       21.605558    0.174098   -1.512756
     69          1           0       21.988678    1.607612   -2.374655
     70          1           0       23.424032    0.329881   -3.545949
     71          1           0       22.056579   -0.474806   -4.281635
     72          1           0       22.595954   -1.123705   -2.764076
     73          1           0       19.962775   -4.331880   -1.719171
     74          1           0       19.030034   -5.231394   -0.683181
     75          1           0       20.493783   -4.314284    0.001748
     76          1           0       16.646028   -3.407692    3.402908
     77          1           0       13.198834   -5.721068    4.457828
     78          1           0       12.296789   -4.369891    3.599868
     79          1           0       12.708261   -4.262509    5.260799
     80         12           0      -16.483156    0.384643    0.480162
     81          6           0      -16.362743   -2.564469   -1.322000
     82          6           0      -12.934772    0.422324    0.499337
     83          6           0      -16.501438    3.569306    1.744977
     84          6           0      -19.903249    0.583405    0.041448
     85          7           0      -14.884016   -1.011375   -0.219986
     86          6           0      -15.090796   -2.110133   -1.027289
     87          6           0      -13.768506   -2.720326   -1.626335
     88          6           0      -12.668332   -1.999522   -0.712979
     89          6           0      -13.504413   -0.780029   -0.029980
     90          6           0      -11.882694   -2.845529    0.360076
     91          6           0      -13.552795   -2.468491   -3.077182
     92          6           0      -13.454663   -3.620412   -4.058830
     93          1           0      -12.597666   -3.369273   -5.309926
     94          7           0      -14.916674    1.772923    1.135838
     95          6           0      -13.533037    1.519451    1.084057
     96          6           0      -12.824640    2.601501    1.690343
     97          6           0      -13.864877    3.635900    1.930438
     98          6           0      -15.192030    3.034286    1.592943
     99          6           0      -11.296938    2.701210    1.752881
    100          6           0      -13.496861    5.030542    2.466179
    101          8           0      -12.374089    5.456620    2.721060
    102          6           0      -14.542786    6.084854    2.378021
    103          7           0      -18.029560    2.012976    0.696940
    104          6           0      -17.770484    3.119642    1.406737
    105          6           0      -18.984141    4.033598    1.244045
    106          6           0      -20.177324    3.080415    0.767420
    107          6           0      -19.339125    1.753086    0.492617
    108          6           0      -19.365224    4.656114    2.633871
    109          6           0      -21.064484    3.491289   -0.478640
    110          6           0      -22.540527    3.815824   -0.303745
    111          7           0      -17.920160   -0.808367   -0.397022
    112          6           0      -19.304320   -0.625201   -0.474651
    113          6           0      -19.895491   -1.689392   -1.226806
    114          6           0      -18.786906   -2.507241   -1.607242
    115          6           0      -17.612779   -1.906940   -1.005807
    116          6           0      -21.336124   -1.899189   -1.572188
    117          6           0      -18.368981   -3.682940   -2.252433
    118          8           0      -19.053486   -4.500367   -2.834556
    119          6           0      -16.794041   -3.735895   -2.173270
    120          6           0      -16.389154   -5.099527   -1.797457
    121          8           0      -15.915858   -5.904045   -2.592044
    122          8           0      -16.648236   -5.321802   -0.453222
    123          6           0      -16.304802   -6.693837   -0.016657
    124          1           0      -11.852918    0.521659    0.605709
    125          1           0      -16.421172    4.543425    2.232736
    126          1           0      -20.977751    0.685629   -0.123480
    127          1           0      -13.748818   -3.793460   -1.439546
    128          1           0      -11.973760   -1.510494   -1.396946
    129          1           0      -12.072592   -3.895849    0.139243
    130          1           0      -12.146952   -2.625531    1.394506
    131          1           0      -10.830129   -2.583187    0.260118
    132          1           0      -12.583987   -1.973713   -3.160711
    133          1           0      -14.360388   -1.852508   -3.471273
    134          1           0      -14.453918   -3.804396   -4.452389
    135          1           0      -13.021921   -4.521708   -3.625259
    136          1           0      -10.659551    1.954617    1.279659
    137          1           0      -11.122316    2.793359    2.824565
    138          1           0      -11.104079    3.723804    1.430097
    139          1           0      -15.234730    6.228885    3.206713
    140          1           0      -15.093403    6.041845    1.438180
    141          1           0      -14.006914    7.034692    2.366434
    142          1           0      -18.818321    4.833690    0.522258
    143          1           0      -20.810407    2.819651    1.614818
    144          1           0      -19.467530    5.730075    2.478238
    145          1           0      -18.661609    4.462709    3.444559
    146          1           0      -20.303716    4.271947    3.034220
    147          1           0      -20.952909    2.651865   -1.164594
    148          1           0      -20.618666    4.415716   -0.848380
    149          1           0      -22.986410    3.634261   -1.281989
    150          1           0      -22.644199    4.879152   -0.086559
    151          1           0      -23.143558    3.249821    0.405466
    152          1           0      -21.372101   -2.823765   -2.148946
    153          1           0      -21.668404   -1.016180   -2.117226
    154          1           0      -22.002847   -2.037878   -0.720911
    155          1           0      -16.482483   -3.578037   -3.206349
    156          1           0      -17.164465   -7.352362   -0.140406
    157          1           0      -15.926213   -6.595562    1.000724
    158          1           0      -15.462880   -7.098899   -0.577358
 ---------------------------------------------------------------------

 SCF Done:  E(RCAM-B3LYP) =  -4069.79849786     A.U. after   18 cycles

 Excitation energies and oscillator strengths:

 Excited State   1:      Singlet-A      1.6462 eV  753.17 nm  f=0.3902  <S**2>=0.000
     310 -> 316        0.16997
     312 -> 314        0.68900
     310 <- 316        0.10747
 This state for optimization and/or second-order correction.
 Total Energy, E(TD-HF/TD-DFT) =  -4069.73800235
 Copying the excited state density for this state as the 1-particle RhoCI density.

 Excited State   2:      Singlet-A      1.7129 eV  723.83 nm  f=0.3820  <S**2>=0.000
     309 -> 315        0.17421
     311 -> 313        0.68624
     309 <- 315        0.10490

 Excited State   3:      Singlet-A      2.1718 eV  570.89 nm  f=0.1594  <S**2>=0.000
     309 -> 313        0.65199
     311 -> 315       -0.25353

 Excited State   4:      Singlet-A      2.2270 eV  556.73 nm  f=0.1131  <S**2>=0.000
     310 -> 314        0.63823
     312 -> 316       -0.29161

 Excited State   5:      Singlet-A      2.7786 eV  446.21 nm  f=0.0000  <S**2>=0.000
     312 -> 313        0.70709

 The electronic state is 1-A.
 Alpha  occ. eigenvalues --  -46.90532 -46.87150 -19.25174 -19.25166 -19.19870
 Alpha  occ. eigenvalues --  -19.19227 -19.19166 -19.18766 -19.18496 -19.18348
 Alpha  occ. eigenvalues --  -14.43536 -14.42856 -14.42042 -14.41687 -14.40099
 Alpha  occ. eigenvalues --  -14.39921 -14.39527 -14.38760 -10.39169 -10.38597
 Alpha  occ. eigenvalues --  -10.35330 -10.35225 -10.35149 -10.34236 -10.33155
 Alpha  occ. eigenvalues --  -10.32122 -10.32052 -10.31731 -10.31719 -10.31554
 Alpha  occ. eigenvalues --  -10.31357 -10.30954 -10.30875 -10.30730 -10.30483
 Alpha  occ. eigenvalues --  -10.30468 -10.30177 -10.30115 -10.29884 -10.29856
 Alpha  occ. eigenvalues --  -10.29471 -10.29351 -10.29142 -10.28950 -10.28856
 Alpha  occ. eigenvalues --  -10.28755 -10.28746 -10.28720 -10.28568 -10.28484
 Alpha  occ. eigenvalues --  -10.28340 -10.28313 -10.28303 -10.28252 -10.28246
 Alpha  occ. eigenvalues --  -10.28144 -10.28037 -10.27941 -10.27870 -10.27862
 Alpha  occ. eigenvalues --  -10.27799 -10.27655 -10.27537 -10.27513 -10.27511
 Alpha  occ. eigenvalues --  -10.27476 -10.27383 -10.27201 -10.27075 -10.27034
 Alpha  occ. eigenvalues --  -10.26889 -10.26820 -10.26291 -10.26225 -10.26096
 Alpha  occ. eigenvalues --  -10.25999 -10.25942 -10.25840 -10.25759 -10.25606
 Alpha  occ. eigenvalues --  -10.25476 -10.25469 -10.25386 -10.25240 -10.25120
 Alpha  occ. eigenvalues --  -10.24958  -3.18742  -3.16009  -1.93671  -1.93174
 Alpha  occ. eigenvalues --   -1.93044  -1.90899  -1.90443  -1.90354  -1.17314
 Alpha  occ. eigenvalues --   -1.15579  -1.10143  -1.10114  -1.09815  -1.07523
 Alpha  occ. eigenvalues --   -1.07409  -1.07263  -1.04868  -1.04528  -1.04105
 Alpha  occ. eigenvalues --   -1.03572  -1.02720  -1.02620  -1.01786  -1.01413
 Alpha  occ. eigenvalues --   -0.93377  -0.92634  -0.89718  -0.89551  -0.89427
 Alpha  occ. eigenvalues --   -0.88813  -0.88592  -0.88241  -0.87744  -0.87683
 Alpha  occ. eigenvalues --   -0.87228  -0.87222  -0.86418  -0.85869  -0.84565
 Alpha  occ. eigenvalues --   -0.84335  -0.83890  -0.83823  -0.82944  -0.82484
 Alpha  occ. eigenvalues --   -0.82281  -0.81664  -0.81062  -0.80936  -0.80800
 Alpha  occ. eigenvalues --   -0.80510  -0.78362  -0.77884  -0.77783  -0.77366
 Alpha  occ. eigenvalues --   -0.77235  -0.77038  -0.76536  -0.76268  -0.75575
 Alpha  occ. eigenvalues --   -0.75222  -0.73552  -0.72889  -0.72333  -0.71853
 Alpha  occ. eigenvalues --   -0.69442  -0.69098  -0.69043  -0.68692  -0.68199
 Alpha  occ. eigenvalues --   -0.68041  -0.67179  -0.66707  -0.65867  -0.65681
 Alpha  occ. eigenvalues --   -0.65521  -0.65361  -0.65299  -0.64857  -0.64782
 Alpha  occ. eigenvalues --   -0.64085  -0.63051  -0.62346  -0.60328  -0.60302
 Alpha  occ. eigenvalues --   -0.59941  -0.59798  -0.59508  -0.59116  -0.58974
 Alpha  occ. eigenvalues --   -0.58379  -0.58007  -0.57842  -0.57716  -0.57033
 Alpha  occ. eigenvalues --   -0.56603  -0.56094  -0.56023  -0.55509  -0.55494
 Alpha  occ. eigenvalues --   -0.55192  -0.54982  -0.54855  -0.53949  -0.53892
 Alpha  occ. eigenvalues --   -0.53570  -0.53352  -0.53280  -0.53005  -0.52896
 Alpha  occ. eigenvalues --   -0.52876  -0.52830  -0.52563  -0.52528  -0.52438
 Alpha  occ. eigenvalues --   -0.52153  -0.52142  -0.51982  -0.51899  -0.51374
 Alpha  occ. eigenvalues --   -0.51316  -0.51157  -0.50980  -0.50428  -0.50318
 Alpha  occ. eigenvalues --   -0.50258  -0.50106  -0.49983  -0.49763  -0.49617
 Alpha  occ. eigenvalues --   -0.49541  -0.49198  -0.49011  -0.48918  -0.48883
 Alpha  occ. eigenvalues --   -0.48693  -0.48393  -0.48357  -0.48233  -0.48002
 Alpha  occ. eigenvalues --   -0.47992  -0.47848  -0.47771  -0.47330  -0.47221
 Alpha  occ. eigenvalues --   -0.47220  -0.47060  -0.46752  -0.46715  -0.46629
 Alpha  occ. eigenvalues --   -0.46607  -0.46363  -0.46175  -0.46038  -0.45928
 Alpha  occ. eigenvalues --   -0.45884  -0.45735  -0.45355  -0.45231  -0.45202
 Alpha  occ. eigenvalues --   -0.44916  -0.44778  -0.44719  -0.44572  -0.44552
 Alpha  occ. eigenvalues --   -0.44166  -0.44056  -0.43897  -0.43772  -0.43679
 Alpha  occ. eigenvalues --   -0.43519  -0.43290  -0.43180  -0.43029  -0.42803
 Alpha  occ. eigenvalues --   -0.42470  -0.42416  -0.42353  -0.42271  -0.42054
 Alpha  occ. eigenvalues --   -0.41953  -0.41644  -0.41546  -0.41421  -0.41323
 Alpha  occ. eigenvalues --   -0.40983  -0.40898  -0.40530  -0.40499  -0.40439
 Alpha  occ. eigenvalues --   -0.40397  -0.40054  -0.40013  -0.39757  -0.39508
 Alpha  occ. eigenvalues --   -0.38394  -0.38257  -0.37975  -0.37861  -0.37623
 Alpha  occ. eigenvalues --   -0.37457  -0.37257  -0.37202  -0.37037  -0.36824
 Alpha  occ. eigenvalues --   -0.36622  -0.35938  -0.34600  -0.34531  -0.34362
 Alpha  occ. eigenvalues --   -0.34140  -0.33379  -0.33349  -0.31808  -0.31541
 Alpha  occ. eigenvalues --   -0.31276  -0.30739  -0.30715  -0.30571  -0.30235
 Alpha  occ. eigenvalues --   -0.29953  -0.29630  -0.29581  -0.24660  -0.24319
 Alpha  occ. eigenvalues --   -0.22200  -0.21041
 Alpha virt. eigenvalues --   -0.09773  -0.08969  -0.02384  -0.01624  -0.00026
 Alpha virt. eigenvalues --    0.00107   0.02160   0.02170   0.02293   0.03159
 Alpha virt. eigenvalues --    0.04464   0.04758   0.05228   0.05463   0.05803

 Mulliken charges:
               1
     1  Mg  11.995307
     2  C    6.026232
     3  C    5.990735
     4  C    5.964247
     5  C    5.990387
     6  N    7.013203
     7  C    5.963875
     8  C    6.012987
     9  C    5.989183
    10  C    6.036248
    11  C    5.994759
    12  C    6.002984
    13  C    6.000210
    14  H    0.993167
    15  N    6.992892
    16  C    6.049145
    17  C    6.012281
    18  C    6.025041
    19  C    6.036359
    20  C    5.995209
    21  C    6.013033
    22  O    8.038725
    23  C    5.994177
    24  N    6.978955
    25  C    6.038123
    26  C    5.989094
    27  C    6.012964
    28  C    5.981078
    29  C    5.999706
    30  C    6.006861
    31  C    6.000319
    32  N    7.005364
    33  C    5.974347
    34  C    5.964063
    35  C    5.998039
    36  C    5.964326
    37  C    6.004945
    38  C    5.987200
    39  O    7.974695
    40  C    5.995674
    41  C    5.997015
    42  O    7.997628
    43  O    7.997890
    44  C    6.002186
    45  H    1.015617
    46  H    0.997683
    47  H    0.984015
    48  H    1.000222
    49  H    1.004055
    50  H    1.016530
    51  H    0.999332
    52  H    1.003586
    53  H    0.987096
    54  H    1.007814
    55  H    0.997252
    56  H    1.004553
    57  H    1.020426
    58  H    1.014537
    59  H    1.015875
    60  H    1.010871
    61  H    1.015805
    62  H    1.007339
    63  H    0.996676
    64  H    0.995431
    65  H    0.995080
    66  H    1.008990
    67  H    0.995084
    68  H    1.002305
    69  H    0.986238
    70  H    0.992278
    71  H    0.995761
    72  H    1.004686
    73  H    0.980784
    74  H    0.982310
    75  H    0.976185
    76  H    0.996038
    77  H    0.999389
    78  H    0.994562
    79  H    0.994737
    80  Mg  12.000005
    81  C    5.999503
    82  C    6.000159
    83  C    6.000661
    84  C    5.999944
    85  N    6.999747
    86  C    6.000652
    87  C    5.999809
    88  C    6.000098
    89  C    5.999404
    90  C    6.000119
    91  C    6.000017
    92  C    5.999974
    93  H    1.000032
    94  N    7.000319
    95  C    5.999127
    96  C    5.999613
    97  C    5.999775
    98  C    5.999113
    99  C    6.000118
   100  C    5.999738
   101  O    7.999429
   102  C    6.000202
   103  N    7.000096
   104  C    5.999318
   105  C    6.000157
   106  C    5.999941
   107  C    6.000492
   108  C    6.000043
   109  C    5.999900
   110  C    5.999968
   111  N    6.999893
   112  C    6.000799
   113  C    6.000476
   114  C    6.000173
   115  C    6.000674
   116  C    5.999931
   117  C    6.000328
   118  O    8.000735
   119  C    6.000091
   120  C    6.000091
   121  O    8.000199
   122  O    7.999936
   123  C    5.999896
   124  H    0.999624
   125  H    0.999965
   126  H    1.000339
   127  H    1.000036
   128  H    0.999836
   129  H    0.999818
   130  H    1.000010
   131  H    0.999839
   132  H    1.000077
   133  H    0.999893
   134  H    0.999926
   135  H    1.000097
   136  H    0.999539
   137  H    0.999599
   138  H    0.999524
   139  H    0.999786
   140  H    0.999819
   141  H    0.999644
   142  H    0.999921
   143  H    1.000069
   144  H    0.999968
   145  H    1.000082
   146  H    0.999929
   147  H    0.999876
   148  H    1.000182
   149  H    1.000050
   150  H    1.000140
   151  H    1.000067
   152  H    1.000308
   153  H    1.000370
   154  H    1.000467
   155  H    1.000117
   156  H    1.000089
   157  H    1.000150
   158  H    1.000146
 Sum of Mulliken charges = 624.00000

 Dipole moment (field-independent basis, Debye):
    X=             -5.8679    Y=              9.4761    Z=             -0.8900  Tot=             11.1813
 Quadrupole moment (field-independent basis, Debye-Ang):
   XX=           -183.3355   YY=             11.2196   ZZ=              0.0942
   XY=            156.3401   XZ=             -7.4721   YZ=             -6.2353

 Normal termination of Gaussian 16 at Wed Sep 22 22:36:47 2021.
