 Gaussian 16, Revision A.03,
 Gaussian 16:  ES64L-G16RevA.03 25-Dec-2016

 -----------------------------------
 #p cam-b3lyp/Def2SVP td=(nstates=5)
 -----------------------------------

 --------------------------------
 TDDFT excited states in gaussian
 --------------------------------
 Symbolic Z-matrix:
 Charge =  0 Multiplicity = 1

                         Standard orientation:
 ---------------------------------------------------------------------
 Center     Atomic      Atomic             Coordinates (Angstroms)
 Number     Number       Type             X           Y           Z
 ---------------------------------------------------------------------
      1         12           0      -24.174795    0.449813    0.300263
      2          6           0      -22.990467   -2.283694   -1.306605
      3          6           0      -22.488519    2.498263   -1.941404
      4          6           0      -25.354515    3.183638    1.911451
      5          6           0      -25.442952   -1.571813    2.807822
      6          7           0      -23.023957    0.085587   -1.424980
      7          6           0      -22.608509   -1.107287   -1.920806
      8          6           0      -21.934172   -0.970080   -3.260898
      9          6           0      -21.540942    0.555193   -3.310108
     10          6           0      -22.443490    1.094668   -2.152467
     11          6           0      -20.018621    0.993269   -3.236705
     12          6           0      -22.925916   -1.317625   -4.460653
     13          6           0      -22.171651   -1.766508   -5.746897
     14          1           0      -20.739935   -1.296797   -6.054640
     15          7           0      -23.909848    2.589537    0.100861
     16          6           0      -23.158575    3.203092   -0.935639
     17          6           0      -23.240828    4.626618   -0.804857
     18          6           0      -24.074541    4.867062    0.344953
     19          6           0      -24.485917    3.494520    0.810573
     20          6           0      -22.644589    5.601950   -1.758249
     21          6           0      -24.504920    6.191023    0.966471
     22          8           0      -25.147563    6.324138    2.049093
     23          6           0      -24.136836    7.492756    0.274946
     24          7           0      -25.178838    0.776306    2.123556
     25          6           0      -25.739215    1.998514    2.498203
     26          6           0      -26.805606    1.904008    3.627427
     27          6           0      -26.810136    0.286602    3.831770
     28          6           0      -25.796731   -0.224880    2.874642
     29          6           0      -26.316291    2.697216    4.845965
     30          6           0      -28.162944   -0.349355    3.703730
     31          6           0      -28.563591   -1.153218    4.907576
     32          7           0      -24.169310   -1.439196    0.812123
     33          6           0      -24.737941   -2.182672    1.838852
     34          6           0      -24.449734   -3.557859    1.663511
     35          6           0      -23.714904   -3.689925    0.454696
     36          6           0      -23.652987   -2.391894   -0.094685
     37          6           0      -24.845202   -4.709574    2.505576
     38          6           0      -22.966388   -4.605340   -0.378474
     39          8           0      -22.676790   -5.784245   -0.317015
     40          6           0      -22.535491   -3.675698   -1.609987
     41          6           0      -21.153704   -3.960408   -2.077747
     42          8           0      -20.183084   -4.139636   -1.387394
     43          8           0      -21.052391   -4.047724   -3.413157
     44          6           0      -19.673275   -4.318004   -3.910151
     45          1           0      -21.788634    3.038515   -2.582493
     46          1           0      -25.615206    4.069605    2.494022
     47          1           0      -25.905214   -2.285819    3.492524
     48          1           0      -20.978696   -1.492785   -3.301708
     49          1           0      -21.966939    0.987528   -4.214919
     50          1           0      -19.419652    0.082857   -3.261654
     51          1           0      -19.707121    1.599192   -2.387343
     52          1           0      -19.839421    1.631338   -4.102278
     53          1           0      -23.509379   -0.406806   -4.596254
     54          1           0      -23.573890   -2.124540   -4.118208
     55          1           0      -22.846616   -1.433899   -6.535713
     56          1           0      -22.243932   -2.853419   -5.775191
     57          1           0      -23.224704    5.800008   -2.659602
     58          1           0      -21.657355    5.205830   -1.992743
     59          1           0      -22.340555    6.534534   -1.283834
     60          1           0      -23.118833    7.719669    0.591253
     61          1           0      -24.818688    8.232620    0.693489
     62          1           0      -24.167060    7.442067   -0.813599
     63          1           0      -27.698216    2.393646    3.237882
     64          1           0      -26.467518    0.067328    4.843587
     65          1           0      -25.289783    3.061086    4.796795
     66          1           0      -26.542832    2.130687    5.748885
     67          1           0      -26.908216    3.612862    4.858384
     68          1           0      -28.224987   -1.067966    2.886403
     69          1           0      -28.976218    0.347417    3.500372
     70          1           0      -29.568164   -0.922910    5.261234
     71          1           0      -27.888311   -0.978165    5.744684
     72          1           0      -28.392735   -2.186590    4.604402
     73          1           0      -24.949490   -4.509720    3.572426
     74          1           0      -23.940274   -5.317289    2.532368
     75          1           0      -25.741911   -5.177758    2.099457
     76          1           0      -23.221068   -4.109008   -2.338802
     77          1           0      -19.392174   -5.365338   -3.791011
     78          1           0      -18.950465   -3.603259   -3.516366
     79          1           0      -19.659141   -4.133769   -4.984655
     80         12           0       24.209319    0.279679    0.066114
     81          6           0       21.693180   -2.066126    0.055723
     82          6           0       22.169941    2.628785   -1.365683
     83          6           0       26.728576    2.705357    0.268206
     84          6           0       26.049965   -1.673477    2.239456
     85          7           0       22.083630    0.264296   -0.361078
     86          6           0       21.239707   -0.843779   -0.475336
     87          6           0       19.844617   -0.437554   -0.956978
     88          6           0       20.171906    0.966789   -1.525064
     89          6           0       21.555331    1.387087   -0.987837
     90          6           0       20.000212    1.055868   -3.057275
     91          6           0       18.812271   -0.425469    0.187781
     92          6           0       17.395029   -1.014753   -0.131452
     93          1           0       16.258127   -0.411574    0.596940
     94          7           0       24.415172    2.309988   -0.515410
     95          6           0       23.504188    3.069064   -1.166359
     96          6           0       24.051302    4.296289   -1.662338
     97          6           0       25.414552    4.293139   -1.324177
     98          6           0       25.593887    3.030747   -0.494034
     99          6           0       23.287826    5.291487   -2.538530
    100          6           0       26.480432    5.395112   -1.670303
    101          8           0       26.090438    6.444509   -2.243342
    102          6           0       28.039793    5.226353   -1.414293
    103          7           0       25.989430    0.609723    1.350273
    104          6           0       26.895475    1.590961    1.120132
    105          6           0       28.196770    1.371683    1.848206
    106          6           0       27.990956    0.000914    2.528214
    107          6           0       26.619327   -0.413656    1.989556
    108          6           0       29.474509    1.486076    0.952249
    109          6           0       28.158311    0.052755    4.121316
    110          6           0       29.466977   -0.548360    4.647036
    111          7           0       23.991190   -1.526061    0.938131
    112          6           0       24.831938   -2.262778    1.801238
    113          6           0       24.312358   -3.630441    1.931923
    114          6           0       23.134277   -3.591488    1.199154
    115          6           0       22.952109   -2.274925    0.744882
    116          6           0       24.855250   -4.795325    2.679555
    117          6           0       21.978840   -4.401569    0.787786
    118          8           0       21.774496   -5.626307    0.817949
    119          6           0       21.006922   -3.448666   -0.017102
    120          6           0       20.821619   -3.927470   -1.450739
    121          8           0       21.693853   -4.310796   -2.236649
    122          8           0       19.469713   -3.895877   -1.623473
    123          6           0       18.959545   -4.471253   -2.856684
    124          1           0       21.531439    3.384681   -1.827427
    125          1           0       27.615943    3.338726    0.331357
    126          1           0       26.585912   -2.344601    2.913596
    127          1           0       19.496470   -1.147780   -1.707696
    128          1           0       19.408424    1.600971   -1.074605
    129          1           0       19.370625    0.329001   -3.570440
    130          1           0       20.994008    0.885290   -3.470976
    131          1           0       19.623779    2.028312   -3.373822
    132          1           0       18.694899    0.558148    0.641744
    133          1           0       19.300491   -0.951390    1.008592
    134          1           0       17.402976   -2.084921    0.075195
    135          1           0       17.176037   -0.832340   -1.184458
    136          1           0       23.878635    5.391234   -3.448796
    137          1           0       23.026223    6.172159   -1.951819
    138          1           0       22.381313    4.758004   -2.824278
    139          1           0       28.208225    5.523237   -0.379780
    140          1           0       28.533756    5.927152   -2.086928
    141          1           0       28.302145    4.233100   -1.779604
    142          1           0       28.290155    2.148276    2.607449
    143          1           0       28.588208   -0.825572    2.143810
    144          1           0       30.169988    0.668348    1.139266
    145          1           0       30.013794    2.420248    1.108012
    146          1           0       29.171415    1.538386   -0.092641
    147          1           0       27.389465   -0.519985    4.639755
    148          1           0       28.018602    1.073212    4.477868
    149          1           0       29.842127    0.055392    5.473571
    150          1           0       30.210494   -0.563742    3.850430
    151          1           0       29.371882   -1.575157    4.999749
    152          1           0       25.829877   -4.504674    3.071684
    153          1           0       24.747152   -5.702381    2.084527
    154          1           0       24.237865   -4.888200    3.573681
    155          1           0       20.038414   -3.334716    0.470564
    156          1           0       19.521085   -4.181113   -3.745620
    157          1           0       17.908176   -4.298808   -3.086794
    158          1           0       19.002508   -5.559157   -2.798578
 ---------------------------------------------------------------------

 SCF Done:  E(RCAM-B3LYP) =  -4069.83033488     A.U. after   19 cycles

 Excitation energies and oscillator strengths:

 Excited State   1:      Singlet-A      1.6462 eV  753.16 nm  f=0.3867  <S**2>=0.000
     309 -> 316       -0.17000
     312 -> 313        0.68912
     309 <- 316       -0.10749
 This state for optimization and/or second-order correction.
 Total Energy, E(TD-HF/TD-DFT) =  -4069.76983903
 Copying the excited state density for this state as the 1-particle RhoCI density.

 Excited State   2:      Singlet-A      1.7087 eV  725.58 nm  f=0.3665  <S**2>=0.000
     310 -> 315        0.17446
     311 -> 314        0.68609
     310 <- 315        0.10518

 Excited State   3:      Singlet-A      2.2270 eV  556.73 nm  f=0.1133  <S**2>=0.000
     309 -> 313        0.63821
     312 -> 316        0.29158

 Excited State   4:      Singlet-A      2.2475 eV  551.64 nm  f=0.0932  <S**2>=0.000
     310 -> 314        0.62545
     311 -> 315       -0.31553

 Excited State   5:      Singlet-A      3.1043 eV  399.40 nm  f=0.0000  <S**2>=0.000
     311 -> 313        0.70710

 The electronic state is 1-A.
 Alpha  occ. eigenvalues --  -46.89176 -46.87147 -19.26363 -19.25166 -19.20266
 Alpha  occ. eigenvalues --  -19.19688 -19.19222 -19.18758 -19.18493 -19.18447
 Alpha  occ. eigenvalues --  -14.42852 -14.42409 -14.42175 -14.41683 -14.40230
 Alpha  occ. eigenvalues --  -14.39523 -14.39111 -14.38756 -10.39957 -10.38590
 Alpha  occ. eigenvalues --  -10.36679 -10.35222 -10.35144 -10.34753 -10.32202
 Alpha  occ. eigenvalues --  -10.32051 -10.32042 -10.31595 -10.31352 -10.31186
 Alpha  occ. eigenvalues --  -10.31095 -10.30950 -10.30727 -10.30482 -10.30480
 Alpha  occ. eigenvalues --  -10.30401 -10.30111 -10.29852 -10.29677 -10.29343
 Alpha  occ. eigenvalues --  -10.28946 -10.28852 -10.28814 -10.28742 -10.28495
 Alpha  occ. eigenvalues --  -10.28480 -10.28352 -10.28246 -10.28160 -10.28141
 Alpha  occ. eigenvalues --  -10.28031 -10.28022 -10.28017 -10.27973 -10.27916
 Alpha  occ. eigenvalues --  -10.27865 -10.27856 -10.27795 -10.27744 -10.27713
 Alpha  occ. eigenvalues --  -10.27651 -10.27613 -10.27532 -10.27511 -10.27475
 Alpha  occ. eigenvalues --  -10.27473 -10.27297 -10.27199 -10.26990 -10.26916
 Alpha  occ. eigenvalues --  -10.26813 -10.26737 -10.26571 -10.26284 -10.26057
 Alpha  occ. eigenvalues --  -10.25996 -10.25973 -10.25837 -10.25763 -10.25757
 Alpha  occ. eigenvalues --  -10.25603 -10.25474 -10.25382 -10.25237 -10.25118
 Alpha  occ. eigenvalues --  -10.24589  -3.17709  -3.16005  -1.92575  -1.92151
 Alpha  occ. eigenvalues --   -1.92039  -1.90896  -1.90439  -1.90350  -1.17307
 Alpha  occ. eigenvalues --   -1.16838  -1.10138  -1.08621  -1.08361  -1.07753
 Alpha  occ. eigenvalues --   -1.07407  -1.07255  -1.04677  -1.04524  -1.04005
 Alpha  occ. eigenvalues --   -1.03568  -1.03522  -1.02717  -1.02153  -1.01410
 Alpha  occ. eigenvalues --   -0.93372  -0.91421  -0.89715  -0.88878  -0.88839
 Alpha  occ. eigenvalues --   -0.88809  -0.88696  -0.88587  -0.87679  -0.87280
 Alpha  occ. eigenvalues --   -0.87224  -0.86989  -0.86414  -0.86394  -0.84331
 Alpha  occ. eigenvalues --   -0.84315  -0.83897  -0.83818  -0.82509  -0.82479
 Alpha  occ. eigenvalues --   -0.81660  -0.81641  -0.81123  -0.81057  -0.80507
 Alpha  occ. eigenvalues --   -0.80192  -0.78359  -0.77939  -0.77779  -0.77479
 Alpha  occ. eigenvalues --   -0.77360  -0.76746  -0.76530  -0.75890  -0.75295
 Alpha  occ. eigenvalues --   -0.75218  -0.72885  -0.72708  -0.71849  -0.71726
 Alpha  occ. eigenvalues --   -0.69198  -0.69093  -0.68970  -0.68689  -0.68193
 Alpha  occ. eigenvalues --   -0.67886  -0.67253  -0.66703  -0.66131  -0.65863
 Alpha  occ. eigenvalues --   -0.65357  -0.65079  -0.64995  -0.64778  -0.64558
 Alpha  occ. eigenvalues --   -0.64080  -0.62688  -0.62340  -0.60324  -0.59947
 Alpha  occ. eigenvalues --   -0.59935  -0.59597  -0.58969  -0.58924  -0.58608
 Alpha  occ. eigenvalues --   -0.58375  -0.58002  -0.57730  -0.57712  -0.57236
 Alpha  occ. eigenvalues --   -0.56090  -0.55968  -0.55758  -0.55502  -0.55346
 Alpha  occ. eigenvalues --   -0.55187  -0.55018  -0.54978  -0.53945  -0.53767
 Alpha  occ. eigenvalues --   -0.53372  -0.53346  -0.53141  -0.53001  -0.52893
 Alpha  occ. eigenvalues --   -0.52797  -0.52599  -0.52558  -0.52435  -0.52148
 Alpha  occ. eigenvalues --   -0.52015  -0.51978  -0.51588  -0.51357  -0.51312
 Alpha  occ. eigenvalues --   -0.51183  -0.51153  -0.51100  -0.50872  -0.50315
 Alpha  occ. eigenvalues --   -0.50100  -0.49981  -0.49944  -0.49613  -0.49463
 Alpha  occ. eigenvalues --   -0.49329  -0.49057  -0.49008  -0.48878  -0.48512
 Alpha  occ. eigenvalues --   -0.48388  -0.48269  -0.48227  -0.48147  -0.47998
 Alpha  occ. eigenvalues --   -0.47848  -0.47768  -0.47686  -0.47476  -0.47325
 Alpha  occ. eigenvalues --   -0.47217  -0.47181  -0.46864  -0.46710  -0.46603
 Alpha  occ. eigenvalues --   -0.46579  -0.46386  -0.46358  -0.46006  -0.45923
 Alpha  occ. eigenvalues --   -0.45569  -0.45253  -0.45197  -0.44912  -0.44775
 Alpha  occ. eigenvalues --   -0.44774  -0.44548  -0.44434  -0.44122  -0.44052
 Alpha  occ. eigenvalues --   -0.43893  -0.43792  -0.43771  -0.43514  -0.43482
 Alpha  occ. eigenvalues --   -0.43287  -0.43281  -0.43176  -0.42945  -0.42472
 Alpha  occ. eigenvalues --   -0.42455  -0.42411  -0.42349  -0.42121  -0.42046
 Alpha  occ. eigenvalues --   -0.41959  -0.41950  -0.41581  -0.41416  -0.41150
 Alpha  occ. eigenvalues --   -0.40980  -0.40894  -0.40798  -0.40605  -0.40496
 Alpha  occ. eigenvalues --   -0.40434  -0.40391  -0.40051  -0.39716  -0.39362
 Alpha  occ. eigenvalues --   -0.38681  -0.38385  -0.38252  -0.38156  -0.37971
 Alpha  occ. eigenvalues --   -0.37619  -0.37382  -0.37197  -0.37032  -0.36854
 Alpha  occ. eigenvalues --   -0.36615  -0.36417  -0.34871  -0.34796  -0.34597
 Alpha  occ. eigenvalues --   -0.34134  -0.33344  -0.33034  -0.31584  -0.31536
 Alpha  occ. eigenvalues --   -0.31201  -0.30734  -0.30713  -0.30495  -0.30453
 Alpha  occ. eigenvalues --   -0.29949  -0.29837  -0.29577  -0.24315  -0.24201
 Alpha  occ. eigenvalues --   -0.21084  -0.21037
 Alpha virt. eigenvalues --   -0.08965  -0.08583  -0.02024  -0.01620   0.00111
 Alpha virt. eigenvalues --    0.00170   0.01636   0.01978   0.02164   0.03162
 Alpha virt. eigenvalues --    0.04766   0.04986   0.05046   0.05466   0.05866

 Mulliken charges:
               1
     1  Mg   0.841737
     2  C    0.034496
     3  C   -0.092966
     4  C   -0.054374
     5  C   -0.125453
     6  N   -0.303486
     7  C   -0.052259
     8  C    0.000508
     9  C   -0.079168
    10  C    0.037456
    11  C    0.069886
    12  C    0.044562
    13  C   -0.036892
    14  H    0.029753
    15  N   -0.308317
    16  C    0.155162
    17  C   -0.140381
    18  C   -0.029033
    19  C    0.069268
    20  C    0.113472
    21  C    0.008025
    22  O   -0.244598
    23  C    0.041256
    24  N   -0.321007
    25  C    0.036065
    26  C   -0.042171
    27  C    0.024927
    28  C    0.084852
    29  C    0.056673
    30  C    0.036911
    31  C   -0.008392
    32  N   -0.439376
    33  C    0.179106
    34  C   -0.175155
    35  C   -0.013984
    36  C    0.109949
    37  C    0.115569
    38  C    0.073225
    39  O   -0.144961
    40  C   -0.038056
    41  C    0.155664
    42  O   -0.198846
    43  O   -0.329046
    44  C    0.182745
    45  H   -0.027445
    46  H   -0.007710
    47  H   -0.042417
    48  H    0.003914
    49  H    0.010798
    50  H    0.020587
    51  H    0.027102
    52  H    0.015775
    53  H    0.012895
    54  H    0.017195
    55  H    0.020536
    56  H    0.038049
    57  H    0.049701
    58  H    0.012639
    59  H    0.009434
    60  H    0.044196
    61  H    0.032984
    62  H    0.028630
    63  H    0.029412
    64  H    0.012701
    65  H    0.039372
    66  H    0.014862
    67  H    0.019120
    68  H    0.008607
    69  H    0.002704
    70  H    0.020687
    71  H    0.002396
    72  H    0.017160
    73  H    0.004841
    74  H    0.038569
    75  H    0.044844
    76  H    0.038566
    77  H    0.051900
    78  H    0.041607
    79  H    0.022439
    80  Mg   0.836086
    81  C   -0.066005
    82  C   -0.099844
    83  C   -0.076408
    84  C   -0.074285
    85  N   -0.335338
    86  C   -0.052978
    87  C   -0.007758
    88  C   -0.038850
    89  C    0.100347
    90  C    0.060697
    91  C    0.062712
    92  C   -0.070254
    93  H    0.025980
    94  N   -0.347175
    95  C    0.138423
    96  C   -0.175753
    97  C   -0.042921
    98  C    0.173857
    99  C    0.164809
   100  C    0.001185
   101  O   -0.229653
   102  C    0.054730
   103  N   -0.257126
   104  C   -0.006396
   105  C   -0.021892
   106  C   -0.004522
   107  C    0.016319
   108  C    0.057147
   109  C    0.038566
   110  C   -0.002754
   111  N   -0.349146
   112  C    0.092027
   113  C   -0.191239
   114  C    0.000954
   115  C    0.118595
   116  C    0.151206
   117  C    0.079091
   118  O   -0.194562
   119  C    0.005657
   120  C    0.224931
   121  O   -0.217101
   122  O   -0.326150
   123  C    0.174531
   124  H   -0.017165
   125  H   -0.042491
   126  H   -0.036541
   127  H    0.000626
   128  H    0.005439
   129  H    0.014652
   130  H    0.013581
   131  H    0.016638
   132  H    0.006699
   133  H    0.005820
   134  H    0.043404
   135  H    0.028557
   136  H    0.042050
   137  H    0.047479
   138  H   -0.009959
   139  H    0.058757
   140  H    0.031671
   141  H    0.040087
   142  H    0.020122
   143  H    0.008845
   144  H    0.024614
   145  H    0.011780
   146  H    0.017590
   147  H    0.008270
   148  H    0.004652
   149  H    0.016484
   150  H    0.008710
   151  H    0.019606
   152  H   -0.000743
   153  H    0.052466
   154  H    0.027053
   155  H    0.034525
   156  H    0.037760
   157  H    0.033792
   158  H    0.035433
 Sum of Mulliken charges =  -0.00000

 Dipole moment (field-independent basis, Debye):
    X=             -0.0061    Y=              4.8345    Z=             -3.3685  Tot=              5.8923
 Quadrupole moment (field-independent basis, Debye-Ang):
   XX=           -343.2759   YY=           -592.0863   ZZ=           -480.3232
   XY=              3.0072   XZ=            107.3222   YZ=             -3.0011

 Normal termination of Gaussian 16 at Wed Sep 15 22:50:43 2021.
