 Gaussian 16, Revision A.03,
 Gaussian 16:  ES64L-G16RevA.03 25-Dec-2016

 ----------------------------------------------------------
 #p cam-b3lyp/Def2SVP td=(nstates=5) density=(transition=1)
 ----------------------------------------------------------

 --------------------------------
 TDDFT excited states in gaussian
 --------------------------------
 Symbolic Z-matrix:
 Charge =  0 Multiplicity = 1

                         Standard orientation:
 ---------------------------------------------------------------------
 Center     Atomic      Atomic             Coordinates (Angstroms)
 Number     Number       Type             X           Y           Z
 ---------------------------------------------------------------------
      1         12           0      -10.976563    0.530014    0.249169
      2          6           0       -8.031085   -0.641782   -1.243648
      3          6           0      -11.403242   -2.680154    1.680517
      4          6           0      -14.003769    1.523939    1.422888
      5          6           0      -10.812929    3.320247   -1.777861
      6          7           0       -9.755244   -1.317768    0.326624
      7          6           0       -8.485232   -1.460524   -0.239667
      8          6           0       -7.764568   -2.692621    0.417028
      9          6           0       -8.887072   -3.334825    1.240370
     10          6           0      -10.134956   -2.406025    1.038961
     11          6           0       -9.159520   -4.781839    0.748274
     12          6           0       -6.556402   -2.189967    1.197844
     13          6           0       -5.374958   -3.130599    1.369866
     14          1           0       -5.575028   -4.625456    1.032571
     15          7           0      -12.514508   -0.396747    1.402114
     16          6           0      -12.509819   -1.726805    1.863626
     17          6           0      -13.740550   -2.025067    2.574782
     18          6           0      -14.530428   -0.808902    2.600565
     19          6           0      -13.695881    0.163462    1.772280
     20          6           0      -14.011120   -3.336819    3.322673
     21          6           0      -15.862434   -0.503355    3.258318
     22          8           0      -16.352757    0.614467    3.170237
     23          6           0      -16.446439   -1.506531    4.177197
     24          7           0      -12.186665    2.250408   -0.100174
     25          6           0      -13.348014    2.461226    0.579703
     26          6           0      -13.870331    3.893121    0.291797
     27          6           0      -12.810180    4.516647   -0.696761
     28          6           0      -11.789255    3.355180   -0.811464
     29          6           0      -15.298358    3.837410   -0.279825
     30          6           0      -12.099016    5.792577   -0.172964
     31          6           0      -12.719845    7.019383   -0.833897
     32          7           0       -9.781235    1.236371   -1.316045
     33          6           0       -9.840799    2.332995   -2.109676
     34          6           0       -8.825933    2.161774   -3.177616
     35          6           0       -8.040384    1.100881   -2.833563
     36          6           0       -8.701327    0.544414   -1.708798
     37          6           0       -8.658670    3.188208   -4.285402
     38          6           0       -6.839623    0.313532   -3.143726
     39          8           0       -6.045066    0.444916   -4.066904
     40          6           0       -6.775334   -0.758670   -2.073200
     41          6           0       -6.600190   -2.027328   -2.797737
     42          8           0       -7.424740   -2.721061   -3.408137
     43          8           0       -5.256351   -2.338949   -2.765438
     44          6           0       -4.846182   -3.525500   -3.484455
     45          1           0      -11.458335   -3.654422    2.170181
     46          1           0      -14.933135    1.799050    1.925994
     47          1           0      -10.882695    4.184892   -2.441281
     48          1           0       -7.507974   -3.265949   -0.474610
     49          1           0       -8.478008   -3.474078    2.241011
     50          1           0      -10.117977   -4.924615    0.248910
     51          1           0       -9.343853   -5.373738    1.644362
     52          1           0       -8.387633   -5.137389    0.066000
     53          1           0       -6.975280   -1.850617    2.145688
     54          1           0       -6.208015   -1.262077    0.745782
     55          1           0       -4.997682   -3.030989    2.386731
     56          1           0       -4.643270   -2.670570    0.704778
     57          1           0      -13.260641   -4.108180    3.148761
     58          1           0      -14.975230   -3.745425    3.017028
     59          1           0      -14.142632   -3.111471    4.380326
     60          1           0      -15.787981   -1.610849    5.039910
     61          1           0      -16.741056   -2.407356    3.638905
     62          1           0      -17.374980   -1.152761    4.625365
     63          1           0      -13.939958    4.414080    1.246433
     64          1           0      -13.339860    4.630173   -1.643524
     65          1           0      -15.453778    4.305053   -1.251637
     66          1           0      -15.804867    4.446264    0.468766
     67          1           0      -15.682705    2.831192   -0.444495
     68          1           0      -11.089088    5.854352   -0.578733
     69          1           0      -12.132115    5.900779    0.911313
     70          1           0      -12.887633    7.701240   -0.000361
     71          1           0      -13.729290    6.861542   -1.212870
     72          1           0      -12.111666    7.495653   -1.603419
     73          1           0       -9.466442    3.915206   -4.373456
     74          1           0       -8.525245    2.730150   -5.264678
     75          1           0       -7.828752    3.843199   -4.017882
     76          1           0       -5.925319   -0.532466   -1.430276
     77          1           0       -5.254550   -3.456189   -4.493012
     78          1           0       -5.196985   -4.452824   -3.031037
     79          1           0       -3.794910   -3.355389   -3.714323
     80         12           0       11.059303    0.116124    0.571473
     81          6           0        8.882449   -1.872625   -1.272326
     82          6           0       11.934095    1.706235   -2.383179
     83          6           0       12.736270    2.420904    2.245086
     84          6           0        9.743300   -1.196169    3.491157
     85          7           0       10.368080    0.055928   -1.540134
     86          6           0        9.572421   -0.930331   -2.086131
     87          6           0        9.530477   -0.881561   -3.584853
     88          6           0       10.803350    0.017601   -3.911344
     89          6           0       11.049570    0.677469   -2.561082
     90          6           0       12.078498   -0.563536   -4.688113
     91          6           0        8.145330   -0.392554   -4.215924
     92          6           0        7.311341    0.649932   -3.413348
     93          1           0        6.687973    1.732153   -4.261765
     94          7           0       12.092681    1.907052    0.027201
     95          6           0       12.353336    2.379027   -1.265284
     96          6           0       13.060795    3.629773   -1.237412
     97          6           0       13.298260    3.887432    0.133830
     98          6           0       12.692108    2.754568    0.894850
     99          6           0       13.619653    4.228424   -2.529206
    100          6           0       14.086641    5.131145    0.603685
    101          8           0       14.461777    6.005634   -0.183911
    102          6           0       14.412522    5.182996    2.036949
    103          7           0       11.080948    0.577431    2.586456
    104          6           0       12.088485    1.414542    3.035451
    105          6           0       12.239120    1.405505    4.572635
    106          6           0       11.074135    0.386968    4.909649
    107          6           0       10.564333   -0.072105    3.616450
    108          6           0       13.550155    1.018682    5.180909
    109          6           0        9.872486    1.061599    5.745915
    110          6           0        9.462699    0.191044    6.905092
    111          7           0        9.733831   -1.409181    1.080226
    112          6           0        9.295846   -1.829031    2.322561
    113          6           0        8.302069   -2.915609    2.165818
    114          6           0        8.109058   -2.969326    0.741506
    115          6           0        8.988846   -2.043816    0.168180
    116          6           0        7.451117   -3.586233    3.166315
    117          6           0        7.340624   -3.543275   -0.383598
    118          8           0        6.408244   -4.313047   -0.361136
    119          6           0        7.835413   -2.892623   -1.715390
    120          6           0        8.281830   -3.925977   -2.650485
    121          8           0        7.851977   -4.224709   -3.764935
    122          8           0        9.164143   -4.774846   -1.932041
    123          6           0        9.779074   -5.864081   -2.720543
    124          1           0       12.364960    2.001149   -3.342796
    125          1           0       13.402941    2.996585    2.890344
    126          1           0        9.451380   -1.592995    4.465106
    127          1           0        9.655801   -1.882214   -3.998332
    128          1           0       10.349978    0.766557   -4.561153
    129          1           0       11.982775   -1.582970   -5.061446
    130          1           0       12.976665   -0.625163   -4.073759
    131          1           0       12.206344   -0.018733   -5.623902
    132          1           0        7.523450   -1.246512   -4.482460
    133          1           0        8.393462    0.034461   -5.187588
    134          1           0        7.915335    1.102925   -2.626569
    135          1           0        6.480825    0.151499   -2.914198
    136          1           0       13.668911    5.317758   -2.524362
    137          1           0       12.934990    4.010850   -3.348544
    138          1           0       14.626839    3.823388   -2.630102
    139          1           0       15.159674    4.418857    2.249244
    140          1           0       13.503896    5.054445    2.625980
    141          1           0       14.840384    6.173512    2.191329
    142          1           0       11.859822    2.358911    4.941140
    143          1           0       11.620151   -0.462005    5.320955
    144          1           0       13.353601    0.881667    6.244377
    145          1           0       14.198671    1.892730    5.120860
    146          1           0       13.963716    0.145559    4.674816
    147          1           0        9.065647    1.237037    5.034463
    148          1           0       10.026519    2.080902    6.102281
    149          1           0        8.470388   -0.204514    6.689733
    150          1           0        9.231290    0.771462    7.798832
    151          1           0       10.125707   -0.671325    6.971604
    152          1           0        7.596433   -3.272607    4.201126
    153          1           0        7.727927   -4.639403    3.133085
    154          1           0        6.473649   -3.199039    2.879374
    155          1           0        6.964475   -2.360395   -2.097166
    156          1           0       10.821306   -5.808372   -2.404214
    157          1           0        9.754233   -5.853289   -3.810243
    158          1           0        9.427355   -6.776272   -2.238209
 ---------------------------------------------------------------------

 SCF Done:  E(RCAM-B3LYP) =  -4069.80539473     A.U. after   19 cycles

 Excitation energies and oscillator strengths:

 Excited State   1:      Singlet-A      1.6776 eV  739.08 nm  f=0.4041  <S**2>=0.000
     310 -> 316       -0.17288
     312 -> 314        0.68705
     310 <- 316       -0.10449
 This state for optimization and/or second-order correction.
 Total Energy, E(TD-HF/TD-DFT) =  -4069.74374585
 Copying the excited state density for this state as the 1-particle RhoCI density.

 Excited State   2:      Singlet-A      1.7178 eV  721.74 nm  f=0.3625  <S**2>=0.000
     309 -> 315       -0.18166
     311 -> 313        0.68354
     309 <- 315       -0.10494

 Excited State   3:      Singlet-A      2.1965 eV  564.47 nm  f=0.1198  <S**2>=0.000
     310 -> 314        0.64337
     312 -> 316        0.27290

 Excited State   4:      Singlet-A      2.2041 eV  562.51 nm  f=0.0893  <S**2>=0.000
     309 -> 313        0.62792
     311 -> 315        0.30416

 Excited State   5:      Singlet-A      2.8719 eV  431.71 nm  f=0.0000  <S**2>=0.000
     312 -> 313        0.70704

 The electronic state is 1-A.
 Alpha  occ. eigenvalues --  -46.89102 -46.88990 -19.24332 -19.24232 -19.20523
 Alpha  occ. eigenvalues --  -19.19595 -19.19140 -19.19098 -19.19022 -19.18819
 Alpha  occ. eigenvalues --  -14.42228 -14.42204 -14.42057 -14.41618 -14.39995
 Alpha  occ. eigenvalues --  -14.39640 -14.39181 -14.39072 -10.39718 -10.39163
 Alpha  occ. eigenvalues --  -10.35373 -10.35245 -10.35115 -10.35104 -10.31854
 Alpha  occ. eigenvalues --  -10.31625 -10.31290 -10.31172 -10.31082 -10.31024
 Alpha  occ. eigenvalues --  -10.30866 -10.30704 -10.30679 -10.30626 -10.30511
 Alpha  occ. eigenvalues --  -10.30192 -10.30077 -10.29967 -10.29415 -10.29350
 Alpha  occ. eigenvalues --  -10.29223 -10.28953 -10.28844 -10.28676 -10.28520
 Alpha  occ. eigenvalues --  -10.28461 -10.28406 -10.28374 -10.28330 -10.28234
 Alpha  occ. eigenvalues --  -10.28182 -10.28158 -10.28083 -10.28042 -10.27923
 Alpha  occ. eigenvalues --  -10.27682 -10.27649 -10.27619 -10.27529 -10.27503
 Alpha  occ. eigenvalues --  -10.27491 -10.27457 -10.27297 -10.27237 -10.27179
 Alpha  occ. eigenvalues --  -10.27136 -10.27107 -10.26977 -10.26864 -10.26729
 Alpha  occ. eigenvalues --  -10.26617 -10.26406 -10.26399 -10.26235 -10.26194
 Alpha  occ. eigenvalues --  -10.26104 -10.26050 -10.26022 -10.25952 -10.25780
 Alpha  occ. eigenvalues --  -10.25384 -10.25381 -10.25375 -10.25162 -10.24918
 Alpha  occ. eigenvalues --  -10.24640  -3.17627  -3.17388  -1.92511  -1.92302
 Alpha  occ. eigenvalues --   -1.92098  -1.91920  -1.91802  -1.91720  -1.15578
 Alpha  occ. eigenvalues --   -1.14806  -1.10359  -1.10352  -1.09850  -1.09370
 Alpha  occ. eigenvalues --   -1.06887  -1.06658  -1.05072  -1.04192  -1.03711
 Alpha  occ. eigenvalues --   -1.03180  -1.02667  -1.02503  -1.02338  -1.01500
 Alpha  occ. eigenvalues --   -0.93218  -0.92457  -0.89665  -0.89220  -0.89105
 Alpha  occ. eigenvalues --   -0.88676  -0.87973  -0.87846  -0.87654  -0.86983
 Alpha  occ. eigenvalues --   -0.86882  -0.86727  -0.86182  -0.85464  -0.84832
 Alpha  occ. eigenvalues --   -0.84458  -0.84163  -0.83758  -0.82720  -0.82573
 Alpha  occ. eigenvalues --   -0.82367  -0.82273  -0.80838  -0.80744  -0.80141
 Alpha  occ. eigenvalues --   -0.79882  -0.78329  -0.77979  -0.77498  -0.77112
 Alpha  occ. eigenvalues --   -0.76827  -0.76657  -0.76210  -0.75805  -0.75744
 Alpha  occ. eigenvalues --   -0.74410  -0.72642  -0.72403  -0.72133  -0.70873
 Alpha  occ. eigenvalues --   -0.69408  -0.69374  -0.68912  -0.68377  -0.68081
 Alpha  occ. eigenvalues --   -0.67779  -0.66934  -0.66819  -0.66417  -0.65314
 Alpha  occ. eigenvalues --   -0.64893  -0.64760  -0.64500  -0.64499  -0.63990
 Alpha  occ. eigenvalues --   -0.63754  -0.62536  -0.61940  -0.60278  -0.60005
 Alpha  occ. eigenvalues --   -0.59503  -0.59375  -0.58940  -0.58933  -0.58633
 Alpha  occ. eigenvalues --   -0.58280  -0.58220  -0.57518  -0.57513  -0.57245
 Alpha  occ. eigenvalues --   -0.56325  -0.55827  -0.55748  -0.55620  -0.55343
 Alpha  occ. eigenvalues --   -0.55093  -0.54913  -0.54621  -0.54590  -0.53881
 Alpha  occ. eigenvalues --   -0.53520  -0.53493  -0.53275  -0.53169  -0.52911
 Alpha  occ. eigenvalues --   -0.52739  -0.52714  -0.52681  -0.52626  -0.52180
 Alpha  occ. eigenvalues --   -0.51986  -0.51722  -0.51615  -0.51582  -0.51234
 Alpha  occ. eigenvalues --   -0.51110  -0.50851  -0.50629  -0.50453  -0.50274
 Alpha  occ. eigenvalues --   -0.50215  -0.49711  -0.49632  -0.49547  -0.49468
 Alpha  occ. eigenvalues --   -0.49267  -0.49196  -0.49115  -0.48873  -0.48809
 Alpha  occ. eigenvalues --   -0.48559  -0.48486  -0.48304  -0.48167  -0.48047
 Alpha  occ. eigenvalues --   -0.47730  -0.47715  -0.47252  -0.47245  -0.47012
 Alpha  occ. eigenvalues --   -0.46914  -0.46603  -0.46499  -0.46268  -0.46262
 Alpha  occ. eigenvalues --   -0.46197  -0.45893  -0.45752  -0.45719  -0.45380
 Alpha  occ. eigenvalues --   -0.45121  -0.45086  -0.45000  -0.44964  -0.44808
 Alpha  occ. eigenvalues --   -0.44690  -0.44640  -0.44596  -0.44316  -0.44272
 Alpha  occ. eigenvalues --   -0.44088  -0.43927  -0.43475  -0.43423  -0.43280
 Alpha  occ. eigenvalues --   -0.43214  -0.43099  -0.43050  -0.42891  -0.42745
 Alpha  occ. eigenvalues --   -0.42657  -0.42489  -0.42473  -0.42222  -0.42126
 Alpha  occ. eigenvalues --   -0.41959  -0.41776  -0.41707  -0.41682  -0.41398
 Alpha  occ. eigenvalues --   -0.41207  -0.41111  -0.40841  -0.40436  -0.40309
 Alpha  occ. eigenvalues --   -0.40003  -0.39800  -0.39083  -0.38777  -0.38500
 Alpha  occ. eigenvalues --   -0.38357  -0.37969  -0.37916  -0.37809  -0.37592
 Alpha  occ. eigenvalues --   -0.37430  -0.36895  -0.36530  -0.36315  -0.36089
 Alpha  occ. eigenvalues --   -0.35719  -0.35645  -0.35147  -0.34788  -0.34179
 Alpha  occ. eigenvalues --   -0.33948  -0.33317  -0.32489  -0.31469  -0.31301
 Alpha  occ. eigenvalues --   -0.31267  -0.31203  -0.31144  -0.30810  -0.30148
 Alpha  occ. eigenvalues --   -0.29955  -0.29859  -0.29656  -0.24092  -0.23675
 Alpha  occ. eigenvalues --   -0.21212  -0.20808
 Alpha virt. eigenvalues --   -0.08663  -0.08544  -0.02245  -0.01340   0.00323
 Alpha virt. eigenvalues --    0.00637   0.01715   0.01955   0.02530   0.02631
 Alpha virt. eigenvalues --    0.04098   0.04958   0.05346   0.05381   0.05996

 Mulliken charges:
               1
     1  Mg  11.999563
     2  C    6.029200
     3  C    5.987530
     4  C    5.970314
     5  C    6.011870
     6  N    7.014969
     7  C    5.961692
     8  C    6.005823
     9  C    5.987253
    10  C    6.032560
    11  C    5.997767
    12  C    6.004730
    13  C    6.000037
    14  H    0.992754
    15  N    6.990641
    16  C    6.045649
    17  C    6.017528
    18  C    6.019830
    19  C    6.036305
    20  C    5.995999
    21  C    6.014212
    22  O    8.030952
    23  C    5.991469
    24  N    6.992849
    25  C    6.037757
    26  C    5.991318
    27  C    6.012571
    28  C    5.970149
    29  C    5.997302
    30  C    6.004878
    31  C    6.001998
    32  N    7.004361
    33  C    5.958382
    34  C    5.970542
    35  C    5.997498
    36  C    5.959373
    37  C    6.004793
    38  C    5.982034
    39  O    7.972002
    40  C    5.998890
    41  C    5.996581
    42  O    7.992249
    43  O    7.999424
    44  C    6.001718
    45  H    1.013492
    46  H    1.001373
    47  H    0.988180
    48  H    1.002709
    49  H    1.007301
    50  H    0.998814
    51  H    0.999288
    52  H    1.014111
    53  H    0.989669
    54  H    1.008140
    55  H    0.996501
    56  H    1.004479
    57  H    1.018033
    58  H    1.018861
    59  H    1.018445
    60  H    1.007700
    61  H    1.007941
    62  H    1.016061
    63  H    0.998817
    64  H    0.995877
    65  H    1.009625
    66  H    1.000364
    67  H    0.994859
    68  H    1.005110
    69  H    0.989667
    70  H    0.994073
    71  H    0.994060
    72  H    1.001420
    73  H    0.980283
    74  H    0.980004
    75  H    0.977593
    76  H    0.992481
    77  H    0.999360
    78  H    0.992865
    79  H    0.997129
    80  Mg  11.999981
    81  C    5.999751
    82  C    6.000525
    83  C    6.000346
    84  C    5.999555
    85  N    7.000152
    86  C    6.000709
    87  C    5.999684
    88  C    6.000121
    89  C    5.999509
    90  C    6.000053
    91  C    5.999927
    92  C    5.999465
    93  H    1.001233
    94  N    7.000165
    95  C    5.999260
    96  C    5.999908
    97  C    5.999701
    98  C    5.999445
    99  C    6.000028
   100  C    5.999786
   101  O    7.999626
   102  C    6.000149
   103  N    6.999956
   104  C    5.999336
   105  C    6.000304
   106  C    5.999852
   107  C    6.000585
   108  C    6.000101
   109  C    5.999938
   110  C    6.000032
   111  N    6.999966
   112  C    6.000655
   113  C    6.000169
   114  C    6.000260
   115  C    6.000413
   116  C    5.999919
   117  C    6.000333
   118  O    8.000660
   119  C    5.999997
   120  C    6.000037
   121  O    8.000448
   122  O    7.999812
   123  C    6.000104
   124  H    0.999844
   125  H    0.999614
   126  H    0.999817
   127  H    0.999927
   128  H    1.000188
   129  H    0.999731
   130  H    0.999745
   131  H    0.999991
   132  H    1.000234
   133  H    1.000230
   134  H    0.999779
   135  H    1.000411
   136  H    0.999775
   137  H    0.999962
   138  H    0.999525
   139  H    0.999686
   140  H    0.999919
   141  H    0.999622
   142  H    0.999890
   143  H    0.999773
   144  H    0.999591
   145  H    0.999937
   146  H    0.999816
   147  H    1.000288
   148  H    1.000078
   149  H    0.999981
   150  H    0.999815
   151  H    0.999805
   152  H    0.999996
   153  H    0.999941
   154  H    1.000552
   155  H    1.000832
   156  H    0.999817
   157  H    1.000130
   158  H    0.999804
 Sum of Mulliken charges = 624.00000

 Dipole moment (field-independent basis, Debye):
    X=             -7.2851    Y=             -4.7741    Z=              7.1538  Tot=             11.2713
 Quadrupole moment (field-independent basis, Debye-Ang):
   XX=            157.1219   YY=             -3.4210   ZZ=             -3.0158
   XY=             51.8147   XZ=            -80.7538   YZ=              1.1975

 Normal termination of Gaussian 16 at Wed Sep 22 22:21:23 2021.
