 Gaussian 16, Revision A.03,
 Gaussian 16:  ES64L-G16RevA.03 25-Dec-2016

 -----------------------------------
 #p cam-b3lyp/Def2SVP td=(nstates=5)
 -----------------------------------

 --------------------------------
 TDDFT excited states in gaussian
 --------------------------------
 Symbolic Z-matrix:
 Charge =  0 Multiplicity = 1

                         Standard orientation:
 ---------------------------------------------------------------------
 Center     Atomic      Atomic             Coordinates (Angstroms)
 Number     Number       Type             X           Y           Z
 ---------------------------------------------------------------------
      1         12           0        4.838136   -0.701450   -0.457036
      2          6           0        2.935421    2.064542   -1.055880
      3          6           0        7.474719    1.432899    0.546411
      4          6           0        6.816588   -3.376305   -0.077412
      5          6           0        2.186305   -2.675328   -1.389974
      6          7           0        5.288869    1.472031   -0.568389
      7          6           0        4.275086    2.422151   -0.746082
      8          6           0        4.800726    3.874247   -0.564216
      9          6           0        6.254079    3.552200   -0.125756
     10          6           0        6.394444    2.040915   -0.100385
     11          6           0        7.505918    4.208381   -0.849871
     12          6           0        4.030997    4.788887    0.487212
     13          6           0        4.668999    6.198915    0.606621
     14          1           0        3.816836    7.302581   -0.021539
     15          7           0        6.900041   -0.934963    0.213188
     16          6           0        7.679797    0.047578    0.784436
     17          6           0        8.952427   -0.591274    1.098574
     18          6           0        8.748577   -1.995308    0.903950
     19          6           0        7.444912   -2.178581    0.347956
     20          6           0       10.097045    0.199814    1.603198
     21          6           0        9.876634   -3.062834    1.124088
     22          8           0        9.783079   -4.252599    0.759895
     23          6           0       11.189746   -2.653404    1.738575
     24          7           0        4.571226   -2.621699   -0.711980
     25          6           0        5.567107   -3.616389   -0.500803
     26          6           0        5.128801   -4.949024   -1.064595
     27          6           0        3.612677   -4.774904   -0.999490
     28          6           0        3.402872   -3.267456   -0.982158
     29          6           0        5.652065   -5.200033   -2.518706
     30          6           0        2.998743   -5.355694    0.293976
     31          6           0        2.644759   -6.818284    0.325805
     32          7           0        2.910564   -0.468796   -1.150477
     33          6           0        1.895566   -1.326253   -1.344489
     34          6           0        0.732647   -0.599649   -1.761033
     35          6           0        1.064701    0.733876   -1.650249
     36          6           0        2.402922    0.771219   -1.228685
     37          6           0       -0.550281   -1.270967   -2.107973
     38          6           0        0.553195    2.028967   -1.800746
     39          8           0       -0.552457    2.431871   -2.106656
     40          6           0        1.777234    2.982844   -1.409098
     41          6           0        2.038876    3.886201   -2.561798
     42          8           0        2.464678    3.577941   -3.648283
     43          8           0        1.882996    5.167900   -2.217082
     44          6           0        2.172893    6.192847   -3.292583
     45          1           0        8.178539    2.142384    0.986222
     46          1           0        7.447687   -4.258399    0.048104
     47          1           0        1.265179   -3.230874   -1.576096
     48          1           0        4.806116    4.363096   -1.538485
     49          1           0        6.387048    3.831329    0.919904
     50          1           0        8.352848    4.464783   -0.212865
     51          1           0        7.170821    4.997972   -1.522682
     52          1           0        7.907572    3.401155   -1.462229
     53          1           0        4.048654    4.191894    1.398191
     54          1           0        2.993004    4.875783    0.166350
     55          1           0        5.697499    6.173196    0.246578
     56          1           0        4.706099    6.430451    1.670694
     57          1           0       10.866174    0.204833    0.830617
     58          1           0       10.342022   -0.222894    2.577585
     59          1           0        9.793292    1.223502    1.822530
     60          1           0       11.825772   -3.528653    1.870938
     61          1           0       10.918799   -2.347907    2.750131
     62          1           0       11.740380   -1.853462    1.244299
     63          1           0        5.483006   -5.774290   -0.446256
     64          1           0        3.090960   -5.196539   -1.858394
     65          1           0        5.105971   -4.595843   -3.242119
     66          1           0        5.576821   -6.258238   -2.770392
     67          1           0        6.705671   -4.923840   -2.495964
     68          1           0        2.121749   -4.804903    0.631616
     69          1           0        3.667765   -5.160152    1.132110
     70          1           0        3.226446   -7.260623    1.134051
     71          1           0        3.099742   -7.199271   -0.588624
     72          1           0        1.575203   -7.025756    0.362830
     73          1           0       -1.225372   -1.262631   -1.253122
     74          1           0       -0.510931   -2.247262   -2.592066
     75          1           0       -1.015648   -0.621332   -2.849465
     76          1           0        1.487511    3.568176   -0.536128
     77          1           0        3.155159    5.954645   -3.701238
     78          1           0        2.235192    7.211904   -2.909925
     79          1           0        1.396321    6.104286   -4.052634
     80         12           0       -4.922917   -0.696927    0.278526
     81          6           0       -3.196164    2.342668    1.073609
     82          6           0       -7.597614    1.229467   -0.734657
     83          6           0       -6.670798   -3.454934    0.162267
     84          6           0       -2.185104   -2.394041    1.557048
     85          7           0       -5.459349    1.598757    0.443957
     86          6           0       -4.524009    2.567555    0.688267
     87          6           0       -5.080949    3.947635    0.247137
     88          6           0       -6.535502    3.608052   -0.286031
     89          6           0       -6.598874    2.040167   -0.187609
     90          6           0       -7.772037    4.254416    0.469210
     91          6           0       -4.239145    4.686867   -0.826973
     92          6           0       -3.984622    6.139005   -0.630584
     93          1           0       -4.842690    7.051349    0.326775
     94          7           0       -6.923198   -1.106956   -0.217714
     95          6           0       -7.855918   -0.214539   -0.745562
     96          6           0       -9.124261   -0.932655   -0.975151
     97          6           0       -8.807002   -2.336363   -0.817139
     98          6           0       -7.431917   -2.354380   -0.266419
     99          6           0      -10.429135   -0.313100   -1.374740
    100          6           0       -9.650480   -3.604783   -1.086390
    101          8           0       -9.188930   -4.759124   -1.207886
    102          6           0      -11.082741   -3.417230   -1.388922
    103          7           0       -4.497247   -2.566826    0.834803
    104          6           0       -5.463557   -3.543484    0.734121
    105          6           0       -4.861353   -4.955499    0.974948
    106          6           0       -3.309711   -4.606248    1.060529
    107          6           0       -3.309189   -3.089581    1.142078
    108          6           0       -5.390506   -5.794155    2.209015
    109          6           0       -2.427641   -5.091726   -0.078816
    110          6           0       -1.370825   -6.150487    0.299644
    111          7           0       -2.989245   -0.188453    0.964980
    112          6           0       -2.000158   -0.992811    1.479619
    113          6           0       -0.878999   -0.169878    1.951908
    114          6           0       -1.307729    1.129432    1.746100
    115          6           0       -2.587630    1.075563    1.150408
    116          6           0        0.401816   -0.598086    2.588665
    117          6           0       -0.872861    2.472256    1.888991
    118          8           0        0.235141    2.972753    2.234474
    119          6           0       -2.025293    3.290288    1.484648
    120          6           0       -2.357712    4.286893    2.561996
    121          8           0       -2.834203    4.026391    3.613533
    122          8           0       -2.101374    5.522235    2.132241
    123          6           0       -2.044398    6.591526    3.070257
    124          1           0       -8.493187    1.761068   -1.063482
    125          1           0       -7.112677   -4.453974    0.132635
    126          1           0       -1.362603   -2.934333    2.028642
    127          1           0       -5.115679    4.556013    1.151650
    128          1           0       -6.617957    3.881364   -1.337554
    129          1           0       -7.521612    5.011748    1.211540
    130          1           0       -8.243839    3.452422    1.038800
    131          1           0       -8.496432    4.641522   -0.248023
    132          1           0       -4.689053    4.646121   -1.819640
    133          1           0       -3.235551    4.275782   -0.932236
    134          1           0       -4.121169    6.666603   -1.575049
    135          1           0       -2.944879    6.244615   -0.322175
    136          1           0      -11.202497   -0.611414   -0.667247
    137          1           0      -10.673470   -0.722955   -2.354755
    138          1           0      -10.323321    0.754400   -1.570746
    139          1           0      -11.549027   -2.979645   -0.506146
    140          1           0      -11.487340   -4.423233   -1.497425
    141          1           0      -11.238076   -2.912167   -2.341888
    142          1           0       -5.038421   -5.505556    0.050175
    143          1           0       -2.938961   -5.055129    1.981970
    144          1           0       -6.156862   -5.232930    2.742442
    145          1           0       -4.590235   -6.158966    2.854035
    146          1           0       -5.817664   -6.714372    1.810149
    147          1           0       -1.969537   -4.324673   -0.703374
    148          1           0       -3.083405   -5.602929   -0.782831
    149          1           0       -0.370259   -6.019389   -0.111917
    150          1           0       -1.651029   -7.066895   -0.220457
    151          1           0       -1.225475   -6.307284    1.367617
    152          1           0        0.622814   -1.652221    2.418716
    153          1           0        0.306779   -0.568708    3.674020
    154          1           0        1.152394    0.134822    2.292989
    155          1           0       -1.714522    3.813374    0.580649
    156          1           0       -1.104681    6.470558    3.610989
    157          1           0       -2.815485    6.482823    3.833100
    158          1           0       -2.011053    7.557379    2.565458
 ---------------------------------------------------------------------

 SCF Done:  E(RCAM-B3LYP) =  -4069.83826065     A.U. after   18 cycles

 Excitation energies and oscillator strengths:

 Excited State   1:      Singlet-A      1.6206 eV  765.06 nm  f=0.8028  <S**2>=0.000
     309 -> 315        0.12580
     311 -> 314       -0.29234
     312 -> 313        0.59257
     312 -> 314        0.20021
 This state for optimization and/or second-order correction.
 Total Energy, E(TD-HF/TD-DFT) =  -4069.77870502
 Copying the excited state density for this state as the 1-particle RhoCI density.

 Excited State   2:      Singlet-A      1.7201 eV  720.78 nm  f=0.1290  <S**2>=0.000
     310 -> 316        0.15051
     311 -> 313       -0.31922
     311 -> 314        0.52950
     312 -> 313        0.21504
     312 -> 314        0.20808

 Excited State   3:      Singlet-A      2.1922 eV  565.58 nm  f=0.0530  <S**2>=0.000
     309 -> 313       -0.14770
     309 -> 314       -0.11435
     310 -> 313       -0.29965
     310 -> 314        0.55064
     311 -> 316       -0.22717

 Excited State   4:      Singlet-A      2.2370 eV  554.24 nm  f=0.0387  <S**2>=0.000
     309 -> 313        0.28907
     309 -> 314        0.10423
     310 -> 314        0.11183
     312 -> 313       -0.25633
     312 -> 314        0.53821
     312 -> 315       -0.11961

 Excited State   5:      Singlet-A      2.2477 eV  551.61 nm  f=0.1075  <S**2>=0.000
     309 -> 313        0.48312
     309 -> 314        0.21218
     310 -> 314        0.14595
     312 -> 313        0.10319
     312 -> 314       -0.34083
     312 -> 315       -0.21090

 The electronic state is 1-A.
 Alpha  occ. eigenvalues --  -46.88762 -46.87391 -19.24832 -19.24827 -19.19635
 Alpha  occ. eigenvalues --  -19.19489 -19.19136 -19.18648 -19.18493 -19.18469
 Alpha  occ. eigenvalues --  -14.42577 -14.41873 -14.41649 -14.41520 -14.39601
 Alpha  occ. eigenvalues --  -14.39438 -14.38772 -14.38757 -10.38857 -10.38405
 Alpha  occ. eigenvalues --  -10.35153 -10.35058 -10.34880 -10.34752 -10.32274
 Alpha  occ. eigenvalues --  -10.31855 -10.31441 -10.31424 -10.31291 -10.30955
 Alpha  occ. eigenvalues --  -10.30778 -10.30457 -10.30424 -10.30053 -10.29955
 Alpha  occ. eigenvalues --  -10.29638 -10.29490 -10.29463 -10.29177 -10.29113
 Alpha  occ. eigenvalues --  -10.29055 -10.28905 -10.28849 -10.28680 -10.28663
 Alpha  occ. eigenvalues --  -10.28322 -10.28262 -10.28170 -10.28033 -10.27950
 Alpha  occ. eigenvalues --  -10.27855 -10.27848 -10.27765 -10.27715 -10.27692
 Alpha  occ. eigenvalues --  -10.27528 -10.27507 -10.27422 -10.27379 -10.27346
 Alpha  occ. eigenvalues --  -10.27249 -10.27165 -10.26964 -10.26892 -10.26747
 Alpha  occ. eigenvalues --  -10.26678 -10.26652 -10.26595 -10.26522 -10.26427
 Alpha  occ. eigenvalues --  -10.26345 -10.26283 -10.26097 -10.26000 -10.25907
 Alpha  occ. eigenvalues --  -10.25808 -10.25775 -10.25746 -10.25730 -10.25673
 Alpha  occ. eigenvalues --  -10.25503 -10.25449 -10.25270 -10.25090 -10.25088
 Alpha  occ. eigenvalues --  -10.24929  -3.17342  -3.16170  -1.92224  -1.91812
 Alpha  occ. eigenvalues --   -1.91643  -1.91072  -1.90641  -1.90469  -1.18453
 Alpha  occ. eigenvalues --   -1.16825  -1.10641  -1.09549  -1.08230  -1.08221
 Alpha  occ. eigenvalues --   -1.08152  -1.07055  -1.05336  -1.04733  -1.03756
 Alpha  occ. eigenvalues --   -1.03685  -1.03035  -1.02353  -1.01875  -1.01633
 Alpha  occ. eigenvalues --   -0.93377  -0.93176  -0.89145  -0.89113  -0.88661
 Alpha  occ. eigenvalues --   -0.88388  -0.88367  -0.88052  -0.87808  -0.87622
 Alpha  occ. eigenvalues --   -0.87085  -0.86784  -0.86477  -0.86144  -0.84401
 Alpha  occ. eigenvalues --   -0.84225  -0.83899  -0.83412  -0.82547  -0.82423
 Alpha  occ. eigenvalues --   -0.81918  -0.81575  -0.81419  -0.81102  -0.80543
 Alpha  occ. eigenvalues --   -0.80384  -0.78304  -0.78223  -0.77650  -0.77528
 Alpha  occ. eigenvalues --   -0.77035  -0.77013  -0.76252  -0.76100  -0.75109
 Alpha  occ. eigenvalues --   -0.75054  -0.73128  -0.73073  -0.71700  -0.71357
 Alpha  occ. eigenvalues --   -0.69522  -0.69321  -0.68926  -0.68683  -0.68358
 Alpha  occ. eigenvalues --   -0.67157  -0.66147  -0.65966  -0.65843  -0.65606
 Alpha  occ. eigenvalues --   -0.64937  -0.64710  -0.64551  -0.64518  -0.64308
 Alpha  occ. eigenvalues --   -0.64001  -0.62917  -0.62008  -0.60232  -0.60209
 Alpha  occ. eigenvalues --   -0.59913  -0.59743  -0.59239  -0.59029  -0.58915
 Alpha  occ. eigenvalues --   -0.58719  -0.58203  -0.58106  -0.57850  -0.57539
 Alpha  occ. eigenvalues --   -0.56436  -0.56343  -0.55988  -0.55946  -0.55031
 Alpha  occ. eigenvalues --   -0.54929  -0.54781  -0.54626  -0.54083  -0.53831
 Alpha  occ. eigenvalues --   -0.53538  -0.53293  -0.53175  -0.53043  -0.52874
 Alpha  occ. eigenvalues --   -0.52839  -0.52702  -0.52620  -0.52351  -0.52196
 Alpha  occ. eigenvalues --   -0.51881  -0.51696  -0.51509  -0.51492  -0.51413
 Alpha  occ. eigenvalues --   -0.51252  -0.50980  -0.50442  -0.50138  -0.50083
 Alpha  occ. eigenvalues --   -0.50042  -0.49949  -0.49813  -0.49808  -0.49505
 Alpha  occ. eigenvalues --   -0.49180  -0.49043  -0.48972  -0.48886  -0.48622
 Alpha  occ. eigenvalues --   -0.48547  -0.48495  -0.48297  -0.48209  -0.48071
 Alpha  occ. eigenvalues --   -0.48009  -0.47712  -0.47629  -0.47416  -0.47348
 Alpha  occ. eigenvalues --   -0.47049  -0.46936  -0.46768  -0.46738  -0.46432
 Alpha  occ. eigenvalues --   -0.46425  -0.46008  -0.45963  -0.45891  -0.45827
 Alpha  occ. eigenvalues --   -0.45711  -0.45709  -0.45356  -0.45208  -0.45172
 Alpha  occ. eigenvalues --   -0.44776  -0.44601  -0.44479  -0.44351  -0.44140
 Alpha  occ. eigenvalues --   -0.43759  -0.43657  -0.43502  -0.43398  -0.43348
 Alpha  occ. eigenvalues --   -0.43293  -0.42873  -0.42765  -0.42586  -0.42401
 Alpha  occ. eigenvalues --   -0.41965  -0.41904  -0.41777  -0.41732  -0.41664
 Alpha  occ. eigenvalues --   -0.41526  -0.41413  -0.41246  -0.41037  -0.40966
 Alpha  occ. eigenvalues --   -0.40859  -0.40777  -0.40556  -0.40281  -0.40215
 Alpha  occ. eigenvalues --   -0.40072  -0.40011  -0.39591  -0.39532  -0.38680
 Alpha  occ. eigenvalues --   -0.38479  -0.38134  -0.37812  -0.37622  -0.37381
 Alpha  occ. eigenvalues --   -0.36820  -0.36805  -0.36593  -0.36469  -0.36374
 Alpha  occ. eigenvalues --   -0.35831  -0.35689  -0.34507  -0.34114  -0.33948
 Alpha  occ. eigenvalues --   -0.33902  -0.33176  -0.32781  -0.31638  -0.31466
 Alpha  occ. eigenvalues --   -0.31394  -0.31222  -0.30760  -0.30640  -0.30482
 Alpha  occ. eigenvalues --   -0.30258  -0.29380  -0.29011  -0.24481  -0.23955
 Alpha  occ. eigenvalues --   -0.21189  -0.21006
 Alpha virt. eigenvalues --   -0.09028  -0.08804  -0.01437  -0.01319  -0.00259
 Alpha virt. eigenvalues --    0.00485   0.02029   0.02422   0.02643   0.03457
 Alpha virt. eigenvalues --    0.04896   0.05522   0.05700   0.06220   0.06294

 Mulliken charges:
               1
     1  Mg   0.826372
     2  C    0.019661
     3  C   -0.058597
     4  C   -0.069952
     5  C   -0.097678
     6  N   -0.268652
     7  C   -0.049452
     8  C    0.016346
     9  C   -0.103832
    10  C    0.039247
    11  C    0.063824
    12  C    0.037605
    13  C   -0.056352
    14  H    0.027344
    15  N   -0.358871
    16  C    0.139909
    17  C   -0.202976
    18  C   -0.036146
    19  C    0.110693
    20  C    0.139470
    21  C    0.019108
    22  O   -0.226014
    23  C    0.056093
    24  N   -0.391655
    25  C    0.083738
    26  C   -0.019086
    27  C   -0.020796
    28  C    0.119546
    29  C    0.088327
    30  C   -0.002012
    31  C    0.049010
    32  N   -0.339862
    33  C    0.087703
    34  C   -0.167821
    35  C    0.074941
    36  C    0.101512
    37  C    0.099490
    38  C    0.019608
    39  O   -0.166134
    40  C   -0.057350
    41  C    0.177067
    42  O   -0.217909
    43  O   -0.329978
    44  C    0.179489
    45  H   -0.026958
    46  H   -0.007131
    47  H   -0.030191
    48  H    0.015520
    49  H    0.010690
    50  H    0.019846
    51  H    0.021392
    52  H    0.014312
    53  H    0.019825
    54  H    0.038788
    55  H    0.027515
    56  H    0.030354
    57  H    0.042688
    58  H    0.027798
    59  H    0.001639
    60  H    0.024133
    61  H    0.024987
    62  H    0.039944
    63  H   -0.000034
    64  H   -0.005115
    65  H    0.020462
    66  H    0.018720
    67  H    0.019493
    68  H   -0.005473
    69  H   -0.004545
    70  H    0.012438
    71  H   -0.001203
    72  H    0.027196
    73  H    0.058621
    74  H    0.021201
    75  H    0.020809
    76  H    0.054335
    77  H    0.042001
    78  H    0.041539
    79  H    0.048623
    80  Mg   0.829194
    81  C    0.009134
    82  C   -0.021115
    83  C   -0.062590
    84  C   -0.097732
    85  N   -0.253026
    86  C   -0.053777
    87  C    0.019158
    88  C   -0.060246
    89  C    0.019966
    90  C    0.057355
    91  C    0.041230
    92  C   -0.079553
    93  H   -0.006503
    94  N   -0.363535
    95  C    0.091337
    96  C   -0.170364
    97  C   -0.041562
    98  C    0.129862
    99  C    0.140523
   100  C    0.009620
   101  O   -0.230057
   102  C    0.054973
   103  N   -0.351569
   104  C    0.077831
   105  C   -0.075203
   106  C   -0.035702
   107  C    0.085520
   108  C    0.075478
   109  C    0.066510
   110  C   -0.020822
   111  N   -0.324845
   112  C    0.084866
   113  C   -0.157320
   114  C   -0.007873
   115  C    0.115025
   116  C    0.128007
   117  C    0.049062
   118  O   -0.227833
   119  C    0.041886
   120  C    0.152036
   121  O   -0.174750
   122  O   -0.298253
   123  C    0.180976
   124  H   -0.038175
   125  H   -0.006160
   126  H   -0.031322
   127  H    0.019683
   128  H    0.017588
   129  H    0.018989
   130  H    0.018099
   131  H    0.017911
   132  H    0.009858
   133  H    0.028158
   134  H    0.021259
   135  H    0.037811
   136  H    0.036125
   137  H    0.020162
   138  H    0.012121
   139  H    0.032176
   140  H    0.020222
   141  H    0.045220
   142  H    0.021152
   143  H    0.000411
   144  H    0.030126
   145  H    0.013503
   146  H    0.016375
   147  H    0.009839
   148  H   -0.002774
   149  H    0.008582
   150  H    0.011484
   151  H    0.019816
   152  H    0.010841
   153  H    0.031740
   154  H    0.050467
   155  H    0.046899
   156  H    0.026167
   157  H    0.038415
   158  H    0.042720
 Sum of Mulliken charges =  -0.00000

 Dipole moment (field-independent basis, Debye):
    X=              0.4433    Y=              3.2583    Z=              0.4656  Tot=              3.3211
 Quadrupole moment (field-independent basis, Debye-Ang):
   XX=           -490.2650   YY=           -483.7645   ZZ=           -524.9194
   XY=             12.2945   XZ=             21.5013   YZ=             -9.0429

 Normal termination of Gaussian 16 at Thu Sep  2 11:35:53 2021.
