 Gaussian 16, Revision A.03,
 Gaussian 16:  ES64L-G16RevA.03 25-Dec-2016

 -----------------------------------
 #p cam-b3lyp/Def2SVP td=(nstates=5)
 -----------------------------------

 --------------------------------
 TDDFT excited states in gaussian
 --------------------------------
 Symbolic Z-matrix:
 Charge =  0 Multiplicity = 1

                         Standard orientation:
 ---------------------------------------------------------------------
 Center     Atomic      Atomic             Coordinates (Angstroms)
 Number     Number       Type             X           Y           Z
 ---------------------------------------------------------------------
      1         12           0       26.114426    0.805430    0.282516
      2          6           0       26.778186   -2.636234   -0.102895
      3          6           0       23.784369    0.554826   -2.231335
      4          6           0       25.479398    4.094007    0.532561
      5          6           0       28.874868    1.124291    2.408890
      6          7           0       25.347813   -0.898302   -0.853657
      7          6           0       25.678631   -2.185172   -0.911223
      8          6           0       24.872186   -3.061312   -1.892342
      9          6           0       24.174307   -1.859197   -2.694899
     10          6           0       24.496795   -0.624505   -1.889176
     11          6           0       24.638988   -1.733563   -4.125501
     12          6           0       23.795593   -4.051261   -1.177838
     13          6           0       23.484829   -5.300189   -2.007931
     14          1           0       23.851287   -6.634244   -1.308020
     15          7           0       24.681145    2.155037   -0.599639
     16          6           0       23.830789    1.822181   -1.683009
     17          6           0       22.901607    2.919284   -1.833732
     18          6           0       23.352285    3.959417   -1.025891
     19          6           0       24.546129    3.440508   -0.287471
     20          6           0       21.805182    2.961001   -2.881373
     21          6           0       22.807480    5.347933   -0.780995
     22          8           0       23.326458    6.054514    0.033088
     23          6           0       21.581470    5.854429   -1.473021
     24          7           0       27.140746    2.424005    1.149674
     25          6           0       26.638789    3.692354    1.182093
     26          6           0       27.587782    4.514159    2.097956
     27          6           0       28.220693    3.517383    3.052307
     28          6           0       28.121202    2.246772    2.175710
     29          6           0       28.678864    5.160300    1.245382
     30          6           0       27.550813    3.409187    4.371990
     31          6           0       26.047863    3.288780    4.424225
     32          7           0       27.544280   -0.455696    1.062136
     33          6           0       28.615324   -0.213619    1.901626
     34          6           0       29.312373   -1.483370    2.158471
     35          6           0       28.602543   -2.440059    1.412169
     36          6           0       27.574684   -1.787362    0.788093
     37          6           0       30.517673   -1.666513    2.975572
     38          6           0       28.434229   -3.844858    1.153115
     39          8           0       29.067794   -4.849750    1.591014
     40          6           0       27.187795   -3.998140    0.159155
     41          6           0       27.721784   -4.638730   -1.095765
     42          8           0       28.712423   -4.260179   -1.647160
     43          8           0       26.934671   -5.696222   -1.626886
     44          6           0       27.280305   -6.105966   -3.022045
     45          1           0       23.078054    0.507280   -3.062089
     46          1           0       25.371994    5.180519    0.566271
     47          1           0       29.634035    1.117173    3.194130
     48          1           0       25.545838   -3.709735   -2.453943
     49          1           0       23.113196   -2.109849   -2.665873
     50          1           0       23.887842   -2.239008   -4.732251
     51          1           0       25.660744   -2.084565   -4.271658
     52          1           0       24.492538   -0.677911   -4.353856
     53          1           0       22.855179   -3.522359   -1.019899
     54          1           0       24.135331   -4.331770   -0.180641
     55          1           0       24.050694   -5.099795   -2.917967
     56          1           0       22.447106   -5.324974   -2.339975
     57          1           0       21.665963    1.917908   -3.162874
     58          1           0       22.289670    3.468982   -3.714749
     59          1           0       20.873774    3.374276   -2.493820
     60          1           0       20.829378    5.252652   -0.962515
     61          1           0       21.540327    5.639194   -2.540425
     62          1           0       21.457942    6.922750   -1.292165
     63          1           0       27.119689    5.342337    2.628911
     64          1           0       29.253278    3.727583    3.329046
     65          1           0       29.677061    4.723007    1.221229
     66          1           0       28.777457    6.194248    1.575873
     67          1           0       28.316910    5.206593    0.217645
     68          1           0       27.842479    4.216974    5.043609
     69          1           0       27.964989    2.495950    4.798851
     70          1           0       25.847004    2.277721    4.779673
     71          1           0       25.399486    3.425016    3.558183
     72          1           0       25.683229    3.959484    5.202073
     73          1           0       31.356382   -1.212979    2.447497
     74          1           0       30.583755   -2.747498    3.098361
     75          1           0       30.440854   -1.135930    3.925566
     76          1           0       26.459750   -4.580093    0.724595
     77          1           0       28.175419   -6.727878   -3.022538
     78          1           0       27.439611   -5.259490   -3.691581
     79          1           0       26.562494   -6.757373   -3.519738
     80         12           0      -26.787796   -0.171562   -0.089155
     81          6           0      -23.357383   -0.700417   -0.303600
     82          6           0      -26.682434   -1.505927    3.109603
     83          6           0      -29.908358    0.767377    0.463742
     84          6           0      -26.676662    1.585107   -3.069137
     85          7           0      -25.197053   -0.852381    1.305952
     86          6           0      -23.889031   -1.111512    0.951234
     87          6           0      -23.132563   -1.850490    2.015175
     88          6           0      -24.317675   -2.419599    2.913460
     89          6           0      -25.473167   -1.532331    2.469783
     90          6           0      -24.606324   -3.990086    3.045170
     91          6           0      -22.018482   -0.997502    2.781495
     92          6           0      -22.278019    0.526254    2.974495
     93          1           0      -21.887309    1.055390    4.333524
     94          7           0      -28.093327   -0.235241    1.602903
     95          6           0      -27.855503   -0.851654    2.837688
     96          6           0      -28.960305   -0.670818    3.738993
     97          6           0      -29.936812    0.026472    2.988459
     98          6           0      -29.353952    0.255011    1.632731
     99          6           0      -29.000422   -1.422968    5.070194
    100          6           0      -31.318613    0.382746    3.582452
    101          8           0      -31.600257    0.163134    4.764911
    102          6           0      -32.297644    0.947236    2.641186
    103          7           0      -28.018928    1.116561   -1.137240
    104          6           0      -29.366983    1.104632   -0.820874
    105          6           0      -30.240892    1.811025   -1.880591
    106          6           0      -29.086299    2.251441   -2.871112
    107          6           0      -27.856206    1.675595   -2.324959
    108          6           0      -31.335424    1.048596   -2.558192
    109          6           0      -28.924085    3.851884   -2.974542
    110          6           0      -28.804054    4.293369   -4.409870
    111          7           0      -25.369938    0.207198   -1.568507
    112          6           0      -25.475654    0.943620   -2.733842
    113          6           0      -24.170054    0.972399   -3.431977
    114          6           0      -23.292648    0.321994   -2.496063
    115          6           0      -24.076651   -0.098723   -1.415491
    116          6           0      -23.736405    1.730667   -4.620181
    117          6           0      -21.903380   -0.049515   -2.153016
    118          8           0      -20.876612    0.195599   -2.742976
    119          6           0      -21.899942   -0.752804   -0.757592
    120          6           0      -21.292560   -2.080309   -0.859230
    121          8           0      -20.283570   -2.533104   -0.318001
    122          8           0      -21.915600   -2.732869   -1.955224
    123          6           0      -21.480231   -4.125375   -2.195411
    124          1           0      -26.655673   -2.152360    3.989882
    125          1           0      -30.983954    0.954769    0.449818
    126          1           0      -26.766696    2.092883   -4.031074
    127          1           0      -22.563448   -2.668641    1.573908
    128          1           0      -23.999817   -2.071708    3.896655
    129          1           0      -23.885643   -4.647466    2.559108
    130          1           0      -25.547301   -4.303260    2.593048
    131          1           0      -24.481628   -4.290784    4.085790
    132          1           0      -21.038262   -1.158099    2.333836
    133          1           0      -21.911023   -1.458978    3.763093
    134          1           0      -23.322170    0.767641    2.773208
    135          1           0      -21.687663    1.094271    2.256040
    136          1           0      -29.534791   -0.893075    5.859348
    137          1           0      -27.987635   -1.505968    5.463626
    138          1           0      -29.508732   -2.364612    4.861425
    139          1           0      -32.607016    0.161907    1.952156
    140          1           0      -31.862800    1.805844    2.128558
    141          1           0      -33.140925    1.249773    3.261966
    142          1           0      -30.578734    2.752520   -1.446889
    143          1           0      -29.307998    1.663445   -3.761714
    144          1           0      -31.658671    1.673029   -3.391238
    145          1           0      -32.181496    1.028882   -1.871235
    146          1           0      -30.990738    0.052543   -2.838510
    147          1           0      -28.053812    4.110642   -2.371549
    148          1           0      -29.679252    4.460865   -2.475978
    149          1           0      -27.784688    4.645772   -4.565525
    150          1           0      -29.343327    5.220790   -4.605526
    151          1           0      -28.933935    3.437212   -5.071542
    152          1           0      -24.502558    2.341086   -5.100505
    153          1           0      -23.444846    0.984278   -5.358280
    154          1           0      -23.048405    2.438017   -4.157568
    155          1           0      -21.309194   -0.092869   -0.122727
    156          1           0      -22.432173   -4.632982   -2.355272
    157          1           0      -20.923161   -4.679189   -1.439670
    158          1           0      -21.046410   -4.102367   -3.195268
 ---------------------------------------------------------------------

 SCF Done:  E(RCAM-B3LYP) =  -4069.80447182     A.U. after   18 cycles

 Excitation energies and oscillator strengths:

 Excited State   1:      Singlet-A      1.6959 eV  731.10 nm  f=0.3699  <S**2>=0.000
     309 -> 316        0.17409
     311 -> 313        0.68763
     309 <- 316        0.10608
 This state for optimization and/or second-order correction.
 Total Energy, E(TD-HF/TD-DFT) =  -4069.74215039
 Copying the excited state density for this state as the 1-particle RhoCI density.

 Excited State   2:      Singlet-A      1.7179 eV  721.72 nm  f=0.3718  <S**2>=0.000
     310 -> 315        0.18174
     312 -> 314        0.68354
     310 <- 315        0.10499

 Excited State   3:      Singlet-A      2.1842 eV  567.64 nm  f=0.1186  <S**2>=0.000
     309 -> 313        0.64719
     311 -> 316       -0.27033

 Excited State   4:      Singlet-A      2.2043 eV  562.47 nm  f=0.0883  <S**2>=0.000
     310 -> 314        0.62966
     312 -> 315       -0.30514

 Excited State   5:      Singlet-A      3.1680 eV  391.37 nm  f=0.0000  <S**2>=0.000
     312 -> 313        0.70710

 The electronic state is 1-A.
 Alpha  occ. eigenvalues --  -46.89136 -46.88608 -19.24484 -19.24376 -19.20572
 Alpha  occ. eigenvalues --  -19.20029 -19.19066 -19.19053 -19.18854 -19.18226
 Alpha  occ. eigenvalues --  -14.43400 -14.42266 -14.42237 -14.41325 -14.39691
 Alpha  occ. eigenvalues --  -14.39674 -14.39215 -14.39041 -10.39766 -10.39384
 Alpha  occ. eigenvalues --  -10.35170 -10.35151 -10.35135 -10.34726 -10.31835
 Alpha  occ. eigenvalues --  -10.31669 -10.31654 -10.31332 -10.31257 -10.31214
 Alpha  occ. eigenvalues --  -10.31105 -10.30933 -10.30710 -10.30665 -10.30593
 Alpha  occ. eigenvalues --  -10.30504 -10.30223 -10.30109 -10.29422 -10.29384
 Alpha  occ. eigenvalues --  -10.29374 -10.28990 -10.28841 -10.28788 -10.28708
 Alpha  occ. eigenvalues --  -10.28573 -10.28462 -10.28444 -10.28374 -10.28371
 Alpha  occ. eigenvalues --  -10.28352 -10.28295 -10.28239 -10.28226 -10.28191
 Alpha  occ. eigenvalues --  -10.28184 -10.28112 -10.28104 -10.27702 -10.27513
 Alpha  occ. eigenvalues --  -10.27330 -10.27209 -10.27192 -10.27168 -10.27159
 Alpha  occ. eigenvalues --  -10.27111 -10.27105 -10.26996 -10.26939 -10.26759
 Alpha  occ. eigenvalues --  -10.26679 -10.26636 -10.26571 -10.26401 -10.26249
 Alpha  occ. eigenvalues --  -10.26086 -10.26050 -10.25990 -10.25783 -10.25605
 Alpha  occ. eigenvalues --  -10.25417 -10.25382 -10.25103 -10.25092 -10.24446
 Alpha  occ. eigenvalues --  -10.24411  -3.17661  -3.17103  -1.92545  -1.92132
 Alpha  occ. eigenvalues --   -1.92025  -1.91954  -1.91534  -1.91419  -1.15599
 Alpha  occ. eigenvalues --   -1.14852  -1.12101  -1.10394  -1.09401  -1.07367
 Alpha  occ. eigenvalues --   -1.06934  -1.06640  -1.05282  -1.05102  -1.03748
 Alpha  occ. eigenvalues --   -1.03523  -1.03215  -1.02920  -1.02374  -1.01754
 Alpha  occ. eigenvalues --   -0.92937  -0.92496  -0.90033  -0.89685  -0.89424
 Alpha  occ. eigenvalues --   -0.89252  -0.88818  -0.88017  -0.87833  -0.87699
 Alpha  occ. eigenvalues --   -0.86920  -0.86911  -0.86215  -0.86206  -0.84862
 Alpha  occ. eigenvalues --   -0.84692  -0.84486  -0.83558  -0.82751  -0.82613
 Alpha  occ. eigenvalues --   -0.82459  -0.82417  -0.81099  -0.80875  -0.80184
 Alpha  occ. eigenvalues --   -0.79908  -0.78897  -0.78350  -0.77533  -0.77333
 Alpha  occ. eigenvalues --   -0.77092  -0.76878  -0.76271  -0.76249  -0.75779
 Alpha  occ. eigenvalues --   -0.74975  -0.72675  -0.72443  -0.72171  -0.71319
 Alpha  occ. eigenvalues --   -0.69690  -0.69457  -0.69393  -0.68835  -0.68120
 Alpha  occ. eigenvalues --   -0.67828  -0.67108  -0.66859  -0.66443  -0.65815
 Alpha  occ. eigenvalues --   -0.64933  -0.64926  -0.64540  -0.64190  -0.64031
 Alpha  occ. eigenvalues --   -0.63395  -0.62576  -0.61755  -0.60369  -0.60307
 Alpha  occ. eigenvalues --   -0.59925  -0.59409  -0.59132  -0.58973  -0.58968
 Alpha  occ. eigenvalues --   -0.58595  -0.58318  -0.57580  -0.57559  -0.57282
 Alpha  occ. eigenvalues --   -0.56381  -0.56355  -0.55855  -0.55747  -0.55380
 Alpha  occ. eigenvalues --   -0.55131  -0.54772  -0.54642  -0.54528  -0.54076
 Alpha  occ. eigenvalues --   -0.53966  -0.53924  -0.53704  -0.53601  -0.53031
 Alpha  occ. eigenvalues --   -0.52937  -0.52743  -0.52657  -0.52422  -0.52207
 Alpha  occ. eigenvalues --   -0.52013  -0.51868  -0.51647  -0.51617  -0.51514
 Alpha  occ. eigenvalues --   -0.51142  -0.50880  -0.50828  -0.50719  -0.50504
 Alpha  occ. eigenvalues --   -0.50307  -0.50188  -0.49997  -0.49678  -0.49664
 Alpha  occ. eigenvalues --   -0.49583  -0.49571  -0.49302  -0.49196  -0.49061
 Alpha  occ. eigenvalues --   -0.48854  -0.48596  -0.48328  -0.48287  -0.48208
 Alpha  occ. eigenvalues --   -0.48202  -0.47771  -0.47721  -0.47636  -0.47283
 Alpha  occ. eigenvalues --   -0.47163  -0.46948  -0.46695  -0.46533  -0.46342
 Alpha  occ. eigenvalues --   -0.46303  -0.46241  -0.45865  -0.45762  -0.45544
 Alpha  occ. eigenvalues --   -0.45417  -0.45392  -0.45207  -0.45151  -0.45021
 Alpha  occ. eigenvalues --   -0.45008  -0.44942  -0.44722  -0.44678  -0.44306
 Alpha  occ. eigenvalues --   -0.44156  -0.43959  -0.43718  -0.43490  -0.43451
 Alpha  occ. eigenvalues --   -0.43252  -0.43142  -0.43141  -0.43092  -0.42838
 Alpha  occ. eigenvalues --   -0.42780  -0.42511  -0.42511  -0.42452  -0.42163
 Alpha  occ. eigenvalues --   -0.41993  -0.41810  -0.41740  -0.41715  -0.41545
 Alpha  occ. eigenvalues --   -0.41255  -0.41030  -0.40917  -0.40491  -0.40365
 Alpha  occ. eigenvalues --   -0.40259  -0.40023  -0.39733  -0.39510  -0.39136
 Alpha  occ. eigenvalues --   -0.38541  -0.38330  -0.38007  -0.37702  -0.37464
 Alpha  occ. eigenvalues --   -0.37271  -0.37115  -0.36926  -0.36591  -0.36417
 Alpha  occ. eigenvalues --   -0.36180  -0.35689  -0.35186  -0.34832  -0.34670
 Alpha  occ. eigenvalues --   -0.34506  -0.33351  -0.33192  -0.31699  -0.31354
 Alpha  occ. eigenvalues --   -0.31304  -0.31234  -0.30846  -0.30302  -0.29996
 Alpha  occ. eigenvalues --   -0.29988  -0.29687  -0.29316  -0.24130  -0.24128
 Alpha  occ. eigenvalues --   -0.21374  -0.21246
 Alpha virt. eigenvalues --   -0.08947  -0.08697  -0.02278  -0.01725   0.00450
 Alpha virt. eigenvalues --    0.00601   0.01685   0.02186   0.02496   0.03274
 Alpha virt. eigenvalues --    0.04051   0.04666   0.04919   0.05313   0.05631

 Mulliken charges:
               1
     1  Mg   0.813720
     2  C   -0.040336
     3  C   -0.100318
     4  C   -0.056108
     5  C   -0.065206
     6  N   -0.248688
     7  C   -0.044814
     8  C   -0.042268
     9  C   -0.088374
    10  C    0.097231
    11  C    0.104628
    12  C    0.047570
    13  C   -0.047320
    14  H    0.045006
    15  N   -0.365826
    16  C    0.130088
    17  C   -0.165490
    18  C   -0.010032
    19  C    0.116005
    20  C    0.118456
    21  C   -0.027538
    22  O   -0.177939
    23  C    0.053330
    24  N   -0.336416
    25  C    0.059143
    26  C   -0.035994
    27  C    0.001073
    28  C    0.092584
    29  C    0.078985
    30  C    0.053799
    31  C   -0.013970
    32  N   -0.352945
    33  C    0.068140
    34  C   -0.192118
    35  C    0.046558
    36  C    0.100702
    37  C    0.125867
    38  C    0.022995
    39  O   -0.217243
    40  C    0.037690
    41  C    0.193557
    42  O   -0.181830
    43  O   -0.372694
    44  C    0.178962
    45  H   -0.015760
    46  H   -0.006738
    47  H   -0.026828
    48  H    0.020216
    49  H    0.010259
    50  H    0.008623
    51  H    0.034961
    52  H    0.001627
    53  H    0.003200
    54  H    0.019046
    55  H    0.008174
    56  H    0.020958
    57  H    0.008465
    58  H    0.052489
    59  H    0.037163
    60  H    0.038140
    61  H    0.030888
    62  H    0.035333
    63  H   -0.003201
    64  H   -0.009976
    65  H    0.023907
    66  H    0.009685
    67  H    0.009331
    68  H    0.006462
    69  H   -0.008911
    70  H    0.008043
    71  H    0.038130
    72  H    0.006346
    73  H    0.030635
    74  H    0.042252
    75  H    0.013572
    76  H    0.046815
    77  H    0.037678
    78  H    0.032990
    79  H    0.033401
    80  Mg   0.819861
    81  C   -0.024958
    82  C   -0.097595
    83  C   -0.086985
    84  C   -0.094192
    85  N   -0.283899
    86  C   -0.030052
    87  C   -0.040822
    88  C    0.001981
    89  C    0.000879
    90  C    0.064169
    91  C    0.029199
    92  C   -0.076356
    93  H    0.023183
    94  N   -0.359621
    95  C    0.167025
    96  C   -0.136596
    97  C   -0.064244
    98  C    0.184917
    99  C    0.126749
   100  C    0.000346
   101  O   -0.204494
   102  C    0.054773
   103  N   -0.295328
   104  C   -0.001558
   105  C   -0.034022
   106  C   -0.063451
   107  C    0.012414
   108  C    0.107191
   109  C    0.036498
   110  C    0.030430
   111  N   -0.342683
   112  C    0.151460
   113  C   -0.189604
   114  C   -0.004856
   115  C    0.088711
   116  C    0.130649
   117  C    0.030275
   118  O   -0.149233
   119  C    0.028486
   120  C    0.222595
   121  O   -0.208362
   122  O   -0.379718
   123  C    0.180156
   124  H   -0.029627
   125  H   -0.042285
   126  H   -0.043968
   127  H    0.010497
   128  H    0.006341
   129  H    0.011225
   130  H    0.026814
   131  H    0.022157
   132  H    0.028633
   133  H    0.010452
   134  H    0.047626
   135  H    0.030593
   136  H    0.035846
   137  H    0.016223
   138  H    0.041156
   139  H    0.048747
   140  H    0.044985
   141  H    0.024350
   142  H    0.004688
   143  H    0.008076
   144  H    0.019807
   145  H    0.014503
   146  H    0.025114
   147  H    0.015637
   148  H    0.007077
   149  H    0.005805
   150  H    0.014924
   151  H    0.023379
   152  H   -0.003576
   153  H    0.043702
   154  H    0.053167
   155  H    0.038581
   156  H    0.018975
   157  H    0.058634
   158  H    0.038425
 Sum of Mulliken charges =  -0.00000

 Dipole moment (field-independent basis, Debye):
    X=            -10.3385    Y=              1.9430    Z=             -5.7645  Tot=             11.9954
 Quadrupole moment (field-independent basis, Debye-Ang):
   XX=           -576.6769   YY=           -511.7861   ZZ=           -499.6014
   XY=            118.0533   XZ=             39.0388   YZ=              4.4206

 Normal termination of Gaussian 16 at Tue Sep 14 17:05:04 2021.
