 Gaussian 16, Revision A.03,
 Gaussian 16:  ES64L-G16RevA.03 25-Dec-2016

 ----------------------------------------------------------
 #p cam-b3lyp/Def2SVP td=(nstates=5) density=(transition=1)
 ----------------------------------------------------------

 --------------------------------
 TDDFT excited states in gaussian
 --------------------------------
 Symbolic Z-matrix:
 Charge =  0 Multiplicity = 1

                         Standard orientation:
 ---------------------------------------------------------------------
 Center     Atomic      Atomic             Coordinates (Angstroms)
 Number     Number       Type             X           Y           Z
 ---------------------------------------------------------------------
      1         12           0       13.442813    0.600192   -0.353789
      2          6           0       11.832203   -1.891622    1.563678
      3          6           0       15.108602   -1.714106   -2.010175
      4          6           0       15.527317    3.074821   -1.451006
      5          6           0       12.328181    2.978108    2.249729
      6          7           0       13.475828   -1.568157   -0.159990
      7          6           0       12.592397   -2.354709    0.488215
      8          6           0       12.719496   -3.797549   -0.038692
      9          6           0       13.710554   -3.734374   -1.156349
     10          6           0       14.185579   -2.250452   -1.111819
     11          6           0       14.799189   -4.881806   -1.081836
     12          6           0       11.412169   -4.575918   -0.406655
     13          6           0       11.344007   -5.604708   -1.615355
     14          1           0       10.640802   -6.951505   -1.391620
     15          7           0       14.932915    0.674073   -1.759203
     16          6           0       15.492210   -0.436174   -2.350475
     17          6           0       16.463220    0.020810   -3.303575
     18          6           0       16.666314    1.448644   -3.160311
     19          6           0       15.733850    1.779152   -2.060132
     20          6           0       17.175630   -0.990210   -4.107351
     21          6           0       17.551118    2.431207   -3.966617
     22          8           0       17.609008    3.575244   -3.656248
     23          6           0       18.137162    2.018402   -5.277456
     24          7           0       13.885423    2.719392    0.374078
     25          6           0       14.696423    3.484143   -0.390937
     26          6           0       14.767890    4.958294    0.121169
     27          6           0       13.723285    4.960648    1.278882
     28          6           0       13.272788    3.480447    1.348608
     29          6           0       16.124899    5.424834    0.576913
     30          6           0       12.485423    5.916576    1.156844
     31          6           0       11.353375    5.532027    0.265401
     32          7           0       12.318005    0.673886    1.521425
     33          6           0       11.937474    1.677460    2.365531
     34          6           0       11.030498    1.150129    3.355671
     35          6           0       10.935738   -0.245986    3.115708
     36          6           0       11.779308   -0.488233    2.012564
     37          6           0       10.452126    1.856710    4.530576
     38          6           0       10.377167   -1.490742    3.560661
     39          8           0        9.593576   -1.790409    4.454223
     40          6           0       10.890959   -2.609559    2.547435
     41          6           0       11.469137   -3.826343    3.250047
     42          8           0       12.467140   -3.801814    3.923047
     43          8           0       10.695978   -4.936420    2.949348
     44          6           0       11.155443   -6.157320    3.612412
     45          1           0       15.549519   -2.396915   -2.739965
     46          1           0       16.191591    3.821410   -1.890623
     47          1           0       11.911629    3.696671    2.958543
     48          1           0       13.097785   -4.261303    0.872324
     49          1           0       13.174616   -3.954228   -2.080087
     50          1           0       14.528700   -5.586074   -0.295276
     51          1           0       15.776249   -4.403732   -1.012381
     52          1           0       14.763942   -5.518152   -1.966294
     53          1           0       10.652243   -3.822469   -0.615298
     54          1           0       11.012032   -5.123707    0.446929
     55          1           0       12.387253   -5.770596   -1.884837
     56          1           0       10.869512   -5.117937   -2.467501
     57          1           0       18.192547   -0.613300   -4.214187
     58          1           0       16.717291   -0.991396   -5.095594
     59          1           0       17.238374   -2.034010   -3.799259
     60          1           0       19.113166    1.635529   -4.982131
     61          1           0       18.105847    2.865481   -5.963393
     62          1           0       17.651214    1.166654   -5.753868
     63          1           0       14.356662    5.660444   -0.604352
     64          1           0       14.057212    5.107375    2.305567
     65          1           0       16.905481    4.716848    0.295422
     66          1           0       16.189073    5.509752    1.662027
     67          1           0       16.283421    6.383805    0.084236
     68          1           0       12.815558    6.902346    0.828995
     69          1           0       12.150160    6.150141    2.167615
     70          1           0       11.703753    4.830994   -0.492399
     71          1           0       10.843319    6.273582   -0.349854
     72          1           0       10.588135    5.143572    0.938171
     73          1           0       11.184864    2.262277    5.227628
     74          1           0       10.052384    1.068935    5.169592
     75          1           0        9.714937    2.602798    4.232631
     76          1           0       10.019596   -2.892247    1.956401
     77          1           0       11.454842   -6.571166    2.650001
     78          1           0       10.235753   -6.585578    4.010288
     79          1           0       11.950316   -5.980136    4.337222
     80         12           0      -13.800300    0.487978    0.008727
     81          6           0      -11.517214   -1.978533   -0.515619
     82          6           0      -16.379827   -1.785357   -0.113241
     83          6           0      -15.965713    3.067156    0.354557
     84          6           0      -11.180831    2.833410   -0.350566
     85          7           0      -13.941183   -1.626092   -0.506095
     86          6           0      -12.864675   -2.442009   -0.349704
     87          6           0      -13.227390   -3.879825   -0.192726
     88          6           0      -14.833281   -3.766954   -0.332004
     89          6           0      -15.097156   -2.297023   -0.317382
     90          6           0      -15.386764   -4.454271   -1.661396
     91          6           0      -12.781461   -4.368718    1.263630
     92          6           0      -12.562752   -5.870030    1.463225
     93          1           0      -13.033028   -6.962170    0.470464
     94          7           0      -15.874396    0.665012    0.211663
     95          6           0      -16.768279   -0.413177    0.106933
     96          6           0      -18.099985    0.127058    0.253235
     97          6           0      -17.993167    1.522889    0.419384
     98          6           0      -16.559323    1.775203    0.378790
     99          6           0      -19.339975   -0.796981    0.273061
    100          6           0      -19.195597    2.599879    0.523683
    101          8           0      -19.004823    3.788596    0.810081
    102          6           0      -20.663996    2.264074    0.321763
    103          7           0      -13.555852    2.687231    0.068035
    104          6           0      -14.639401    3.491810    0.182762
    105          6           0      -14.281932    4.951856   -0.090394
    106          6           0      -12.649547    4.913383    0.011200
    107          6           0      -12.390493    3.398625    0.015160
    108          6           0      -14.918484    5.598303   -1.404747
    109          6           0      -12.001573    5.468572    1.379214
    110          6           0      -10.860388    6.467404    1.322816
    111          7           0      -11.735699    0.516137   -0.306662
    112          6           0      -10.820881    1.492195   -0.441705
    113          6           0       -9.455627    0.892835   -0.570012
    114          6           0       -9.729875   -0.495149   -0.542554
    115          6           0      -11.139148   -0.632018   -0.508334
    116          6           0       -8.113395    1.528952   -0.655591
    117          6           0       -9.052725   -1.736097   -0.600538
    118          8           0       -7.833617   -1.986431   -0.695846
    119          6           0      -10.182198   -2.763083   -0.590348
    120          6           0      -10.118383   -3.538375   -1.808145
    121          8           0      -10.122546   -3.197354   -2.949551
    122          8           0      -10.165249   -4.873849   -1.419348
    123          6           0      -10.182424   -6.006598   -2.422325
    124          1           0      -17.216339   -2.458346    0.084246
    125          1           0      -16.676668    3.896299    0.369002
    126          1           0      -10.364465    3.487821   -0.661278
    127          1           0      -12.855331   -4.641120   -0.878080
    128          1           0      -15.338119   -4.235033    0.513043
    129          1           0      -16.352455   -4.951519   -1.573367
    130          1           0      -14.608388   -5.089066   -2.084518
    131          1           0      -15.542016   -3.647829   -2.378830
    132          1           0      -13.491713   -4.050396    2.026973
    133          1           0      -11.843418   -3.849087    1.460617
    134          1           0      -12.987370   -6.098142    2.441679
    135          1           0      -11.497101   -6.048011    1.602372
    136          1           0      -19.107714   -1.860695    0.223142
    137          1           0      -19.967711   -0.490753   -0.563108
    138          1           0      -19.890437   -0.571123    1.186632
    139          1           0      -20.922762    1.652190    1.185112
    140          1           0      -20.819809    1.528415   -0.467560
    141          1           0      -21.227451    3.159977    0.061837
    142          1           0      -14.635039    5.540967    0.756831
    143          1           0      -12.194451    5.455879   -0.817697
    144          1           0      -14.145267    5.966146   -2.079644
    145          1           0      -15.599369    6.404151   -1.133073
    146          1           0      -15.453350    4.844530   -1.983031
    147          1           0      -11.711914    4.658527    2.048400
    148          1           0      -12.817583    5.938772    1.927148
    149          1           0      -10.035547    6.024002    1.879520
    150          1           0      -11.131923    7.447146    1.714868
    151          1           0      -10.504582    6.559700    0.295710
    152          1           0       -8.111448    2.613366   -0.546629
    153          1           0       -7.645291    1.320903   -1.618071
    154          1           0       -7.485573    1.109059    0.130049
    155          1           0      -10.115767   -3.440266    0.261686
    156          1           0      -10.208809   -5.613183   -3.438739
    157          1           0      -11.094453   -6.591693   -2.296796
    158          1           0       -9.271900   -6.574558   -2.231547
 ---------------------------------------------------------------------

 SCF Done:  E(RCAM-B3LYP) =  -4069.79482305     A.U. after   19 cycles

 Excitation energies and oscillator strengths:

 Excited State   1:      Singlet-A      1.7016 eV  728.65 nm  f=0.4182  <S**2>=0.000
     310 -> 316        0.18670
     312 -> 313        0.68281
     310 <- 316        0.11008
 This state for optimization and/or second-order correction.
 Total Energy, E(TD-HF/TD-DFT) =  -4069.73229149
 Copying the excited state density for this state as the 1-particle RhoCI density.

 Excited State   2:      Singlet-A      1.7390 eV  712.94 nm  f=0.3706  <S**2>=0.000
     309 -> 315        0.19149
     311 -> 314        0.68191
     309 <- 315        0.10960

 Excited State   3:      Singlet-A      2.1897 eV  566.23 nm  f=0.1060  <S**2>=0.000
     310 -> 313        0.64225
     312 -> 316       -0.28251

 Excited State   4:      Singlet-A      2.2288 eV  556.29 nm  f=0.1037  <S**2>=0.000
     309 -> 314        0.63897
     311 -> 315       -0.29490

 Excited State   5:      Singlet-A      3.0509 eV  406.39 nm  f=0.0000  <S**2>=0.000
     312 -> 314        0.70705

 The electronic state is 1-A.
 Alpha  occ. eigenvalues --  -46.89926 -46.89381 -19.24663 -19.23667 -19.19955
 Alpha  occ. eigenvalues --  -19.19576 -19.19519 -19.19177 -19.18757 -19.18559
 Alpha  occ. eigenvalues --  -14.42459 -14.42147 -14.41715 -14.41652 -14.39532
 Alpha  occ. eigenvalues --  -14.39429 -14.39371 -14.38740 -10.39046 -10.38636
 Alpha  occ. eigenvalues --  -10.36213 -10.35668 -10.34725 -10.34452 -10.31889
 Alpha  occ. eigenvalues --  -10.31727 -10.31558 -10.31186 -10.31057 -10.30819
 Alpha  occ. eigenvalues --  -10.30656 -10.30645 -10.30627 -10.30300 -10.30195
 Alpha  occ. eigenvalues --  -10.29975 -10.29849 -10.29726 -10.29505 -10.29378
 Alpha  occ. eigenvalues --  -10.28989 -10.28947 -10.28834 -10.28754 -10.28608
 Alpha  occ. eigenvalues --  -10.28524 -10.28278 -10.28232 -10.28169 -10.28167
 Alpha  occ. eigenvalues --  -10.28113 -10.27970 -10.27946 -10.27938 -10.27862
 Alpha  occ. eigenvalues --  -10.27805 -10.27757 -10.27583 -10.27497 -10.27491
 Alpha  occ. eigenvalues --  -10.27438 -10.27381 -10.27345 -10.27304 -10.27236
 Alpha  occ. eigenvalues --  -10.26965 -10.26700 -10.26654 -10.26647 -10.26506
 Alpha  occ. eigenvalues --  -10.26470 -10.26417 -10.26284 -10.26193 -10.26187
 Alpha  occ. eigenvalues --  -10.26153 -10.26094 -10.26068 -10.26053 -10.25874
 Alpha  occ. eigenvalues --  -10.25341 -10.25325 -10.25050 -10.24904 -10.24811
 Alpha  occ. eigenvalues --  -10.24728  -3.18235  -3.17788  -1.93108  -1.92707
 Alpha  occ. eigenvalues --   -1.92699  -1.92526  -1.92225  -1.92099  -1.16218
 Alpha  occ. eigenvalues --   -1.15616  -1.12839  -1.09498  -1.09137  -1.08467
 Alpha  occ. eigenvalues --   -1.08303  -1.07186  -1.05543  -1.04441  -1.04152
 Alpha  occ. eigenvalues --   -1.03557  -1.03074  -1.02611  -1.02415  -1.01769
 Alpha  occ. eigenvalues --   -0.93474  -0.91543  -0.89232  -0.88816  -0.88589
 Alpha  occ. eigenvalues --   -0.88242  -0.88192  -0.87498  -0.87305  -0.87110
 Alpha  occ. eigenvalues --   -0.87045  -0.86887  -0.86202  -0.86026  -0.84307
 Alpha  occ. eigenvalues --   -0.83939  -0.83590  -0.83455  -0.82468  -0.82345
 Alpha  occ. eigenvalues --   -0.81927  -0.81591  -0.81170  -0.80768  -0.80333
 Alpha  occ. eigenvalues --   -0.80281  -0.78393  -0.78221  -0.77453  -0.77105
 Alpha  occ. eigenvalues --   -0.77087  -0.77034  -0.76184  -0.75784  -0.75170
 Alpha  occ. eigenvalues --   -0.74586  -0.72570  -0.72260  -0.71968  -0.71401
 Alpha  occ. eigenvalues --   -0.69746  -0.69238  -0.69208  -0.68619  -0.68205
 Alpha  occ. eigenvalues --   -0.68134  -0.66841  -0.65965  -0.65319  -0.65185
 Alpha  occ. eigenvalues --   -0.64851  -0.64496  -0.64241  -0.64232  -0.64066
 Alpha  occ. eigenvalues --   -0.63943  -0.61799  -0.61635  -0.60430  -0.59963
 Alpha  occ. eigenvalues --   -0.59907  -0.59483  -0.59164  -0.58777  -0.58736
 Alpha  occ. eigenvalues --   -0.58454  -0.58279  -0.57928  -0.57736  -0.57321
 Alpha  occ. eigenvalues --   -0.56077  -0.56008  -0.55814  -0.55484  -0.55321
 Alpha  occ. eigenvalues --   -0.55275  -0.54987  -0.54515  -0.54218  -0.53993
 Alpha  occ. eigenvalues --   -0.53751  -0.53661  -0.53284  -0.53025  -0.52958
 Alpha  occ. eigenvalues --   -0.52740  -0.52700  -0.52309  -0.52185  -0.52119
 Alpha  occ. eigenvalues --   -0.51676  -0.51660  -0.51611  -0.51388  -0.51128
 Alpha  occ. eigenvalues --   -0.50865  -0.50788  -0.50762  -0.50544  -0.50525
 Alpha  occ. eigenvalues --   -0.50233  -0.49964  -0.49786  -0.49685  -0.49451
 Alpha  occ. eigenvalues --   -0.49376  -0.49139  -0.49107  -0.48915  -0.48899
 Alpha  occ. eigenvalues --   -0.48703  -0.48525  -0.48288  -0.48275  -0.48126
 Alpha  occ. eigenvalues --   -0.47933  -0.47631  -0.47597  -0.47248  -0.47139
 Alpha  occ. eigenvalues --   -0.47073  -0.46909  -0.46696  -0.46573  -0.46438
 Alpha  occ. eigenvalues --   -0.46230  -0.46150  -0.45959  -0.45711  -0.45565
 Alpha  occ. eigenvalues --   -0.45490  -0.45363  -0.45168  -0.44668  -0.44562
 Alpha  occ. eigenvalues --   -0.44495  -0.44331  -0.44264  -0.44242  -0.44017
 Alpha  occ. eigenvalues --   -0.43961  -0.43879  -0.43672  -0.43649  -0.43574
 Alpha  occ. eigenvalues --   -0.43179  -0.43122  -0.42934  -0.42864  -0.42652
 Alpha  occ. eigenvalues --   -0.42542  -0.42303  -0.42273  -0.41969  -0.41757
 Alpha  occ. eigenvalues --   -0.41726  -0.41612  -0.41386  -0.41279  -0.41117
 Alpha  occ. eigenvalues --   -0.41033  -0.40806  -0.40793  -0.40527  -0.40189
 Alpha  occ. eigenvalues --   -0.40064  -0.39703  -0.39387  -0.39122  -0.38900
 Alpha  occ. eigenvalues --   -0.38401  -0.38048  -0.37833  -0.37766  -0.37515
 Alpha  occ. eigenvalues --   -0.37318  -0.36835  -0.36739  -0.36561  -0.36057
 Alpha  occ. eigenvalues --   -0.35837  -0.35648  -0.34553  -0.34474  -0.34213
 Alpha  occ. eigenvalues --   -0.33491  -0.33135  -0.33085  -0.31733  -0.31228
 Alpha  occ. eigenvalues --   -0.31081  -0.31001  -0.30769  -0.30538  -0.30154
 Alpha  occ. eigenvalues --   -0.30029  -0.29764  -0.29275  -0.23813  -0.23756
 Alpha  occ. eigenvalues --   -0.21112  -0.20987
 Alpha virt. eigenvalues --   -0.08575  -0.08495  -0.01682  -0.01558   0.00018
 Alpha virt. eigenvalues --    0.00383   0.01229   0.02327   0.02581   0.02816
 Alpha virt. eigenvalues --    0.04589   0.04689   0.05352   0.05761   0.06021

 Mulliken charges:
               1
     1  Mg  11.998762
     2  C    5.968437
     3  C    6.014457
     4  C    6.022643
     5  C    5.993209
     6  N    6.984847
     7  C    6.039725
     8  C    5.992609
     9  C    6.013205
    10  C    5.965760
    11  C    5.999873
    12  C    5.998865
    13  C    6.002223
    14  H    0.997757
    15  N    7.011089
    16  C    5.956225
    17  C    5.981237
    18  C    5.980869
    19  C    5.965567
    20  C    6.007847
    21  C    5.986391
    22  O    7.974609
    23  C    6.005005
    24  N    7.001485
    25  C    5.968904
    26  C    6.013038
    27  C    5.996097
    28  C    6.027143
    29  C    6.000622
    30  C    5.994549
    31  C    5.991622
    32  N    6.995458
    33  C    6.036772
    34  C    6.037532
    35  C    5.999866
    36  C    6.039012
    37  C    5.996052
    38  C    6.013316
    39  O    8.029469
    40  C    6.004063
    41  C    6.003758
    42  O    8.003564
    43  O    8.001426
    44  C    5.998438
    45  H    0.991059
    46  H    0.995177
    47  H    1.011999
    48  H    0.997716
    49  H    0.994661
    50  H    0.987749
    51  H    1.003643
    52  H    0.997134
    53  H    0.997520
    54  H    0.995930
    55  H    1.007403
    56  H    1.002205
    57  H    0.981390
    58  H    0.978303
    59  H    0.979193
    60  H    0.990982
    61  H    0.985813
    62  H    0.996254
    63  H    0.997950
    64  H    0.998641
    65  H    1.007430
    66  H    0.990473
    67  H    0.998478
    68  H    1.011990
    69  H    0.998595
    70  H    1.010548
    71  H    1.008204
    72  H    0.993246
    73  H    1.024064
    74  H    1.014589
    75  H    1.021805
    76  H    1.006128
    77  H    1.006196
    78  H    1.001995
    79  H    1.002146
    80  Mg  12.000090
    81  C    6.001469
    82  C    5.998714
    83  C    5.998919
    84  C    6.000728
    85  N    7.000002
    86  C    5.997701
    87  C    6.001105
    88  C    5.999109
    89  C    6.002259
    90  C    5.999806
    91  C    6.000263
    92  C    6.000022
    93  H    0.999856
    94  N    6.999419
    95  C    6.003168
    96  C    6.000455
    97  C    6.001415
    98  C    6.001663
    99  C    5.999939
   100  C    6.000689
   101  O    8.001570
   102  C    5.999871
   103  N    6.999916
   104  C    6.001823
   105  C    5.999341
   106  C    6.000585
   107  C    5.998297
   108  C    5.999858
   109  C    6.000527
   110  C    5.999982
   111  N    7.000469
   112  C    5.997604
   113  C    5.998201
   114  C    5.999769
   115  C    5.998145
   116  C    6.000406
   117  C    5.999068
   118  O    7.997995
   119  C    6.000037
   120  C    5.999727
   121  O    7.999946
   122  O    7.999866
   123  C    6.000067
   124  H    1.000631
   125  H    1.000395
   126  H    0.999431
   127  H    0.999790
   128  H    1.000181
   129  H    1.000160
   130  H    1.000935
   131  H    1.000108
   132  H    0.999302
   133  H    1.000251
   134  H    0.999733
   135  H    1.000003
   136  H    1.001087
   137  H    1.001081
   138  H    1.001012
   139  H    1.000439
   140  H    1.000448
   141  H    1.000920
   142  H    0.999995
   143  H    0.999839
   144  H    1.000698
   145  H    1.000109
   146  H    0.999862
   147  H    0.999888
   148  H    0.999287
   149  H    0.999837
   150  H    0.999712
   151  H    1.000074
   152  H    0.998773
   153  H    0.998821
   154  H    0.998499
   155  H    0.999358
   156  H    0.999969
   157  H    0.999739
   158  H    0.999770
 Sum of Mulliken charges = 624.00000

 Dipole moment (field-independent basis, Debye):
    X=             -7.7231    Y=              0.6469    Z=              8.3398  Tot=             11.3850
 Quadrupole moment (field-independent basis, Debye-Ang):
   XX=           -176.4912   YY=              2.6623   ZZ=              0.6561
   XY=              3.0562   XZ=            114.0825   YZ=              4.8540

 Normal termination of Gaussian 16 at Wed Sep 22 04:53:09 2021.
