 Gaussian 16, Revision A.03,
 Gaussian 16:  ES64L-G16RevA.03 25-Dec-2016

 ----------------------------------------------------------
 #p cam-b3lyp/Def2SVP td=(nstates=5) density=(transition=1)
 ----------------------------------------------------------

 --------------------------------
 TDDFT excited states in gaussian
 --------------------------------
 Symbolic Z-matrix:
 Charge =  0 Multiplicity = 1

                         Standard orientation:
 ---------------------------------------------------------------------
 Center     Atomic      Atomic             Coordinates (Angstroms)
 Number     Number       Type             X           Y           Z
 ---------------------------------------------------------------------
      1         12           0      -16.753482    0.695502    0.075670
      2          6           0      -16.073169   -2.458650   -1.234303
      3          6           0      -14.156316    1.994725   -1.768672
      4          6           0      -17.364344    3.623421    1.642989
      5          6           0      -19.154107   -0.840229    2.231647
      6          7           0      -15.251507   -0.182324   -1.230082
      7          6           0      -15.165144   -1.471513   -1.656650
      8          6           0      -14.075611   -1.636574   -2.724056
      9          6           0      -13.412447   -0.188632   -2.727553
     10          6           0      -14.373872    0.604093   -1.835851
     11          6           0      -11.999574   -0.203804   -2.156653
     12          6           0      -14.581169   -1.923043   -4.182820
     13          6           0      -13.662103   -2.692980   -5.095199
     14          1           0      -12.251086   -2.845223   -4.739414
     15          7           0      -15.950077    2.533205   -0.115912
     16          6           0      -14.857975    2.864914   -0.942508
     17          6           0      -14.736009    4.298280   -0.891251
     18          6           0      -15.671077    4.821650    0.037197
     19          6           0      -16.388667    3.641561    0.579180
     20          6           0      -13.605213    5.057176   -1.552137
     21          6           0      -15.981826    6.205706    0.427463
     22          8           0      -16.673375    6.489138    1.382340
     23          6           0      -15.282980    7.412649   -0.297391
     24          7           0      -18.212818    1.396713    1.626595
     25          6           0      -18.218408    2.613495    2.082794
     26          6           0      -19.262989    2.788784    3.225888
     27          6           0      -19.892068    1.415905    3.378960
     28          6           0      -19.028984    0.538801    2.402129
     29          6           0      -18.573016    3.430231    4.520376
     30          6           0      -21.408888    1.408789    3.094192
     31          6           0      -22.374320    1.524391    4.332526
     32          7           0      -17.656495   -1.105675    0.280966
     33          6           0      -18.616416   -1.601262    1.197990
     34          6           0      -18.896609   -2.965703    0.959025
     35          6           0      -17.825704   -3.344728    0.042684
     36          6           0      -17.159037   -2.142294   -0.329000
     37          6           0      -19.795525   -3.852630    1.801009
     38          6           0      -17.279636   -4.496968   -0.574041
     39          8           0      -17.608666   -5.676342   -0.551995
     40          6           0      -16.081373   -3.898788   -1.567674
     41          6           0      -14.853055   -4.685458   -1.215603
     42          8           0      -14.349018   -4.728399   -0.088416
     43          8           0      -14.393238   -5.498766   -2.293545
     44          6           0      -13.176181   -6.323024   -2.013128
     45          1           0      -13.317774    2.337358   -2.379694
     46          1           0      -17.368855    4.547950    2.223470
     47          1           0      -19.912008   -1.350630    2.828994
     48          1           0      -13.393000   -2.397159   -2.344386
     49          1           0      -13.328801    0.237654   -3.727160
     50          1           0      -11.608516   -1.219178   -2.097840
     51          1           0      -11.922727    0.324961   -1.206209
     52          1           0      -11.249915    0.218373   -2.825929
     53          1           0      -14.831222   -0.964190   -4.635546
     54          1           0      -15.553871   -2.405079   -4.082466
     55          1           0      -13.618328   -2.143177   -6.035101
     56          1           0      -14.064110   -3.695721   -5.240341
     57          1           0      -12.922385    5.517740   -0.838265
     58          1           0      -14.043876    5.796134   -2.223978
     59          1           0      -12.926024    4.466918   -2.167068
     60          1           0      -14.302982    7.510690    0.170332
     61          1           0      -15.783503    8.345828   -0.038659
     62          1           0      -15.146105    7.203738   -1.357693
     63          1           0      -19.955649    3.520881    2.810309
     64          1           0      -19.664653    0.972178    4.347010
     65          1           0      -18.718162    2.789053    5.389706
     66          1           0      -19.030497    4.367112    4.838897
     67          1           0      -17.514715    3.487509    4.262463
     68          1           0      -21.614170    0.463611    2.590365
     69          1           0      -21.593851    2.210763    2.379385
     70          1           0      -22.524358    0.519046    4.727642
     71          1           0      -23.327798    2.039166    4.212730
     72          1           0      -21.719720    2.027923    5.043100
     73          1           0      -20.785317   -3.665426    1.385457
     74          1           0      -19.780765   -3.554544    2.848687
     75          1           0      -19.476660   -4.888212    1.926108
     76          1           0      -16.393963   -4.020944   -2.605460
     77          1           0      -13.359780   -7.055621   -1.228018
     78          1           0      -12.253022   -5.810036   -1.742149
     79          1           0      -13.104535   -6.846216   -2.966666
     80         12           0       17.024323    0.374834   -0.223942
     81          6           0       15.475854   -2.541140    0.857017
     82          6           0       14.116471    0.894773   -2.245231
     83          6           0       18.126222    3.382514   -0.962161
     84          6           0       19.385332   -0.013029    2.351503
     85          7           0       14.994382   -0.649132   -0.534004
     86          6           0       14.673583   -1.887794   -0.025495
     87          6           0       13.278101   -2.305488   -0.497123
     88          6           0       13.036019   -1.322526   -1.675855
     89          6           0       14.079458   -0.255930   -1.471125
     90          6           0       13.114101   -1.880299   -3.151174
     91          6           0       12.213884   -2.209907    0.608462
     92          6           0       10.882056   -2.759376    0.265724
     93          1           0        9.945041   -3.171844    1.464460
     94          7           0       16.232325    1.964777   -1.439632
     95          6           0       15.052149    1.970006   -2.199408
     96          6           0       14.967841    3.231411   -2.881209
     97          6           0       16.070242    4.035468   -2.409702
     98          6           0       16.896393    3.103045   -1.567419
     99          6           0       13.771067    3.621252   -3.792061
    100          6           0       16.275085    5.491946   -2.838309
    101          8           0       15.601734    6.006883   -3.715491
    102          6           0       17.327399    6.294614   -2.173591
    103          7           0       18.681565    1.410467    0.446037
    104          6           0       18.934980    2.623728   -0.056211
    105          6           0       20.140367    3.284682    0.727330
    106          6           0       20.547527    2.250231    1.845960
    107          6           0       19.410363    1.121300    1.573356
    108          6           0       21.330876    3.822554   -0.109351
    109          6           0       20.397957    2.888138    3.243709
    110          6           0       21.350814    2.344356    4.315184
    111          7           0       17.429331   -0.973740    1.333895
    112          6           0       18.473457   -1.080455    2.209418
    113          6           0       18.365339   -2.368145    2.905578
    114          6           0       17.281099   -2.985188    2.341611
    115          6           0       16.698284   -2.108853    1.454475
    116          6           0       19.362686   -2.929801    3.924005
    117          6           0       16.470399   -4.164403    2.395016
    118          8           0       16.568263   -5.185753    3.029561
    119          6           0       15.269129   -3.930162    1.419248
    120          6           0       15.377087   -4.934866    0.325922
    121          8           0       16.348146   -5.192374   -0.329962
    122          8           0       14.097063   -5.457537    0.072382
    123          6           0       14.011592   -6.389056   -1.016154
    124          1           0       13.239645    0.915933   -2.895044
    125          1           0       18.622394    4.342234   -1.123789
    126          1           0       20.144829   -0.199734    3.113744
    127          1           0       13.393593   -3.305105   -0.913890
    128          1           0       12.100087   -0.765682   -1.646962
    129          1           0       12.184760   -1.541163   -3.608297
    130          1           0       13.498731   -2.890415   -3.294516
    131          1           0       13.882071   -1.295771   -3.657566
    132          1           0       11.932678   -1.199240    0.905636
    133          1           0       12.578830   -2.692913    1.514961
    134          1           0       11.057779   -3.624516   -0.373615
    135          1           0       10.357103   -2.041218   -0.363935
    136          1           0       13.288724    4.303538   -3.091383
    137          1           0       13.022004    2.846107   -3.955052
    138          1           0       13.886008    4.091879   -4.768657
    139          1           0       17.157729    6.138229   -1.108301
    140          1           0       17.141929    7.347495   -2.386674
    141          1           0       18.252698    5.859409   -2.551908
    142          1           0       19.724018    4.176469    1.196657
    143          1           0       21.534715    1.804362    1.728689
    144          1           0       21.277112    4.911692   -0.108600
    145          1           0       21.301875    3.355044   -1.093015
    146          1           0       22.268003    3.605258    0.403128
    147          1           0       19.359465    2.708345    3.520591
    148          1           0       20.458112    3.976661    3.244729
    149          1           0       21.873777    3.240464    4.651010
    150          1           0       22.009084    1.545197    3.974182
    151          1           0       20.785582    1.974093    5.170560
    152          1           0       18.937411   -3.390837    4.814843
    153          1           0       19.962683   -2.049308    4.155083
    154          1           0       20.062178   -3.539165    3.351522
    155          1           0       14.364415   -4.079089    2.008790
    156          1           0       13.833944   -7.367140   -0.568965
    157          1           0       14.841983   -6.470992   -1.717876
    158          1           0       13.161019   -6.091736   -1.628930
 ---------------------------------------------------------------------

 SCF Done:  E(RCAM-B3LYP) =  -4069.84491382     A.U. after   18 cycles

 Excitation energies and oscillator strengths:

 Excited State   1:      Singlet-A      1.7264 eV  718.18 nm  f=0.3612  <S**2>=0.000
     310 -> 316       -0.17536
     312 -> 313        0.68624
     310 <- 316       -0.10550
 This state for optimization and/or second-order correction.
 Total Energy, E(TD-HF/TD-DFT) =  -4069.78147126
 Copying the excited state density for this state as the 1-particle RhoCI density.

 Excited State   2:      Singlet-A      1.7653 eV  702.34 nm  f=0.4059  <S**2>=0.000
     309 -> 315       -0.17235
     311 -> 314        0.68727
     309 <- 315       -0.10343

 Excited State   3:      Singlet-A      2.2226 eV  557.83 nm  f=0.1460  <S**2>=0.000
     310 -> 313        0.65063
     312 -> 316        0.26126

 Excited State   4:      Singlet-A      2.2942 eV  540.44 nm  f=0.1181  <S**2>=0.000
     309 -> 314        0.63735
     311 -> 315        0.29068

 Excited State   5:      Singlet-A      3.1213 eV  397.22 nm  f=0.0000  <S**2>=0.000
     312 -> 314        0.70710

 The electronic state is 1-A.
 Alpha  occ. eigenvalues --  -46.89698 -46.87997 -19.24978 -19.24161 -19.20530
 Alpha  occ. eigenvalues --  -19.19462 -19.19282 -19.18732 -19.18561 -19.18230
 Alpha  occ. eigenvalues --  -14.42697 -14.42694 -14.42383 -14.41660 -14.40264
 Alpha  occ. eigenvalues --  -14.40180 -14.39362 -14.39131 -10.39540 -10.39076
 Alpha  occ. eigenvalues --  -10.35482 -10.34900 -10.34348 -10.34188 -10.32396
 Alpha  occ. eigenvalues --  -10.31709 -10.31630 -10.31620 -10.31257 -10.31214
 Alpha  occ. eigenvalues --  -10.31199 -10.31168 -10.31156 -10.31113 -10.30863
 Alpha  occ. eigenvalues --  -10.30820 -10.30703 -10.30601 -10.29710 -10.29581
 Alpha  occ. eigenvalues --  -10.29270 -10.28910 -10.28878 -10.28630 -10.28501
 Alpha  occ. eigenvalues --  -10.28385 -10.28288 -10.28264 -10.28221 -10.28209
 Alpha  occ. eigenvalues --  -10.28115 -10.28059 -10.27947 -10.27940 -10.27858
 Alpha  occ. eigenvalues --  -10.27826 -10.27784 -10.27783 -10.27782 -10.27778
 Alpha  occ. eigenvalues --  -10.27770 -10.27623 -10.27562 -10.27512 -10.27487
 Alpha  occ. eigenvalues --  -10.27449 -10.26957 -10.26894 -10.26840 -10.26820
 Alpha  occ. eigenvalues --  -10.26569 -10.26543 -10.26445 -10.26374 -10.26357
 Alpha  occ. eigenvalues --  -10.26338 -10.26274 -10.26116 -10.26091 -10.26003
 Alpha  occ. eigenvalues --  -10.25870 -10.25867 -10.25812 -10.25657 -10.24543
 Alpha  occ. eigenvalues --  -10.24020  -3.18119  -3.16693  -1.93026  -1.92577
 Alpha  occ. eigenvalues --   -1.92407  -1.91604  -1.91141  -1.91011  -1.16653
 Alpha  occ. eigenvalues --   -1.13457  -1.11137  -1.10371  -1.10159  -1.08863
 Alpha  occ. eigenvalues --   -1.08636  -1.05836  -1.05208  -1.04631  -1.03964
 Alpha  occ. eigenvalues --   -1.03827  -1.03759  -1.03393  -1.02861  -1.02437
 Alpha  occ. eigenvalues --   -0.93302  -0.92117  -0.89455  -0.89308  -0.89270
 Alpha  occ. eigenvalues --   -0.88992  -0.88873  -0.88424  -0.88130  -0.87782
 Alpha  occ. eigenvalues --   -0.87501  -0.86497  -0.86281  -0.85986  -0.85252
 Alpha  occ. eigenvalues --   -0.84348  -0.84083  -0.83203  -0.83003  -0.82624
 Alpha  occ. eigenvalues --   -0.82220  -0.81510  -0.81337  -0.80889  -0.80408
 Alpha  occ. eigenvalues --   -0.80044  -0.78806  -0.77799  -0.77388  -0.77286
 Alpha  occ. eigenvalues --   -0.77153  -0.76881  -0.76242  -0.75881  -0.75564
 Alpha  occ. eigenvalues --   -0.75077  -0.73284  -0.73138  -0.72084  -0.71635
 Alpha  occ. eigenvalues --   -0.69583  -0.69375  -0.69106  -0.68991  -0.68003
 Alpha  occ. eigenvalues --   -0.67826  -0.67308  -0.66806  -0.66134  -0.65807
 Alpha  occ. eigenvalues --   -0.65618  -0.65269  -0.65018  -0.64969  -0.64653
 Alpha  occ. eigenvalues --   -0.64628  -0.62732  -0.61413  -0.60367  -0.60279
 Alpha  occ. eigenvalues --   -0.59935  -0.59659  -0.59352  -0.59337  -0.58891
 Alpha  occ. eigenvalues --   -0.58550  -0.58496  -0.57799  -0.57610  -0.57371
 Alpha  occ. eigenvalues --   -0.56544  -0.56278  -0.55940  -0.55516  -0.54992
 Alpha  occ. eigenvalues --   -0.54965  -0.54646  -0.54428  -0.54062  -0.54023
 Alpha  occ. eigenvalues --   -0.53612  -0.53412  -0.53358  -0.53252  -0.53189
 Alpha  occ. eigenvalues --   -0.52921  -0.52683  -0.52509  -0.52390  -0.52275
 Alpha  occ. eigenvalues --   -0.52067  -0.51943  -0.51759  -0.51696  -0.51612
 Alpha  occ. eigenvalues --   -0.51036  -0.50881  -0.50774  -0.50579  -0.50404
 Alpha  occ. eigenvalues --   -0.50326  -0.50155  -0.49912  -0.49887  -0.49625
 Alpha  occ. eigenvalues --   -0.49531  -0.49355  -0.49305  -0.49105  -0.49082
 Alpha  occ. eigenvalues --   -0.48899  -0.48587  -0.48401  -0.48338  -0.48164
 Alpha  occ. eigenvalues --   -0.48140  -0.47674  -0.47578  -0.47516  -0.47419
 Alpha  occ. eigenvalues --   -0.47234  -0.47191  -0.47161  -0.47130  -0.46950
 Alpha  occ. eigenvalues --   -0.46727  -0.46506  -0.46440  -0.46188  -0.45847
 Alpha  occ. eigenvalues --   -0.45790  -0.45366  -0.45169  -0.45091  -0.45068
 Alpha  occ. eigenvalues --   -0.44716  -0.44707  -0.44555  -0.44274  -0.44204
 Alpha  occ. eigenvalues --   -0.44109  -0.43953  -0.43912  -0.43732  -0.43392
 Alpha  occ. eigenvalues --   -0.43356  -0.43274  -0.43036  -0.42994  -0.42903
 Alpha  occ. eigenvalues --   -0.42752  -0.42633  -0.42494  -0.42418  -0.42333
 Alpha  occ. eigenvalues --   -0.42075  -0.42019  -0.41901  -0.41857  -0.41577
 Alpha  occ. eigenvalues --   -0.41513  -0.41321  -0.40834  -0.40645  -0.40303
 Alpha  occ. eigenvalues --   -0.40284  -0.39960  -0.39884  -0.39750  -0.39445
 Alpha  occ. eigenvalues --   -0.38855  -0.38641  -0.38085  -0.37797  -0.37713
 Alpha  occ. eigenvalues --   -0.37250  -0.37005  -0.36948  -0.36555  -0.36181
 Alpha  occ. eigenvalues --   -0.36128  -0.35800  -0.35283  -0.34392  -0.34283
 Alpha  occ. eigenvalues --   -0.33870  -0.33761  -0.33530  -0.31803  -0.31678
 Alpha  occ. eigenvalues --   -0.31092  -0.31077  -0.30690  -0.30528  -0.30161
 Alpha  occ. eigenvalues --   -0.29987  -0.29793  -0.29501  -0.24706  -0.24206
 Alpha  occ. eigenvalues --   -0.21700  -0.21564
 Alpha virt. eigenvalues --   -0.09075  -0.09070  -0.01977  -0.01672   0.00193
 Alpha virt. eigenvalues --    0.00880   0.01994   0.02380   0.02691   0.03727
 Alpha virt. eigenvalues --    0.04374   0.04691   0.05191   0.05364   0.05785

 Mulliken charges:
               1
     1  Mg  11.998354
     2  C    6.032336
     3  C    5.991456
     4  C    5.973622
     5  C    6.002854
     6  N    7.016091
     7  C    5.961750
     8  C    6.012477
     9  C    5.986983
    10  C    6.028593
    11  C    5.995127
    12  C    6.002202
    13  C    6.000393
    14  H    0.995331
    15  N    6.986163
    16  C    6.042785
    17  C    6.018838
    18  C    6.019728
    19  C    6.034570
    20  C    5.994114
    21  C    6.008964
    22  O    8.030631
    23  C    5.997440
    24  N    6.991324
    25  C    6.031891
    26  C    5.997534
    27  C    6.004181
    28  C    5.977778
    29  C    5.997488
    30  C    6.004057
    31  C    5.999093
    32  N    7.001954
    33  C    5.962465
    34  C    5.975011
    35  C    5.991537
    36  C    5.967604
    37  C    6.001704
    38  C    5.987074
    39  O    7.966987
    40  C    5.990619
    41  C    5.995942
    42  O    7.996519
    43  O    7.997798
    44  C    6.002011
    45  H    1.014314
    46  H    1.001452
    47  H    0.986975
    48  H    1.002671
    49  H    1.003609
    50  H    1.015905
    51  H    0.998012
    52  H    1.003968
    53  H    0.989360
    54  H    1.008246
    55  H    0.996455
    56  H    1.004493
    57  H    1.019577
    58  H    1.018247
    59  H    1.017733
    60  H    1.008546
    61  H    1.014737
    62  H    1.004575
    63  H    0.996656
    64  H    1.000598
    65  H    1.008631
    66  H    0.999685
    67  H    0.994076
    68  H    1.006487
    69  H    0.989280
    70  H    1.002167
    71  H    0.994953
    72  H    0.993653
    73  H    0.983728
    74  H    0.981787
    75  H    0.985484
    76  H    0.993616
    77  H    0.999642
    78  H    0.993445
    79  H    0.995866
    80  Mg  12.000073
    81  C    5.999395
    82  C    6.000471
    83  C    6.000806
    84  C    5.999495
    85  N    6.999900
    86  C    6.000747
    87  C    5.999836
    88  C    6.000156
    89  C    5.999155
    90  C    6.000075
    91  C    5.999953
    92  C    5.999998
    93  H    1.000013
    94  N    7.000380
    95  C    5.998667
    96  C    5.999704
    97  C    5.999549
    98  C    5.998893
    99  C    6.000138
   100  C    5.999709
   101  O    7.999392
   102  C    6.000061
   103  N    6.999927
   104  C    5.998997
   105  C    6.000244
   106  C    5.999819
   107  C    6.000839
   108  C    6.000025
   109  C    5.999881
   110  C    5.999953
   111  N    6.999892
   112  C    6.001149
   113  C    6.000690
   114  C    6.000127
   115  C    6.000917
   116  C    5.999945
   117  C    6.000391
   118  O    8.000798
   119  C    6.000093
   120  C    6.000108
   121  O    8.000116
   122  O    8.000059
   123  C    5.999878
   124  H    0.999574
   125  H    0.999835
   126  H    1.000303
   127  H    1.000041
   128  H    0.999882
   129  H    0.999820
   130  H    0.999701
   131  H    1.000104
   132  H    1.000119
   133  H    0.999840
   134  H    1.000078
   135  H    1.000058
   136  H    0.999461
   137  H    0.999469
   138  H    0.999496
   139  H    0.999763
   140  H    0.999613
   141  H    0.999843
   142  H    0.999971
   143  H    1.000116
   144  H    1.000011
   145  H    1.000049
   146  H    0.999802
   147  H    0.999979
   148  H    1.000265
   149  H    1.000162
   150  H    1.000000
   151  H    0.999957
   152  H    1.000531
   153  H    1.000460
   154  H    1.000589
   155  H    1.000233
   156  H    1.000169
   157  H    1.000126
   158  H    1.000165
 Sum of Mulliken charges = 624.00000

 Dipole moment (field-independent basis, Debye):
    X=              4.7695    Y=              9.2107    Z=             -1.6608  Tot=             10.5045
 Quadrupole moment (field-independent basis, Debye-Ang):
   XX=           -154.5918   YY=             12.3998   ZZ=             -1.3858
   XY=           -156.4512   XZ=             35.2343   YZ=             -1.1570

 Normal termination of Gaussian 16 at Thu Sep 23 07:30:48 2021.
