 Gaussian 16, Revision A.03,
 Gaussian 16:  ES64L-G16RevA.03 25-Dec-2016

 ----------------------------------------------------------
 #p cam-b3lyp/Def2SVP td=(nstates=5) density=(transition=1)
 ----------------------------------------------------------

 --------------------------------
 TDDFT excited states in gaussian
 --------------------------------
 Symbolic Z-matrix:
 Charge =  0 Multiplicity = 1

                         Standard orientation:
 ---------------------------------------------------------------------
 Center     Atomic      Atomic             Coordinates (Angstroms)
 Number     Number       Type             X           Y           Z
 ---------------------------------------------------------------------
      1         12           0      -27.014620   -0.353490   -0.403545
      2          6           0      -25.261361    2.611101   -0.518933
      3          6           0      -28.568178    0.831722    2.405151
      4          6           0      -28.522172   -3.361367   -0.113070
      5          6           0      -24.968840   -1.663927   -2.890846
      6          7           0      -26.760617    1.522690    0.851983
      7          6           0      -26.179888    2.610893    0.520216
      8          6           0      -26.415654    3.880243    1.490549
      9          6           0      -27.267048    3.149536    2.602667
     10          6           0      -27.510123    1.691518    1.985115
     11          6           0      -26.521514    2.964751    4.026438
     12          6           0      -27.153868    5.121417    0.825090
     13          6           0      -26.789284    6.555618    1.349269
     14          1           0      -25.970986    6.624722    2.603158
     15          7           0      -28.377878   -1.118121    0.868289
     16          6           0      -29.009521   -0.434665    1.980534
     17          6           0      -29.994658   -1.347599    2.550922
     18          6           0      -29.914427   -2.606125    1.904295
     19          6           0      -28.943019   -2.391114    0.808047
     20          6           0      -30.865666   -0.812271    3.629817
     21          6           0      -30.710356   -3.914637    2.120068
     22          8           0      -30.494509   -4.959586    1.581822
     23          6           0      -31.747620   -3.862972    3.260018
     24          7           0      -26.750916   -2.324436   -1.267966
     25          6           0      -27.454621   -3.381215   -1.010493
     26          6           0      -26.858449   -4.648846   -1.685714
     27          6           0      -25.796124   -4.084386   -2.659200
     28          6           0      -25.825742   -2.583225   -2.287182
     29          6           0      -26.289751   -5.623139   -0.632228
     30          6           0      -26.119181   -4.408558   -4.150079
     31          6           0      -25.931992   -5.881141   -4.549627
     32          7           0      -25.412021    0.306603   -1.522757
     33          6           0      -24.756665   -0.318430   -2.568742
     34          6           0      -23.821294    0.639435   -3.096946
     35          6           0      -23.912846    1.833451   -2.320765
     36          6           0      -24.952040    1.529037   -1.399785
     37          6           0      -22.920336    0.393464   -4.162414
     38          6           0      -23.492900    3.185193   -2.130335
     39          8           0      -22.561782    3.811081   -2.719285
     40          6           0      -24.287688    3.687955   -0.863301
     41          6           0      -23.311875    4.045547    0.144024
     42          8           0      -22.760798    3.241231    0.895116
     43          8           0      -23.030547    5.377842   -0.021411
     44          6           0      -21.862167    5.825657    0.765653
     45          1           0      -29.061242    1.172393    3.317494
     46          1           0      -29.068018   -4.297586    0.026069
     47          1           0      -24.401655   -2.100146   -3.716311
     48          1           0      -25.416081    4.098237    1.867486
     49          1           0      -28.181978    3.707648    2.800454
     50          1           0      -25.448852    3.066080    3.859003
     51          1           0      -26.741108    1.976356    4.429819
     52          1           0      -26.801957    3.665027    4.813922
     53          1           0      -28.204496    4.943113    1.052645
     54          1           0      -27.246762    5.103884   -0.261349
     55          1           0      -27.655783    7.193763    1.522195
     56          1           0      -26.148873    7.047298    0.616937
     57          1           0      -30.371289   -0.892784    4.598337
     58          1           0      -31.883486   -1.200335    3.587993
     59          1           0      -31.009608    0.247188    3.419189
     60          1           0      -32.651011   -3.298219    3.027614
     61          1           0      -31.161930   -3.410278    4.059465
     62          1           0      -32.068675   -4.826665    3.654266
     63          1           0      -27.715088   -5.047790   -2.228434
     64          1           0      -24.811341   -4.460608   -2.382239
     65          1           0      -25.996244   -5.175213    0.317401
     66          1           0      -25.364372   -6.149758   -0.867922
     67          1           0      -27.082053   -6.351411   -0.459322
     68          1           0      -25.439425   -3.842962   -4.785859
     69          1           0      -27.137362   -4.094862   -4.382777
     70          1           0      -25.692234   -6.439052   -3.644435
     71          1           0      -24.995225   -5.979040   -5.098451
     72          1           0      -26.697439   -6.365620   -5.155344
     73          1           0      -23.520158   -0.124560   -4.910821
     74          1           0      -22.074024   -0.256186   -3.939828
     75          1           0      -22.468600    1.340848   -4.458323
     76          1           0      -24.772278    4.594646   -1.226449
     77          1           0      -20.998461    5.314810    0.339107
     78          1           0      -22.019532    5.699400    1.836306
     79          1           0      -21.744349    6.894573    0.587099
     80         12           0       25.943030   -0.859719    0.202490
     81          6           0       26.931967    2.238660   -1.299800
     82          6           0       25.204958    1.034382    3.085405
     83          6           0       25.684506   -3.615744    1.946526
     84          6           0       27.058431   -2.501911   -2.558226
     85          7           0       26.020021    1.383092    0.765778
     86          6           0       26.356287    2.387249   -0.079143
     87          6           0       26.052853    3.713437    0.598344
     88          6           0       25.466454    3.410560    2.006024
     89          6           0       25.527308    1.871559    1.961849
     90          6           0       26.297519    4.106410    3.225518
     91          6           0       25.030466    4.606026   -0.227390
     92          6           0       25.412406    6.072455   -0.431481
     93          1           0       26.223745    6.864398    0.670971
     94          7           0       25.552050   -1.238425    2.269721
     95          6           0       25.264757   -0.364244    3.210802
     96          6           0       25.051527   -1.097735    4.426521
     97          6           0       25.026176   -2.488926    4.153456
     98          6           0       25.459963   -2.496138    2.780900
     99          6           0       24.589752   -0.432330    5.721960
    100          6           0       24.594769   -3.718585    4.937173
    101          8           0       24.726910   -4.853016    4.515719
    102          6           0       23.927063   -3.458990    6.259565
    103          7           0       26.661061   -2.745546   -0.151029
    104          6           0       26.228582   -3.786108    0.673161
    105          6           0       26.352813   -5.183024    0.006308
    106          6           0       26.637989   -4.728700   -1.474780
    107          6           0       26.797380   -3.209826   -1.408884
    108          6           0       27.455097   -6.014288    0.678566
    109          6           0       25.432418   -5.037828   -2.482905
    110          6           0       25.585079   -6.163072   -3.450648
    111          7           0       26.695134   -0.295713   -1.583445
    112          6           0       27.139861   -1.098663   -2.611468
    113          6           0       27.763830   -0.340779   -3.692915
    114          6           0       27.703199    1.018726   -3.220424
    115          6           0       27.171288    0.971082   -1.910202
    116          6           0       28.124597   -0.914115   -5.015440
    117          6           0       27.926335    2.412476   -3.572856
    118          8           0       28.363181    2.853523   -4.651498
    119          6           0       27.449560    3.302266   -2.288970
    120          6           0       28.651611    3.991802   -1.847656
    121          8           0       29.678455    3.426035   -1.541969
    122          8           0       28.471992    5.317500   -1.812548
    123          6           0       29.572706    6.263600   -1.447753
    124          1           0       24.891091    1.576675    3.979657
    125          1           0       25.234733   -4.550438    2.289765
    126          1           0       27.324515   -3.065814   -3.454400
    127          1           0       27.003797    4.230833    0.725362
    128          1           0       24.474149    3.842715    2.136268
    129          1           0       26.861949    4.967884    2.868482
    130          1           0       26.941374    3.314543    3.609145
    131          1           0       25.608105    4.407768    4.014013
    132          1           0       24.001950    4.581478    0.130073
    133          1           0       24.952811    4.214068   -1.241438
    134          1           0       24.539768    6.687886   -0.651238
    135          1           0       25.969550    6.044384   -1.367918
    136          1           0       23.513268   -0.477186    5.887935
    137          1           0       24.992755    0.575930    5.822020
    138          1           0       25.080974   -0.975445    6.529002
    139          1           0       23.221901   -2.627325    6.268972
    140          1           0       24.609362   -3.265643    7.086145
    141          1           0       23.228069   -4.269640    6.465539
    142          1           0       25.393256   -5.684975    0.127355
    143          1           0       27.535263   -5.245946   -1.814820
    144          1           0       27.839537   -5.589545    1.605771
    145          1           0       28.328539   -6.118457    0.035824
    146          1           0       27.074752   -7.016003    0.881242
    147          1           0       25.151433   -4.206074   -3.128893
    148          1           0       24.486957   -5.201796   -1.967190
    149          1           0       24.847916   -6.938367   -3.245765
    150          1           0       26.597836   -6.516140   -3.255426
    151          1           0       25.439732   -5.810824   -4.471826
    152          1           0       27.971600   -0.191655   -5.816434
    153          1           0       27.573712   -1.850558   -5.101237
    154          1           0       29.188009   -1.153031   -4.970207
    155          1           0       26.696832    4.039356   -2.565355
    156          1           0       30.459511    6.030338   -2.037339
    157          1           0       29.847594    6.201378   -0.394534
    158          1           0       29.287795    7.313339   -1.512658
 ---------------------------------------------------------------------

 SCF Done:  E(RCAM-B3LYP) =  -4069.81954007     A.U. after   18 cycles

 Excitation energies and oscillator strengths:

 Excited State   1:      Singlet-A      1.6834 eV  736.49 nm  f=0.4032  <S**2>=0.000
     309 -> 316        0.17293
     312 -> 313        0.68701
     309 <- 316        0.10715
 This state for optimization and/or second-order correction.
 Total Energy, E(TD-HF/TD-DFT) =  -4069.75767469
 Copying the excited state density for this state as the 1-particle RhoCI density.

 Excited State   2:      Singlet-A      1.7725 eV  699.50 nm  f=0.3825  <S**2>=0.000
     310 -> 315       -0.19901
     311 -> 314        0.67935
     310 <- 315       -0.10974

 Excited State   3:      Singlet-A      2.1993 eV  563.73 nm  f=0.1313  <S**2>=0.000
     309 -> 313        0.65028
     312 -> 316       -0.26295

 Excited State   4:      Singlet-A      2.2144 eV  559.89 nm  f=0.1121  <S**2>=0.000
     310 -> 314        0.64302
     311 -> 315        0.28129

 Excited State   5:      Singlet-A      3.2338 eV  383.40 nm  f=0.0000  <S**2>=0.000
     311 -> 313        0.70711

 The electronic state is 1-A.
 Alpha  occ. eigenvalues --  -46.88608 -46.88396 -19.25251 -19.24798 -19.20163
 Alpha  occ. eigenvalues --  -19.19518 -19.19308 -19.19000 -19.18507 -19.18239
 Alpha  occ. eigenvalues --  -14.42218 -14.41867 -14.41701 -14.41538 -14.39677
 Alpha  occ. eigenvalues --  -14.39362 -14.39076 -14.38944 -10.38554 -10.38490
 Alpha  occ. eigenvalues --  -10.36273 -10.35776 -10.35448 -10.34760 -10.32529
 Alpha  occ. eigenvalues --  -10.31839 -10.31320 -10.31273 -10.30732 -10.30682
 Alpha  occ. eigenvalues --  -10.30669 -10.30507 -10.30475 -10.30423 -10.30337
 Alpha  occ. eigenvalues --  -10.30257 -10.29638 -10.29572 -10.29433 -10.29214
 Alpha  occ. eigenvalues --  -10.29167 -10.29014 -10.28987 -10.28928 -10.28922
 Alpha  occ. eigenvalues --  -10.28736 -10.28553 -10.28196 -10.28187 -10.28170
 Alpha  occ. eigenvalues --  -10.28093 -10.28007 -10.27923 -10.27787 -10.27786
 Alpha  occ. eigenvalues --  -10.27767 -10.27715 -10.27615 -10.27605 -10.27558
 Alpha  occ. eigenvalues --  -10.27175 -10.27138 -10.27103 -10.27075 -10.26994
 Alpha  occ. eigenvalues --  -10.26918 -10.26680 -10.26649 -10.26562 -10.26560
 Alpha  occ. eigenvalues --  -10.26415 -10.26274 -10.26214 -10.26157 -10.26055
 Alpha  occ. eigenvalues --  -10.26046 -10.25795 -10.25667 -10.25566 -10.25557
 Alpha  occ. eigenvalues --  -10.25452 -10.25395 -10.25328 -10.25009 -10.24652
 Alpha  occ. eigenvalues --  -10.24452  -3.17236  -3.17010  -1.92102  -1.91903
 Alpha  occ. eigenvalues --   -1.91697  -1.91547  -1.91471  -1.91313  -1.16549
 Alpha  occ. eigenvalues --   -1.15523  -1.12516  -1.10833  -1.08427  -1.07358
 Alpha  occ. eigenvalues --   -1.07226  -1.06748  -1.05384  -1.04638  -1.04316
 Alpha  occ. eigenvalues --   -1.03498  -1.03457  -1.03133  -1.01873  -1.00872
 Alpha  occ. eigenvalues --   -0.92523  -0.92152  -0.89320  -0.88624  -0.88359
 Alpha  occ. eigenvalues --   -0.88253  -0.88086  -0.87843  -0.87483  -0.87097
 Alpha  occ. eigenvalues --   -0.87010  -0.86961  -0.86855  -0.86395  -0.84216
 Alpha  occ. eigenvalues --   -0.84113  -0.83913  -0.83482  -0.82653  -0.82326
 Alpha  occ. eigenvalues --   -0.81822  -0.81740  -0.81275  -0.81051  -0.80686
 Alpha  occ. eigenvalues --   -0.80279  -0.78548  -0.78254  -0.77664  -0.77390
 Alpha  occ. eigenvalues --   -0.76855  -0.76384  -0.76267  -0.75754  -0.74841
 Alpha  occ. eigenvalues --   -0.74831  -0.72474  -0.72207  -0.71465  -0.71404
 Alpha  occ. eigenvalues --   -0.69414  -0.68791  -0.68740  -0.68183  -0.67789
 Alpha  occ. eigenvalues --   -0.67639  -0.66992  -0.66963  -0.65822  -0.65546
 Alpha  occ. eigenvalues --   -0.65408  -0.65151  -0.64755  -0.64613  -0.64489
 Alpha  occ. eigenvalues --   -0.64081  -0.62413  -0.61553  -0.60491  -0.60023
 Alpha  occ. eigenvalues --   -0.59369  -0.59219  -0.59133  -0.58806  -0.58479
 Alpha  occ. eigenvalues --   -0.58282  -0.58032  -0.57879  -0.57665  -0.57461
 Alpha  occ. eigenvalues --   -0.56072  -0.55992  -0.55747  -0.55721  -0.55159
 Alpha  occ. eigenvalues --   -0.55152  -0.54552  -0.54356  -0.53976  -0.53491
 Alpha  occ. eigenvalues --   -0.53354  -0.53306  -0.53153  -0.52980  -0.52952
 Alpha  occ. eigenvalues --   -0.52905  -0.52725  -0.52609  -0.52351  -0.52083
 Alpha  occ. eigenvalues --   -0.52070  -0.51908  -0.51373  -0.51275  -0.51180
 Alpha  occ. eigenvalues --   -0.51115  -0.50941  -0.50717  -0.50577  -0.50517
 Alpha  occ. eigenvalues --   -0.50384  -0.50061  -0.49962  -0.49433  -0.49253
 Alpha  occ. eigenvalues --   -0.49142  -0.49017  -0.48956  -0.48744  -0.48557
 Alpha  occ. eigenvalues --   -0.48529  -0.48463  -0.48387  -0.48193  -0.48133
 Alpha  occ. eigenvalues --   -0.47835  -0.47788  -0.47708  -0.47419  -0.47036
 Alpha  occ. eigenvalues --   -0.46733  -0.46629  -0.46592  -0.46453  -0.46234
 Alpha  occ. eigenvalues --   -0.46183  -0.46107  -0.46032  -0.45880  -0.45603
 Alpha  occ. eigenvalues --   -0.45295  -0.45121  -0.45090  -0.44858  -0.44499
 Alpha  occ. eigenvalues --   -0.44407  -0.44283  -0.44226  -0.44168  -0.43812
 Alpha  occ. eigenvalues --   -0.43739  -0.43582  -0.43522  -0.43287  -0.43206
 Alpha  occ. eigenvalues --   -0.43008  -0.42922  -0.42775  -0.42748  -0.42666
 Alpha  occ. eigenvalues --   -0.42599  -0.42462  -0.42266  -0.41832  -0.41712
 Alpha  occ. eigenvalues --   -0.41668  -0.41504  -0.41465  -0.41404  -0.41278
 Alpha  occ. eigenvalues --   -0.41188  -0.40999  -0.40654  -0.40539  -0.40280
 Alpha  occ. eigenvalues --   -0.40205  -0.39810  -0.39709  -0.39393  -0.39313
 Alpha  occ. eigenvalues --   -0.38382  -0.38218  -0.37981  -0.37910  -0.37619
 Alpha  occ. eigenvalues --   -0.36962  -0.36882  -0.36560  -0.36541  -0.36321
 Alpha  occ. eigenvalues --   -0.36211  -0.36137  -0.34443  -0.34310  -0.33896
 Alpha  occ. eigenvalues --   -0.33752  -0.33438  -0.32999  -0.31754  -0.31683
 Alpha  occ. eigenvalues --   -0.31227  -0.31197  -0.30729  -0.30385  -0.30146
 Alpha  occ. eigenvalues --   -0.30075  -0.29382  -0.29169  -0.23821  -0.23669
 Alpha  occ. eigenvalues --   -0.21240  -0.20950
 Alpha virt. eigenvalues --   -0.08707  -0.08421  -0.01693  -0.01106  -0.00033
 Alpha virt. eigenvalues --    0.00127   0.01791   0.02088   0.02092   0.02602
 Alpha virt. eigenvalues --    0.04778   0.05465   0.05533   0.05938   0.06047

 Mulliken charges:
               1
     1  Mg  12.000008
     2  C    5.999943
     3  C    5.999976
     4  C    6.000038
     5  C    6.000035
     6  N    6.999969
     7  C    6.000050
     8  C    5.999979
     9  C    6.000020
    10  C    6.000002
    11  C    6.000002
    12  C    6.000003
    13  C    6.000005
    14  H    0.999973
    15  N    7.000012
    16  C    6.000014
    17  C    5.999984
    18  C    6.000003
    19  C    5.999967
    20  C    5.999995
    21  C    5.999988
    22  O    7.999991
    23  C    6.000003
    24  N    7.000025
    25  C    5.999964
    26  C    6.000015
    27  C    5.999977
    28  C    5.999984
    29  C    6.000000
    30  C    6.000005
    31  C    6.000004
    32  N    6.999986
    33  C    5.999990
    34  C    6.000033
    35  C    5.999979
    36  C    6.000030
    37  C    5.999997
    38  C    6.000026
    39  O    8.000018
    40  C    6.000012
    41  C    5.999999
    42  O    7.999985
    43  O    8.000012
    44  C    5.999997
    45  H    0.999983
    46  H    0.999995
    47  H    1.000015
    48  H    0.999981
    49  H    1.000003
    50  H    0.999971
    51  H    0.999990
    52  H    0.999985
    53  H    1.000015
    54  H    1.000014
    55  H    1.000013
    56  H    1.000004
    57  H    0.999967
    58  H    0.999996
    59  H    0.999998
    60  H    1.000007
    61  H    0.999981
    62  H    0.999983
    63  H    1.000019
    64  H    0.999988
    65  H    0.999981
    66  H    0.999981
    67  H    1.000010
    68  H    1.000007
    69  H    1.000020
    70  H    0.999987
    71  H    1.000004
    72  H    1.000021
    73  H    1.000036
    74  H    1.000007
    75  H    1.000024
    76  H    1.000023
    77  H    0.999992
    78  H    0.999986
    79  H    1.000012
    80  Mg  11.997542
    81  C    6.024470
    82  C    5.984098
    83  C    5.968052
    84  C    6.011384
    85  N    7.008198
    86  C    5.972379
    87  C    6.010861
    88  C    5.984744
    89  C    6.034052
    90  C    5.999279
    91  C    6.001255
    92  C    6.000828
    93  H    0.992364
    94  N    6.991473
    95  C    6.041516
    96  C    6.025485
    97  C    6.012561
    98  C    6.040684
    99  C    5.995563
   100  C    6.014074
   101  O    8.027126
   102  C    5.991661
   103  N    6.990651
   104  C    6.047693
   105  C    5.988422
   106  C    6.009169
   107  C    5.971793
   108  C    5.996112
   109  C    6.008693
   110  C    6.000485
   111  N    7.000195
   112  C    5.964294
   113  C    5.961460
   114  C    5.999765
   115  C    5.962118
   116  C    6.004961
   117  C    5.985626
   118  O    7.971375
   119  C    5.992523
   120  C    5.994785
   121  O    7.997845
   122  O    7.997947
   123  C    6.002594
   124  H    1.010423
   125  H    1.005336
   126  H    0.987764
   127  H    0.999905
   128  H    1.006142
   129  H    1.013909
   130  H    0.998179
   131  H    1.000387
   132  H    0.990889
   133  H    1.008202
   134  H    0.997595
   135  H    1.006336
   136  H    1.022914
   137  H    1.018932
   138  H    1.018095
   139  H    1.004991
   140  H    1.009941
   141  H    1.015089
   142  H    1.000298
   143  H    0.996743
   144  H    0.995393
   145  H    1.012851
   146  H    1.003251
   147  H    1.005746
   148  H    0.985918
   149  H    0.992670
   150  H    0.997315
   151  H    1.002150
   152  H    0.980683
   153  H    0.980476
   154  H    0.975142
   155  H    0.990659
   156  H    0.999410
   157  H    0.993158
   158  H    0.994952
 Sum of Mulliken charges = 624.00000

 Dipole moment (field-independent basis, Debye):
    X=             -3.6236    Y=             -2.3630    Z=             10.3736  Tot=             11.2394
 Quadrupole moment (field-independent basis, Debye-Ang):
   XX=           -191.7727   YY=              1.7480   ZZ=              8.1542
   XY=            -61.3000   XZ=            272.0838   YZ=             -9.2269

 Normal termination of Gaussian 16 at Thu Sep 23 06:13:07 2021.
