 Gaussian 16, Revision A.03,
 Gaussian 16:  ES64L-G16RevA.03 25-Dec-2016

 ----------------------------------------------------------
 #p cam-b3lyp/Def2SVP td=(nstates=5) density=(transition=1)
 ----------------------------------------------------------

 --------------------------------
 TDDFT excited states in gaussian
 --------------------------------
 Symbolic Z-matrix:
 Charge =  0 Multiplicity = 1

                         Standard orientation:
 ---------------------------------------------------------------------
 Center     Atomic      Atomic             Coordinates (Angstroms)
 Number     Number       Type             X           Y           Z
 ---------------------------------------------------------------------
      1         12           0       -9.544018   -0.847660    0.606034
      2          6           0      -10.010085    2.545322   -0.220616
      3          6           0       -7.481927    0.097590    3.132886
      4          6           0       -9.039761   -4.123188    1.281748
      5          6           0      -11.297353   -1.719984   -2.261615
      6          7           0       -8.758883    1.056770    1.299598
      7          6           0       -9.174684    2.325804    0.887493
      8          6           0       -8.604049    3.360059    1.810676
      9          6           0       -7.461620    2.587159    2.511571
     10          6           0       -7.935179    1.125771    2.301630
     11          6           0       -6.018576    2.758094    1.940438
     12          6           0       -9.618526    4.012144    2.823878
     13          6           0       -9.545475    5.504053    2.899241
     14          1           0       -9.559754    6.123161    4.309378
     15          7           0       -8.522090   -1.822874    2.048731
     16          6           0       -7.777792   -1.254568    3.095915
     17          6           0       -7.277248   -2.267193    3.937343
     18          6           0       -7.729914   -3.570692    3.419357
     19          6           0       -8.460977   -3.216393    2.236325
     20          6           0       -6.321537   -2.068284    5.077245
     21          6           0       -7.455549   -5.067119    3.882305
     22          8           0       -7.961559   -5.998516    3.302518
     23          6           0       -6.633102   -5.363686    5.128177
     24          7           0      -10.003488   -2.662836   -0.423280
     25          6           0       -9.659210   -3.878887    0.073902
     26          6           0      -10.134846   -5.039100   -0.925116
     27          6           0      -11.125328   -4.275681   -1.909113
     28          6           0      -10.797830   -2.770727   -1.522510
     29          6           0       -9.012646   -5.785245   -1.698454
     30          6           0      -12.640302   -4.635928   -1.707304
     31          6           0      -13.267235   -5.046931   -2.972897
     32          7           0      -10.429173    0.172459   -0.961908
     33          6           0      -11.206564   -0.318713   -2.009663
     34          6           0      -11.729271    0.774124   -2.783705
     35          6           0      -11.264563    1.901866   -2.138247
     36          6           0      -10.529949    1.521051   -1.059873
     37          6           0      -12.677660    0.561836   -3.992443
     38          6           0      -11.235068    3.352508   -2.174203
     39          8           0      -11.658686    4.085884   -3.040218
     40          6           0      -10.374499    3.841356   -0.905776
     41          6           0       -9.220410    4.624356   -1.384164
     42          8           0       -8.343947    4.190846   -2.177247
     43          8           0       -9.302895    5.878756   -0.854546
     44          6           0       -8.443817    6.886735   -1.530551
     45          1           0       -6.798413    0.473835    3.896841
     46          1           0       -8.913768   -5.199238    1.417253
     47          1           0      -11.783630   -2.009735   -3.194902
     48          1           0       -8.082845    4.171073    1.300609
     49          1           0       -7.359492    2.826852    3.570114
     50          1           0       -5.817501    3.751203    1.536562
     51          1           0       -5.888304    1.990875    1.176780
     52          1           0       -5.206421    2.506997    2.622204
     53          1           0       -9.406646    3.533734    3.779895
     54          1           0      -10.645323    3.712469    2.612136
     55          1           0      -10.417210    5.783823    2.307503
     56          1           0       -8.597781    5.844621    2.482324
     57          1           0       -6.747069   -2.176491    6.075142
     58          1           0       -5.972681   -1.036411    5.073528
     59          1           0       -5.418180   -2.676891    5.107666
     60          1           0       -6.726059   -6.436811    5.290540
     61          1           0       -6.917473   -4.719492    5.960706
     62          1           0       -5.619450   -4.983385    4.998411
     63          1           0      -10.596714   -5.848541   -0.359563
     64          1           0      -10.812570   -4.479540   -2.934269
     65          1           0       -7.997122   -5.412404   -1.561041
     66          1           0       -9.164315   -5.784905   -2.778138
     67          1           0       -9.043415   -6.823262   -1.366215
     68          1           0      -13.168245   -3.739928   -1.378749
     69          1           0      -12.823753   -5.455097   -1.012332
     70          1           0      -13.312733   -6.135990   -2.998871
     71          1           0      -12.866315   -4.666985   -3.911914
     72          1           0      -14.272393   -4.628939   -3.029119
     73          1           0      -13.083842   -0.449001   -3.948925
     74          1           0      -12.200104    0.846679   -4.931061
     75          1           0      -13.510249    1.236258   -3.795809
     76          1           0      -10.973161    4.443651   -0.221971
     77          1           0       -8.659594    7.884328   -1.148357
     78          1           0       -8.795588    6.906643   -2.562266
     79          1           0       -7.414644    6.542273   -1.425517
     80         12           0        9.735036   -0.473709   -0.142890
     81          6           0        7.904328    2.502095   -0.656039
     82          6           0       12.302502    1.345968    1.189421
     83          6           0       11.603749   -3.183368   -0.331971
     84          6           0        7.225302   -2.182108   -1.978225
     85          7           0        9.986879    1.685152    0.318428
     86          6           0        9.130669    2.646848    0.035203
     87          6           0        9.534071    3.886946    0.812262
     88          6           0       11.085468    3.692506    1.019952
     89          6           0       11.167635    2.132246    0.827556
     90          6           0       11.915752    4.593475    0.028674
     91          6           0        8.841681    3.972062    2.196754
     92          6           0        8.786665    5.421196    2.853175
     93          1           0        9.411541    6.642617    2.173603
     94          7           0       11.574799   -0.907977    0.534876
     95          6           0       12.517404   -0.043457    1.148257
     96          6           0       13.694092   -0.850291    1.547678
     97          6           0       13.513854   -2.177902    1.016840
     98          6           0       12.189647   -2.184481    0.358034
     99          6           0       14.827931   -0.319912    2.352178
    100          6           0       14.401170   -3.482239    1.064783
    101          8           0       14.042047   -4.582968    0.624953
    102          6           0       15.818148   -3.360530    1.545511
    103          7           0        9.500884   -2.406810   -1.141370
    104          6           0       10.385388   -3.360944   -1.021228
    105          6           0       10.008984   -4.669001   -1.658740
    106          6           0        8.574439   -4.360835   -2.214998
    107          6           0        8.355263   -2.911884   -1.674948
    108          6           0       11.086953   -5.160577   -2.629226
    109          6           0        7.483442   -5.303169   -1.722173
    110          6           0        6.400818   -5.739605   -2.773200
    111          7           0        7.840352   -0.026007   -1.101220
    112          6           0        6.917487   -0.852840   -1.771311
    113          6           0        5.740918   -0.099391   -2.038808
    114          6           0        6.113931    1.260660   -1.794020
    115          6           0        7.347125    1.245082   -1.193133
    116          6           0        4.410119   -0.666204   -2.442711
    117          6           0        5.721180    2.688839   -1.726993
    118          8           0        4.695365    3.233152   -2.078967
    119          6           0        6.993778    3.522690   -1.224027
    120          6           0        6.564339    4.733501   -0.462047
    121          8           0        5.930003    4.752411    0.551328
    122          8           0        6.915765    5.915843   -1.139851
    123          6           0        6.023191    7.078505   -0.947555
    124          1           0       13.227565    1.870209    1.439900
    125          1           0       12.077679   -4.166494   -0.322240
    126          1           0        6.438433   -2.755140   -2.473277
    127          1           0        9.138341    4.695798    0.198141
    128          1           0       11.389135    3.946943    2.035964
    129          1           0       11.245865    5.160739   -0.616651
    130          1           0       12.382249    3.868996   -0.638902
    131          1           0       12.572690    5.317567    0.510732
    132          1           0        9.443121    3.323704    2.835249
    133          1           0        7.843751    3.549328    2.080977
    134          1           0        9.235829    5.288698    3.838627
    135          1           0        7.725999    5.603670    3.027483
    136          1           0       14.734952    0.659169    2.820749
    137          1           0       15.736149   -0.204341    1.761330
    138          1           0       14.935126   -1.048869    3.155829
    139          1           0       15.931248   -3.458330    2.625103
    140          1           0       16.047296   -2.366563    1.159330
    141          1           0       16.384598   -4.113064    0.997629
    142          1           0        9.951703   -5.328147   -0.792611
    143          1           0        8.512464   -4.359332   -3.302539
    144          1           0       11.703182   -4.363319   -3.045987
    145          1           0       10.539385   -5.601360   -3.461345
    146          1           0       11.756687   -5.893416   -2.178680
    147          1           0        6.932843   -4.865285   -0.889759
    148          1           0        8.034232   -6.103323   -1.227947
    149          1           0        6.502993   -5.184566   -3.705564
    150          1           0        5.452097   -5.469869   -2.309695
    151          1           0        6.325906   -6.792984   -3.045161
    152          1           0        4.636255   -1.350366   -3.260707
    153          1           0        3.691620    0.071684   -2.800087
    154          1           0        3.999472   -1.264908   -1.629054
    155          1           0        7.464966    3.987287   -2.089596
    156          1           0        6.594177    7.855168   -0.438545
    157          1           0        5.122775    6.821985   -0.388305
    158          1           0        5.755287    7.400384   -1.953864
 ---------------------------------------------------------------------

 SCF Done:  E(RCAM-B3LYP) =  -4069.82220384     A.U. after   19 cycles

 Excitation energies and oscillator strengths:

 Excited State   1:      Singlet-A      1.7435 eV  711.13 nm  f=0.4111  <S**2>=0.000
     309 -> 316        0.17817
     311 -> 313        0.68439
     309 <- 316        0.10684
 This state for optimization and/or second-order correction.
 Total Energy, E(TD-HF/TD-DFT) =  -4069.75813236
 Copying the excited state density for this state as the 1-particle RhoCI density.

 Excited State   2:      Singlet-A      1.7946 eV  690.89 nm  f=0.3614  <S**2>=0.000
     310 -> 315        0.18882
     312 -> 314        0.68005
     310 <- 315        0.10305

 Excited State   3:      Singlet-A      2.1694 eV  571.50 nm  f=0.0869  <S**2>=0.000
     310 -> 314        0.64252
     312 -> 315       -0.27280

 Excited State   4:      Singlet-A      2.2016 eV  563.16 nm  f=0.1648  <S**2>=0.000
     309 -> 313        0.65353
     311 -> 316       -0.24932

 Excited State   5:      Singlet-A      2.8962 eV  428.09 nm  f=0.0000  <S**2>=0.000
     312 -> 313        0.70701

 The electronic state is 1-A.
 Alpha  occ. eigenvalues --  -46.88564 -46.87017 -19.25458 -19.23303 -19.20328
 Alpha  occ. eigenvalues --  -19.19753 -19.19618 -19.19311 -19.18871 -19.18386
 Alpha  occ. eigenvalues --  -14.41993 -14.41893 -14.41762 -14.41342 -14.39768
 Alpha  occ. eigenvalues --  -14.39128 -14.38391 -14.38027 -10.39230 -10.38587
 Alpha  occ. eigenvalues --  -10.36819 -10.36208 -10.34871 -10.34834 -10.32239
 Alpha  occ. eigenvalues --  -10.31965 -10.31572 -10.30922 -10.30875 -10.30837
 Alpha  occ. eigenvalues --  -10.30657 -10.30630 -10.30477 -10.30467 -10.30441
 Alpha  occ. eigenvalues --  -10.30284 -10.30123 -10.29755 -10.29752 -10.29230
 Alpha  occ. eigenvalues --  -10.28937 -10.28786 -10.28488 -10.28264 -10.28219
 Alpha  occ. eigenvalues --  -10.28112 -10.28005 -10.27960 -10.27916 -10.27893
 Alpha  occ. eigenvalues --  -10.27881 -10.27734 -10.27710 -10.27709 -10.27658
 Alpha  occ. eigenvalues --  -10.27640 -10.27617 -10.27568 -10.27547 -10.27510
 Alpha  occ. eigenvalues --  -10.27479 -10.27407 -10.27248 -10.27057 -10.26920
 Alpha  occ. eigenvalues --  -10.26782 -10.26733 -10.26603 -10.26322 -10.26234
 Alpha  occ. eigenvalues --  -10.26194 -10.26175 -10.26090 -10.26026 -10.25977
 Alpha  occ. eigenvalues --  -10.25891 -10.25876 -10.25819 -10.25635 -10.25618
 Alpha  occ. eigenvalues --  -10.25593 -10.25470 -10.25213 -10.24548 -10.24445
 Alpha  occ. eigenvalues --  -10.24192  -3.17025  -3.15745  -1.91938  -1.91482
 Alpha  occ. eigenvalues --   -1.91321  -1.90650  -1.90189  -1.90070  -1.15555
 Alpha  occ. eigenvalues --   -1.15241  -1.11575  -1.10506  -1.10157  -1.09562
 Alpha  occ. eigenvalues --   -1.07037  -1.06132  -1.05127  -1.04766  -1.04547
 Alpha  occ. eigenvalues --   -1.03180  -1.02397  -1.01717  -1.01268  -1.00994
 Alpha  occ. eigenvalues --   -0.92409  -0.91841  -0.89299  -0.89018  -0.88922
 Alpha  occ. eigenvalues --   -0.88521  -0.87880  -0.87780  -0.87619  -0.87260
 Alpha  occ. eigenvalues --   -0.86863  -0.86260  -0.85668  -0.85457  -0.84123
 Alpha  occ. eigenvalues --   -0.84004  -0.83709  -0.83687  -0.82889  -0.82735
 Alpha  occ. eigenvalues --   -0.81972  -0.81724  -0.81033  -0.80701  -0.80495
 Alpha  occ. eigenvalues --   -0.79895  -0.78623  -0.78078  -0.77203  -0.77138
 Alpha  occ. eigenvalues --   -0.76610  -0.76406  -0.75560  -0.75428  -0.75175
 Alpha  occ. eigenvalues --   -0.74721  -0.72720  -0.72527  -0.71720  -0.70760
 Alpha  occ. eigenvalues --   -0.69841  -0.68648  -0.68434  -0.67986  -0.67418
 Alpha  occ. eigenvalues --   -0.67279  -0.66659  -0.66386  -0.66061  -0.65343
 Alpha  occ. eigenvalues --   -0.65229  -0.65035  -0.64549  -0.64402  -0.63873
 Alpha  occ. eigenvalues --   -0.63490  -0.61762  -0.61080  -0.60226  -0.60155
 Alpha  occ. eigenvalues --   -0.59954  -0.59126  -0.59083  -0.58628  -0.58079
 Alpha  occ. eigenvalues --   -0.58042  -0.57566  -0.57522  -0.57460  -0.56854
 Alpha  occ. eigenvalues --   -0.56482  -0.56013  -0.55507  -0.55465  -0.55321
 Alpha  occ. eigenvalues --   -0.55104  -0.54806  -0.54291  -0.53716  -0.53703
 Alpha  occ. eigenvalues --   -0.53403  -0.53237  -0.53228  -0.53141  -0.52854
 Alpha  occ. eigenvalues --   -0.52452  -0.52404  -0.52206  -0.52050  -0.51751
 Alpha  occ. eigenvalues --   -0.51745  -0.51661  -0.51409  -0.51393  -0.51223
 Alpha  occ. eigenvalues --   -0.50930  -0.50867  -0.50729  -0.50529  -0.50320
 Alpha  occ. eigenvalues --   -0.50201  -0.50050  -0.49923  -0.49637  -0.49299
 Alpha  occ. eigenvalues --   -0.49289  -0.49264  -0.48960  -0.48953  -0.48676
 Alpha  occ. eigenvalues --   -0.48545  -0.48347  -0.48051  -0.47868  -0.47776
 Alpha  occ. eigenvalues --   -0.47542  -0.47527  -0.47340  -0.47088  -0.47050
 Alpha  occ. eigenvalues --   -0.46631  -0.46581  -0.46509  -0.46486  -0.46287
 Alpha  occ. eigenvalues --   -0.46177  -0.45985  -0.45687  -0.45575  -0.45568
 Alpha  occ. eigenvalues --   -0.45469  -0.45249  -0.45066  -0.44918  -0.44895
 Alpha  occ. eigenvalues --   -0.44580  -0.44509  -0.44304  -0.44272  -0.44169
 Alpha  occ. eigenvalues --   -0.43968  -0.43740  -0.43359  -0.43240  -0.43222
 Alpha  occ. eigenvalues --   -0.43095  -0.42762  -0.42756  -0.42689  -0.42623
 Alpha  occ. eigenvalues --   -0.42452  -0.42279  -0.42138  -0.42038  -0.41768
 Alpha  occ. eigenvalues --   -0.41721  -0.41704  -0.41574  -0.41384  -0.41178
 Alpha  occ. eigenvalues --   -0.41070  -0.41001  -0.40782  -0.40353  -0.40156
 Alpha  occ. eigenvalues --   -0.40020  -0.39853  -0.39082  -0.39002  -0.38831
 Alpha  occ. eigenvalues --   -0.38671  -0.38199  -0.37750  -0.37687  -0.37670
 Alpha  occ. eigenvalues --   -0.37588  -0.36566  -0.36411  -0.36157  -0.35826
 Alpha  occ. eigenvalues --   -0.35780  -0.35441  -0.34207  -0.34085  -0.33941
 Alpha  occ. eigenvalues --   -0.33820  -0.33127  -0.32990  -0.31924  -0.31628
 Alpha  occ. eigenvalues --   -0.31214  -0.31107  -0.30691  -0.30498  -0.29945
 Alpha  occ. eigenvalues --   -0.29826  -0.29402  -0.28321  -0.23806  -0.23751
 Alpha  occ. eigenvalues --   -0.21365  -0.21351
 Alpha virt. eigenvalues --   -0.08851  -0.08512  -0.02048  -0.01106  -0.00148
 Alpha virt. eigenvalues --    0.00895   0.02694   0.02950   0.02974   0.03602
 Alpha virt. eigenvalues --    0.04703   0.04785   0.05582   0.05739   0.06312

 Mulliken charges:
               1
     1  Mg  12.000021
     2  C    6.033245
     3  C    5.997880
     4  C    5.966855
     5  C    6.003507
     6  N    7.016932
     7  C    5.960120
     8  C    6.012880
     9  C    5.993711
    10  C    6.023547
    11  C    5.996001
    12  C    6.003603
    13  C    6.001513
    14  H    0.993015
    15  N    6.994684
    16  C    6.033361
    17  C    6.022787
    18  C    6.017896
    19  C    6.035422
    20  C    5.992375
    21  C    6.013140
    22  O    8.026930
    23  C    5.997647
    24  N    6.986808
    25  C    6.037537
    26  C    5.992325
    27  C    6.007121
    28  C    5.977737
    29  C    5.999612
    30  C    6.003824
    31  C    6.001212
    32  N    7.000884
    33  C    5.965343
    34  C    5.964959
    35  C    6.002978
    36  C    5.963067
    37  C    6.001658
    38  C    5.984397
    39  O    7.973246
    40  C    5.994499
    41  C    5.995891
    42  O    7.997209
    43  O    7.997804
    44  C    6.000850
    45  H    1.016386
    46  H    1.003586
    47  H    0.986237
    48  H    0.997620
    49  H    1.001454
    50  H    1.015880
    51  H    1.002724
    52  H    0.998421
    53  H    0.985642
    54  H    1.003407
    55  H    1.005023
    56  H    0.998245
    57  H    1.023823
    58  H    1.018108
    59  H    1.021479
    60  H    1.014371
    61  H    1.004575
    62  H    1.006170
    63  H    0.998215
    64  H    0.997522
    65  H    0.996473
    66  H    1.009819
    67  H    0.998681
    68  H    1.003185
    69  H    0.987298
    70  H    0.992562
    71  H    1.002258
    72  H    0.999887
    73  H    0.982845
    74  H    0.978200
    75  H    0.980879
    76  H    0.992085
    77  H    0.995460
    78  H    1.001147
    79  H    0.994300
    80  Mg  11.999505
    81  C    6.000479
    82  C    5.999478
    83  C    5.999513
    84  C    6.000199
    85  N    7.000150
    86  C    5.999184
    87  C    6.000140
    88  C    5.999678
    89  C    6.000949
    90  C    5.999953
    91  C    6.000131
    92  C    5.999955
    93  H    1.000494
    94  N    6.999671
    95  C    6.001143
    96  C    6.000554
    97  C    6.000528
    98  C    6.000710
    99  C    5.999798
   100  C    6.000354
   101  O    8.000737
   102  C    5.999892
   103  N    7.000035
   104  C    6.000949
   105  C    5.999686
   106  C    6.000365
   107  C    5.999037
   108  C    5.999831
   109  C    6.000359
   110  C    6.000100
   111  N    7.000062
   112  C    5.998999
   113  C    5.999003
   114  C    6.000027
   115  C    5.999145
   116  C    5.999935
   117  C    5.999364
   118  O    7.999522
   119  C    5.999894
   120  C    5.999921
   121  O    7.999433
   122  O    8.000071
   123  C    5.999943
   124  H    1.000411
   125  H    1.000195
   126  H    0.999523
   127  H    1.000406
   128  H    1.000086
   129  H    1.000576
   130  H    1.000097
   131  H    1.000287
   132  H    0.999449
   133  H    0.999758
   134  H    0.999759
   135  H    0.999856
   136  H    1.000563
   137  H    1.000825
   138  H    1.000394
   139  H    1.000247
   140  H    1.000171
   141  H    1.000563
   142  H    0.999712
   143  H    1.000232
   144  H    1.000244
   145  H    1.000486
   146  H    0.999980
   147  H    0.999327
   148  H    0.999554
   149  H    1.000568
   150  H    0.999374
   151  H    0.999896
   152  H    0.999957
   153  H    0.999871
   154  H    0.998138
   155  H    1.000337
   156  H    0.999973
   157  H    0.999793
   158  H    1.000516
 Sum of Mulliken charges = 624.00000

 Dipole moment (field-independent basis, Debye):
    X=              5.9855    Y=             -4.6482    Z=              8.1811  Tot=             11.1518
 Quadrupole moment (field-independent basis, Debye-Ang):
   XX=           -100.8789   YY=              5.2083   ZZ=              9.6404
   XY=             37.8622   XZ=            -72.6356   YZ=            -10.8222

 Normal termination of Gaussian 16 at Tue Sep 21 21:09:28 2021.
