 Gaussian 16, Revision A.03,
 Gaussian 16:  ES64L-G16RevA.03 25-Dec-2016

 -----------------------------------
 #p cam-b3lyp/Def2SVP td=(nstates=5)
 -----------------------------------

 --------------------------------
 TDDFT excited states in gaussian
 --------------------------------
 Symbolic Z-matrix:
 Charge =  0 Multiplicity = 1

                         Standard orientation:
 ---------------------------------------------------------------------
 Center     Atomic      Atomic             Coordinates (Angstroms)
 Number     Number       Type             X           Y           Z
 ---------------------------------------------------------------------
      1         12           0       -4.677964   -0.336574    0.885176
      2          6           0       -5.292295    2.792763   -0.249092
      3          6           0       -2.092746    0.885537    2.856935
      4          6           0       -4.059743   -3.467601    2.014752
      5          6           0       -6.910264   -1.615857   -1.430708
      6          7           0       -3.938267    1.593595    1.286235
      7          6           0       -4.290716    2.766196    0.701278
      8          6           0       -3.649900    3.956457    1.366135
      9          6           0       -2.441345    3.320515    2.152572
     10          6           0       -2.871730    1.817342    2.121018
     11          6           0       -0.949566    3.603292    1.694975
     12          6           0       -4.646937    4.673798    2.383530
     13          6           0       -4.283073    6.169198    2.620629
     14          1           0       -2.842864    6.688009    2.473048
     15          7           0       -3.214318   -1.238553    2.201440
     16          6           0       -2.236397   -0.504560    2.922634
     17          6           0       -1.475290   -1.400634    3.739986
     18          6           0       -2.023840   -2.710938    3.500929
     19          6           0       -3.162158   -2.477882    2.541855
     20          6           0       -0.413434   -0.982525    4.695694
     21          6           0       -1.608368   -4.054473    4.089722
     22          8           0       -2.063500   -5.184313    3.744614
     23          6           0       -0.544324   -4.095484    5.173386
     24          7           0       -5.321268   -2.264968    0.331503
     25          6           0       -5.068367   -3.416688    1.078333
     26          6           0       -6.000945   -4.618853    0.752194
     27          6           0       -6.948726   -3.903655   -0.364937
     28          6           0       -6.413850   -2.524862   -0.497362
     29          6           0       -5.152845   -5.779754    0.216955
     30          6           0       -8.417474   -3.974794   -0.067202
     31          6           0       -9.222869   -4.600225   -1.169985
     32          7           0       -5.778756    0.296902   -0.603901
     33          6           0       -6.683817   -0.290907   -1.478895
     34          6           0       -7.248947    0.690370   -2.328996
     35          6           0       -6.717070    1.949501   -1.941250
     36          6           0       -5.905386    1.687928   -0.817290
     37          6           0       -8.249301    0.526831   -3.408098
     38          6           0       -6.633967    3.352505   -2.283459
     39          8           0       -7.085895    4.050165   -3.170302
     40          6           0       -5.730452    3.942465   -1.099340
     41          6           0       -4.768749    4.969260   -1.578937
     42          8           0       -4.090857    4.911481   -2.572887
     43          8           0       -4.724499    6.060835   -0.799376
     44          6           0       -3.756282    7.100884   -1.249785
     45          1           0       -1.203071    1.341643    3.296427
     46          1           0       -3.761115   -4.481968    2.287089
     47          1           0       -7.708434   -1.921678   -2.110196
     48          1           0       -3.177404    4.628916    0.650337
     49          1           0       -2.527096    3.608967    3.199717
     50          1           0       -0.992823    4.338144    0.891010
     51          1           0       -0.351555    2.754402    1.367317
     52          1           0       -0.423965    3.979579    2.572820
     53          1           0       -4.589307    4.065563    3.286380
     54          1           0       -5.646898    4.605906    1.954903
     55          1           0       -4.630377    6.330064    3.641383
     56          1           0       -4.974681    6.748520    2.009509
     57          1           0       -0.760948   -0.628640    5.666363
     58          1           0        0.160461   -0.220292    4.170172
     59          1           0        0.372376   -1.727563    4.816697
     60          1           0        0.412234   -4.072206    4.651538
     61          1           0       -0.671540   -5.066364    5.651618
     62          1           0       -0.588009   -3.259262    5.871410
     63          1           0       -6.437491   -4.925491    1.702796
     64          1           0       -6.807657   -4.418906   -1.315650
     65          1           0       -4.106103   -5.551592    0.014939
     66          1           0       -5.675608   -6.240556   -0.620851
     67          1           0       -5.100695   -6.505325    1.029213
     68          1           0       -8.878680   -2.995313    0.059995
     69          1           0       -8.670662   -4.503360    0.851914
     70          1           0       -9.908583   -5.369516   -0.816047
     71          1           0       -8.580055   -5.070717   -1.913505
     72          1           0       -9.683049   -3.750911   -1.675816
     73          1           0       -8.227847   -0.424077   -3.941297
     74          1           0       -7.868054    1.175061   -4.197642
     75          1           0       -9.246957    0.746881   -3.027998
     76          1           0       -6.533108    4.466525   -0.579675
     77          1           0       -4.139027    7.681028   -2.090654
     78          1           0       -2.756225    6.691800   -1.394417
     79          1           0       -3.627204    7.816753   -0.437646
     80         12           0        4.077625   -0.790978   -0.969473
     81          6           0        6.821963    1.192514   -0.177142
     82          6           0        2.076865    1.984854   -0.783507
     83          6           0        1.390908   -2.836177   -1.430925
     84          6           0        6.304178   -3.559204   -0.856735
     85          7           0        4.402099    1.326062   -0.499137
     86          6           0        5.634200    1.901139   -0.331828
     87          6           0        5.395540    3.407909   -0.206623
     88          6           0        3.890733    3.579865   -0.100512
     89          6           0        3.419708    2.195006   -0.529783
     90          6           0        3.278785    4.048814    1.192195
     91          6           0        6.090249    4.312793   -1.332149
     92          6           0        5.678033    5.819956   -1.345863
     93          1           0        6.520084    6.826845   -0.519310
     94          7           0        2.051563   -0.426279   -1.231949
     95          6           0        1.418024    0.764494   -1.089706
     96          6           0        0.012683    0.507619   -1.268865
     97          6           0       -0.175889   -0.894138   -1.449774
     98          6           0        1.093900   -1.460502   -1.353770
     99          6           0       -0.974796    1.632754   -1.227196
    100          6           0       -1.540746   -1.635367   -1.551785
    101          8           0       -1.635915   -2.834221   -1.358754
    102          6           0       -2.810284   -0.958148   -1.760401
    103          7           0        3.912188   -2.774141   -1.114474
    104          6           0        2.705771   -3.431836   -1.352647
    105          6           0        2.883215   -4.952812   -1.502175
    106          6           0        4.441762   -5.080367   -1.596348
    107          6           0        4.914284   -3.690038   -1.204464
    108          6           0        2.122709   -5.802011   -0.569761
    109          6           0        5.115888   -5.636863   -2.969662
    110          6           0        5.987609   -6.896133   -2.955833
    111          7           0        6.195997   -1.169492   -0.532134
    112          6           0        6.902207   -2.339517   -0.520146
    113          6           0        8.271997   -2.111774   -0.203952
    114          6           0        8.324532   -0.667654   -0.125085
    115          6           0        6.999253   -0.164151   -0.248717
    116          6           0        9.300709   -3.175050   -0.131409
    117          6           0        9.230480    0.450804    0.001103
    118          8           0       10.439349    0.556407    0.068868
    119          6           0        8.229211    1.749563   -0.020966
    120          6           0        8.489142    2.657072    1.125622
    121          8           0        8.273998    2.360612    2.280418
    122          8           0        8.976247    3.849187    0.739058
    123          6           0        9.038659    4.942877    1.783138
    124          1           0        1.442357    2.873888   -0.778499
    125          1           0        0.512533   -3.469297   -1.571369
    126          1           0        6.820397   -4.520914   -0.894848
    127          1           0        5.889084    3.594572    0.747043
    128          1           0        3.565238    4.341975   -0.808126
    129          1           0        2.839090    3.108974    1.524647
    130          1           0        2.575630    4.869756    1.050998
    131          1           0        4.029946    4.290747    1.944384
    132          1           0        5.750494    3.822071   -2.244458
    133          1           0        7.173824    4.252334   -1.237691
    134          1           0        4.668864    5.964562   -0.962203
    135          1           0        5.670211    6.153033   -2.383688
    136          1           0       -0.594529    2.651362   -1.144089
    137          1           0       -1.546247    1.484270   -0.311553
    138          1           0       -1.704846    1.591238   -2.035772
    139          1           0       -3.071644   -0.089907   -1.156337
    140          1           0       -3.690409   -1.601040   -1.759383
    141          1           0       -2.737073   -0.665639   -2.807654
    142          1           0        2.464841   -5.044530   -2.504870
    143          1           0        4.611020   -5.706691   -0.720612
    144          1           0        1.361696   -6.452765   -1.001280
    145          1           0        1.632638   -5.141958    0.146442
    146          1           0        2.735760   -6.508535   -0.010355
    147          1           0        5.741578   -4.839147   -3.369536
    148          1           0        4.448442   -5.855317   -3.804129
    149          1           0        7.060528   -6.712734   -3.018997
    150          1           0        5.665816   -7.683505   -3.636855
    151          1           0        5.910930   -7.330327   -1.958895
    152          1           0        8.893010   -4.010974    0.436531
    153          1           0       10.246813   -2.818139    0.274648
    154          1           0        9.362206   -3.631712   -1.119748
    155          1           0        8.497355    2.302887   -0.920400
    156          1           0        9.770594    5.624677    1.350690
    157          1           0        9.368557    4.506068    2.725507
    158          1           0        8.053359    5.408740    1.804886
 ---------------------------------------------------------------------

 SCF Done:  E(RCAM-B3LYP) =  -4069.81772044     A.U. after   17 cycles

 Excitation energies and oscillator strengths:

 Excited State   1:      Singlet-A      1.6383 eV  756.80 nm  f=0.4400  <S**2>=0.000
     309 -> 315        0.14560
     311 -> 313        0.67905
 This state for optimization and/or second-order correction.
 Total Energy, E(TD-HF/TD-DFT) =  -4069.75751495
 Copying the excited state density for this state as the 1-particle RhoCI density.

 Excited State   2:      Singlet-A      1.6910 eV  733.19 nm  f=0.3674  <S**2>=0.000
     310 -> 316       -0.15465
     312 -> 314        0.67742

 Excited State   3:      Singlet-A      2.1818 eV  568.27 nm  f=0.0067  <S**2>=0.000
     309 -> 313       -0.18296
     312 -> 313        0.67011

 Excited State   4:      Singlet-A      2.2043 eV  562.47 nm  f=0.0297  <S**2>=0.000
     309 -> 313        0.56859
     310 -> 314       -0.23545
     311 -> 315       -0.21325
     311 -> 316        0.12665
     312 -> 313        0.19361

 Excited State   5:      Singlet-A      2.2313 eV  555.67 nm  f=0.1277  <S**2>=0.000
     309 -> 313        0.22152
     310 -> 314        0.58275
     311 -> 315       -0.11323
     312 -> 315        0.12328
     312 -> 316        0.25598

 The electronic state is 1-A.
 Alpha  occ. eigenvalues --  -46.87846 -46.87481 -19.25592 -19.24475 -19.19490
 Alpha  occ. eigenvalues --  -19.19234 -19.18828 -19.18612 -19.18577 -19.18313
 Alpha  occ. eigenvalues --  -14.43188 -14.42658 -14.42044 -14.41827 -14.39695
 Alpha  occ. eigenvalues --  -14.39014 -14.38988 -14.38396 -10.39031 -10.38013
 Alpha  occ. eigenvalues --  -10.35428 -10.35296 -10.35237 -10.34608 -10.32472
 Alpha  occ. eigenvalues --  -10.32185 -10.31734 -10.31564 -10.31243 -10.31072
 Alpha  occ. eigenvalues --  -10.31032 -10.30893 -10.30618 -10.30492 -10.30289
 Alpha  occ. eigenvalues --  -10.30131 -10.29744 -10.29685 -10.29663 -10.29643
 Alpha  occ. eigenvalues --  -10.29219 -10.29078 -10.28916 -10.28897 -10.28642
 Alpha  occ. eigenvalues --  -10.28404 -10.28193 -10.28170 -10.28156 -10.28140
 Alpha  occ. eigenvalues --  -10.28067 -10.28017 -10.27990 -10.27977 -10.27964
 Alpha  occ. eigenvalues --  -10.27795 -10.27648 -10.27591 -10.27560 -10.27552
 Alpha  occ. eigenvalues --  -10.27506 -10.27250 -10.27244 -10.27214 -10.27113
 Alpha  occ. eigenvalues --  -10.27070 -10.27067 -10.26963 -10.26867 -10.26844
 Alpha  occ. eigenvalues --  -10.26786 -10.26320 -10.26220 -10.26199 -10.26057
 Alpha  occ. eigenvalues --  -10.26055 -10.25775 -10.25674 -10.25631 -10.25606
 Alpha  occ. eigenvalues --  -10.25507 -10.25346 -10.25321 -10.25273 -10.25189
 Alpha  occ. eigenvalues --  -10.25166  -3.16507  -3.16333  -1.91424  -1.91239
 Alpha  occ. eigenvalues --   -1.90964  -1.90809  -1.90762  -1.90672  -1.17746
 Alpha  occ. eigenvalues --   -1.15901  -1.10656  -1.10419  -1.09449  -1.07707
 Alpha  occ. eigenvalues --   -1.07473  -1.06788  -1.05247  -1.04862  -1.04058
 Alpha  occ. eigenvalues --   -1.03765  -1.03253  -1.02964  -1.02289  -1.01584
 Alpha  occ. eigenvalues --   -0.93676  -0.92403  -0.89820  -0.89316  -0.89032
 Alpha  occ. eigenvalues --   -0.88880  -0.88610  -0.88288  -0.87868  -0.87517
 Alpha  occ. eigenvalues --   -0.87411  -0.86836  -0.86657  -0.86522  -0.84604
 Alpha  occ. eigenvalues --   -0.84479  -0.84056  -0.83655  -0.82746  -0.82509
 Alpha  occ. eigenvalues --   -0.82277  -0.81852  -0.81372  -0.81295  -0.80719
 Alpha  occ. eigenvalues --   -0.80671  -0.78658  -0.78471  -0.77941  -0.77748
 Alpha  occ. eigenvalues --   -0.77597  -0.77308  -0.76831  -0.75890  -0.75391
 Alpha  occ. eigenvalues --   -0.75073  -0.73113  -0.72704  -0.72044  -0.71800
 Alpha  occ. eigenvalues --   -0.69397  -0.69323  -0.68880  -0.68781  -0.68470
 Alpha  occ. eigenvalues --   -0.68167  -0.66902  -0.66753  -0.66075  -0.65578
 Alpha  occ. eigenvalues --   -0.65510  -0.65348  -0.64992  -0.64704  -0.64338
 Alpha  occ. eigenvalues --   -0.64155  -0.62674  -0.61451  -0.60493  -0.60451
 Alpha  occ. eigenvalues --   -0.60196  -0.59760  -0.59225  -0.58886  -0.58801
 Alpha  occ. eigenvalues --   -0.58579  -0.58290  -0.57938  -0.57879  -0.57287
 Alpha  occ. eigenvalues --   -0.56403  -0.56247  -0.55883  -0.55619  -0.55455
 Alpha  occ. eigenvalues --   -0.55443  -0.55151  -0.54777  -0.54559  -0.54121
 Alpha  occ. eigenvalues --   -0.53846  -0.53757  -0.53266  -0.53166  -0.53075
 Alpha  occ. eigenvalues --   -0.52867  -0.52673  -0.52557  -0.52492  -0.52342
 Alpha  occ. eigenvalues --   -0.52252  -0.52173  -0.52021  -0.51517  -0.51369
 Alpha  occ. eigenvalues --   -0.51334  -0.51004  -0.50797  -0.50537  -0.50334
 Alpha  occ. eigenvalues --   -0.50274  -0.50234  -0.50015  -0.49851  -0.49809
 Alpha  occ. eigenvalues --   -0.49470  -0.49400  -0.49233  -0.49147  -0.49073
 Alpha  occ. eigenvalues --   -0.48959  -0.48642  -0.48530  -0.48441  -0.48109
 Alpha  occ. eigenvalues --   -0.48024  -0.47847  -0.47592  -0.47537  -0.47396
 Alpha  occ. eigenvalues --   -0.47285  -0.47085  -0.46993  -0.46819  -0.46701
 Alpha  occ. eigenvalues --   -0.46523  -0.46493  -0.46449  -0.46269  -0.46136
 Alpha  occ. eigenvalues --   -0.45906  -0.45441  -0.45201  -0.45057  -0.45052
 Alpha  occ. eigenvalues --   -0.44863  -0.44785  -0.44665  -0.44353  -0.44279
 Alpha  occ. eigenvalues --   -0.44176  -0.44128  -0.43892  -0.43766  -0.43632
 Alpha  occ. eigenvalues --   -0.43485  -0.43362  -0.42991  -0.42796  -0.42681
 Alpha  occ. eigenvalues --   -0.42669  -0.42498  -0.42412  -0.42056  -0.41778
 Alpha  occ. eigenvalues --   -0.41692  -0.41644  -0.41528  -0.41330  -0.41126
 Alpha  occ. eigenvalues --   -0.40949  -0.40895  -0.40702  -0.40617  -0.40529
 Alpha  occ. eigenvalues --   -0.40439  -0.40118  -0.40097  -0.39524  -0.39190
 Alpha  occ. eigenvalues --   -0.38755  -0.38538  -0.38168  -0.37852  -0.37814
 Alpha  occ. eigenvalues --   -0.37441  -0.37286  -0.37189  -0.36944  -0.36829
 Alpha  occ. eigenvalues --   -0.36272  -0.36110  -0.34825  -0.34453  -0.34031
 Alpha  occ. eigenvalues --   -0.33954  -0.33667  -0.33000  -0.31785  -0.31045
 Alpha  occ. eigenvalues --   -0.30955  -0.30902  -0.30779  -0.30170  -0.30131
 Alpha  occ. eigenvalues --   -0.29783  -0.29550  -0.28993  -0.24501  -0.24179
 Alpha  occ. eigenvalues --   -0.21284  -0.21059
 Alpha virt. eigenvalues --   -0.09186  -0.08714  -0.01943  -0.01826  -0.00040
 Alpha virt. eigenvalues --    0.00706   0.01927   0.02841   0.03000   0.03386
 Alpha virt. eigenvalues --    0.04446   0.04599   0.05042   0.05314   0.05525

 Mulliken charges:
               1
     1  Mg   0.770600
     2  C    0.043398
     3  C   -0.088318
     4  C   -0.041211
     5  C   -0.133147
     6  N   -0.303560
     7  C   -0.066433
     8  C    0.005810
     9  C   -0.074957
    10  C    0.021835
    11  C    0.055828
    12  C    0.044563
    13  C   -0.036802
    14  H    0.028507
    15  N   -0.308652
    16  C    0.157789
    17  C   -0.137213
    18  C   -0.025557
    19  C    0.074556
    20  C    0.111717
    21  C    0.009101
    22  O   -0.242819
    23  C    0.040402
    24  N   -0.325457
    25  C    0.045567
    26  C   -0.045663
    27  C    0.025226
    28  C    0.089431
    29  C    0.053957
    30  C    0.036941
    31  C   -0.008165
    32  N   -0.439975
    33  C    0.176667
    34  C   -0.176110
    35  C   -0.013860
    36  C    0.101625
    37  C    0.116985
    38  C    0.070905
    39  O   -0.144667
    40  C   -0.038479
    41  C    0.155440
    42  O   -0.201530
    43  O   -0.328090
    44  C    0.183357
    45  H   -0.025702
    46  H   -0.007113
    47  H   -0.041732
    48  H    0.000620
    49  H    0.012316
    50  H    0.017824
    51  H    0.032481
    52  H    0.017711
    53  H    0.014529
    54  H    0.018149
    55  H    0.021704
    56  H    0.038251
    57  H    0.050048
    58  H    0.015576
    59  H    0.011874
    60  H    0.045741
    61  H    0.033089
    62  H    0.029016
    63  H    0.029074
    64  H    0.013027
    65  H    0.051268
    66  H    0.013529
    67  H    0.017050
    68  H    0.008927
    69  H    0.002901
    70  H    0.020868
    71  H    0.002743
    72  H    0.016501
    73  H    0.004508
    74  H    0.037202
    75  H    0.045228
    76  H    0.039231
    77  H    0.052980
    78  H    0.038612
    79  H    0.023385
    80  Mg   0.826260
    81  C    0.048236
    82  C   -0.083071
    83  C   -0.065442
    84  C   -0.103570
    85  N   -0.256143
    86  C   -0.053159
    87  C   -0.000234
    88  C   -0.104043
    89  C    0.034023
    90  C    0.097739
    91  C    0.042692
    92  C   -0.062138
    93  H    0.013071
    94  N   -0.404610
    95  C    0.144933
    96  C   -0.154991
    97  C   -0.010621
    98  C    0.102094
    99  C    0.114668
   100  C    0.033490
   101  O   -0.199050
   102  C    0.028703
   103  N   -0.343639
   104  C    0.041393
   105  C   -0.041213
   106  C   -0.001960
   107  C    0.022126
   108  C    0.093938
   109  C    0.044019
   110  C   -0.014113
   111  N   -0.286674
   112  C    0.152107
   113  C   -0.161695
   114  C   -0.026827
   115  C    0.073229
   116  C    0.149381
   117  C    0.065121
   118  O   -0.155516
   119  C   -0.074556
   120  C    0.174424
   121  O   -0.225227
   122  O   -0.340515
   123  C    0.173073
   124  H   -0.040480
   125  H    0.003462
   126  H   -0.024425
   127  H    0.008294
   128  H   -0.001080
   129  H    0.015386
   130  H    0.021731
   131  H    0.014441
   132  H    0.010286
   133  H    0.039269
   134  H    0.022095
   135  H    0.036798
   136  H    0.010981
   137  H    0.032684
   138  H    0.035456
   139  H    0.071319
   140  H    0.062635
   141  H    0.032495
   142  H    0.010969
   143  H    0.007525
   144  H    0.018905
   145  H    0.026987
   146  H    0.006118
   147  H    0.012042
   148  H    0.010761
   149  H    0.018125
   150  H    0.023296
   151  H   -0.001850
   152  H    0.012124
   153  H    0.047439
   154  H    0.021405
   155  H    0.037345
   156  H    0.044799
   157  H    0.064639
   158  H    0.041352
 Sum of Mulliken charges =  -0.00000

 Dipole moment (field-independent basis, Debye):
    X=             -4.0156    Y=              1.1894    Z=              2.1269  Tot=              4.6971
 Quadrupole moment (field-independent basis, Debye-Ang):
   XX=           -567.2970   YY=           -474.1539   ZZ=           -517.0512
   XY=             11.4772   XZ=            -30.3768   YZ=             36.4703

 Normal termination of Gaussian 16 at Wed Sep 15 22:31:24 2021.
