 Gaussian 16, Revision A.03,
 Gaussian 16:  ES64L-G16RevA.03 25-Dec-2016

 -----------------------------------
 #p cam-b3lyp/Def2SVP td=(nstates=5)
 -----------------------------------

 --------------------------------
 TDDFT excited states in gaussian
 --------------------------------
 Symbolic Z-matrix:
 Charge =  0 Multiplicity = 1

                         Standard orientation:
 ---------------------------------------------------------------------
 Center     Atomic      Atomic             Coordinates (Angstroms)
 Number     Number       Type             X           Y           Z
 ---------------------------------------------------------------------
      1         12           0       -0.632366    0.021709    0.159067
      2          6           0        2.764476    0.189591    0.092891
      3          6           0       -0.529432   -3.414479    0.021577
      4          6           0       -4.015925    0.017847    0.048239
      5          6           0       -0.699868    3.538773   -0.183660
      6          7           0        0.953602   -1.440806   -0.157057
      7          6           0        2.237204   -1.141869    0.177684
      8          6           0        3.077797   -2.345156    0.440404
      9          6           0        1.989337   -3.501640    0.142369
     10          6           0        0.702683   -2.759106   -0.011593
     11          6           0        2.338513   -4.356516   -1.158897
     12          6           0        3.536791   -2.329711    1.972700
     13          6           0        4.789715   -3.128768    2.337805
     14          1           0        5.454068   -4.182857    1.417461
     15          7           0       -2.113467   -1.454997    0.150399
     16          6           0       -1.848734   -2.831888    0.069305
     17          6           0       -3.125957   -3.505987    0.037818
     18          6           0       -4.140930   -2.528357    0.075643
     19          6           0       -3.415148   -1.267475    0.143722
     20          6           0       -3.215266   -5.049948    0.032935
     21          6           0       -5.738090   -2.758086   -0.038043
     22          8           0       -6.558489   -1.850249    0.147006
     23          6           0       -6.389760   -4.097118   -0.341448
     24          7           0       -2.155844    1.622039    0.025106
     25          6           0       -3.471817    1.308201   -0.040538
     26          6           0       -4.316993    2.522709   -0.421039
     27          6           0       -3.263134    3.747615   -0.165173
     28          6           0       -1.947989    2.972423    0.011144
     29          6           0       -5.036066    2.461345   -1.845745
     30          6           0       -3.457018    4.589634    1.196069
     31          6           0       -3.482458    6.106279    1.148222
     32          7           0        0.701935    1.623949    0.035331
     33          6           0        0.560403    2.953194   -0.109210
     34          6           0        1.901463    3.614844   -0.050989
     35          6           0        2.777907    2.512415    0.086722
     36          6           0        1.980897    1.344609    0.003299
     37          6           0        2.283420    5.052604   -0.073574
     38          6           0        4.159292    2.233999    0.213629
     39          8           0        5.137763    3.007758    0.256805
     40          6           0        4.219795    0.708607    0.219535
     41          6           0        5.013430    0.269145   -0.905274
     42          8           0        4.905372    0.494488   -2.070034
     43          8           0        5.945950   -0.628308   -0.393578
     44          6           0        6.930736   -1.361324   -1.278032
     45          1           0       -0.576771   -4.489454    0.205573
     46          1           0       -5.100063    0.006040   -0.084612
     47          1           0       -0.635983    4.587302   -0.479896
     48          1           0        3.985165   -2.543854   -0.129605
     49          1           0        1.910080   -4.196136    0.978705
     50          1           0        2.090220   -5.416595   -1.112555
     51          1           0        3.372901   -4.164800   -1.443768
     52          1           0        1.723639   -3.951236   -1.963161
     53          1           0        2.740375   -2.675439    2.631999
     54          1           0        3.712112   -1.278759    2.204012
     55          1           0        4.561193   -3.608667    3.290265
     56          1           0        5.584033   -2.427975    2.591970
     57          1           0       -2.252607   -5.555317    0.109203
     58          1           0       -3.734624   -5.327146   -0.883817
     59          1           0       -3.860019   -5.333931    0.864969
     60          1           0       -6.205701   -4.695693    0.549935
     61          1           0       -5.823633   -4.682856   -1.065955
     62          1           0       -7.393855   -3.950780   -0.739016
     63          1           0       -5.103279    2.623929    0.327984
     64          1           0       -3.274232    4.451706   -0.997409
     65          1           0       -4.732854    3.295611   -2.478771
     66          1           0       -6.118015    2.455494   -1.718646
     67          1           0       -4.725696    1.571867   -2.394534
     68          1           0       -2.747418    4.285394    1.965349
     69          1           0       -4.407092    4.262274    1.617241
     70          1           0       -2.695872    6.448586    1.819784
     71          1           0       -4.452366    6.524789    1.415540
     72          1           0       -3.187962    6.446569    0.154473
     73          1           0        1.446056    5.750206   -0.071639
     74          1           0        2.868843    5.285345   -0.963453
     75          1           0        2.895999    5.257224    0.804252
     76          1           0        4.661838    0.317266    1.136269
     77          1           0        6.751905   -1.120350   -2.326135
     78          1           0        6.778273   -2.437066   -1.180951
     79          1           0        7.915734   -1.030445   -0.948903
 ---------------------------------------------------------------------

 SCF Done:  E(RCAM-B3LYP) =  -2034.90491183     A.U. after   19 cycles

 Excitation energies and oscillator strengths:

 Excited State   1:      Singlet-A      1.7389 eV  713.01 nm  f=0.3967  <S**2>=0.000
     155 ->158         0.19188
     156 ->157         0.68291
     155 <-158         0.10980
 This state for optimization and/or second-order correction.
 Total Energy, E(TD-HF/TD-DFT) =  -2034.84100935
 Copying the excited state density for this state as the 1-particle RhoCI density.

 Excited State   2:      Singlet-A      2.2287 eV  556.30 nm  f=0.1027  <S**2>=0.000
     155 ->157         0.63898
     156 ->158        -0.29490

 Excited State   3:      Singlet-A      3.4359 eV  360.85 nm  f=0.0004  <S**2>=0.000
     150 ->157         0.33697
     150 ->159        -0.24073
     150 ->160         0.10013
     151 ->157         0.20943
     151 ->159        -0.15349
     152 ->157        -0.20994
     152 ->159         0.16419
     153 ->157         0.26389
     153 ->159        -0.11415
     154 ->157         0.23268

 Excited State   4:      Singlet-A      3.5324 eV  350.99 nm  f=0.5668  <S**2>=0.000
     152 ->157         0.14394
     153 ->157         0.17067
     155 ->157         0.26103
     156 ->158         0.60278
     155 <-157        -0.10692

 Excited State   5:      Singlet-A      3.5702 eV  347.28 nm  f=0.0054  <S**2>=0.000
     150 ->157        -0.12612
     153 ->157        -0.13050
     154 ->157         0.64972

 The electronic state is 1-A.
 Alpha  occ. eigenvalues --  -46.89404 -19.23688 -19.19596 -19.19198 -19.18784
 Alpha  occ. eigenvalues --  -14.42482 -14.41675 -14.39555 -14.39395 -10.38657
 Alpha  occ. eigenvalues --  -10.36233 -10.34479 -10.31907 -10.31750 -10.30680
 Alpha  occ. eigenvalues --  -10.30649 -10.30219 -10.29998 -10.29873 -10.29750
 Alpha  occ. eigenvalues --  -10.29017 -10.28859 -10.28777 -10.28302 -10.28254
 Alpha  occ. eigenvalues --  -10.28192 -10.28191 -10.27967 -10.27963 -10.27828
 Alpha  occ. eigenvalues --  -10.27520 -10.27465 -10.27402 -10.27368 -10.26665
 Alpha  occ. eigenvalues --  -10.26440 -10.26215 -10.26173 -10.26119 -10.26070
 Alpha  occ. eigenvalues --  -10.25897 -10.25366 -10.24752  -3.17811  -1.92731
 Alpha  occ. eigenvalues --   -1.92248  -1.92123  -1.15637  -1.09518  -1.08331
 Alpha  occ. eigenvalues --   -1.07207  -1.05567  -1.04464  -1.03581  -1.02634
 Alpha  occ. eigenvalues --   -0.93498  -0.88612  -0.88266  -0.87521  -0.87069
 Alpha  occ. eigenvalues --   -0.86910  -0.86226  -0.84330  -0.83478  -0.82369
 Alpha  occ. eigenvalues --   -0.81612  -0.81193  -0.80304  -0.78416  -0.77475
 Alpha  occ. eigenvalues --   -0.77128  -0.76206  -0.75191  -0.72594  -0.71990
 Alpha  occ. eigenvalues --   -0.69262  -0.68643  -0.68229  -0.65988  -0.65342
 Alpha  occ. eigenvalues --   -0.65209  -0.64519  -0.64255  -0.61821  -0.60454
 Alpha  occ. eigenvalues --   -0.59930  -0.59187  -0.58800  -0.58477  -0.57759
 Alpha  occ. eigenvalues --   -0.56031  -0.55506  -0.55298  -0.54240  -0.53774
 Alpha  occ. eigenvalues --   -0.53048  -0.52980  -0.52764  -0.52205  -0.52142
 Alpha  occ. eigenvalues --   -0.51699  -0.51635  -0.51411  -0.50811  -0.50545
 Alpha  occ. eigenvalues --   -0.49809  -0.49707  -0.49400  -0.49130  -0.48921
 Alpha  occ. eigenvalues --   -0.48310  -0.48149  -0.47955  -0.47618  -0.47272
 Alpha  occ. eigenvalues --   -0.46932  -0.46596  -0.46462  -0.46251  -0.46173
 Alpha  occ. eigenvalues --   -0.45588  -0.45193  -0.44693  -0.44354  -0.44266
 Alpha  occ. eigenvalues --   -0.43984  -0.43902  -0.43696  -0.43145  -0.42676
 Alpha  occ. eigenvalues --   -0.42328  -0.41751  -0.41635  -0.41299  -0.41139
 Alpha  occ. eigenvalues --   -0.41056  -0.40816  -0.40211  -0.39726  -0.39412
 Alpha  occ. eigenvalues --   -0.38424  -0.37790  -0.37540  -0.36763  -0.36584
 Alpha  occ. eigenvalues --   -0.36079  -0.34495  -0.34236  -0.33159  -0.31254
 Alpha  occ. eigenvalues --   -0.31103  -0.31025  -0.30178  -0.30053  -0.23836
 Alpha  occ. eigenvalues --   -0.21135
 Alpha virt. eigenvalues --   -0.08518  -0.01705  -0.00007   0.02304   0.02790
 Alpha virt. eigenvalues --    0.04664   0.05328   0.06261   0.06807   0.07557
 Alpha virt. eigenvalues --    0.08814   0.08928   0.09389   0.09578   0.10061

 Mulliken charges:
               1
     1  Mg   0.812040
     2  C   -0.074114
     3  C   -0.059177
     4  C   -0.048936
     5  C   -0.095311
     6  N   -0.287492
     7  C   -0.007242
     8  C   -0.035661
     9  C   -0.060101
    10  C    0.073588
    11  C    0.067931
    12  C    0.021865
    13  C   -0.043615
    14  H    0.021777
    15  N   -0.352736
    16  C    0.090815
    17  C   -0.157980
    18  C   -0.044721
    19  C    0.100235
    20  C    0.108432
    21  C    0.033412
    22  O   -0.220428
    23  C    0.070307
    24  N   -0.263509
    25  C    0.011768
    26  C   -0.016203
    27  C   -0.070745
    28  C    0.089978
    29  C    0.065462
    30  C    0.016607
    31  C    0.018719
    32  N   -0.299333
    33  C    0.080627
    34  C   -0.145584
    35  C   -0.016615
    36  C    0.164978
    37  C    0.124104
    38  C    0.057599
    39  O   -0.193380
    40  C    0.017375
    41  C    0.186313
    42  O   -0.169748
    43  O   -0.386230
    44  C    0.166633
    45  H   -0.032728
    46  H   -0.011499
    47  H   -0.026906
    48  H    0.021740
    49  H    0.005733
    50  H    0.022415
    51  H    0.011909
    52  H    0.016946
    53  H    0.008723
    54  H    0.010168
    55  H    0.020054
    56  H    0.030513
    57  H    0.019246
    58  H    0.030224
    59  H    0.026462
    60  H    0.033423
    61  H    0.005443
    62  H    0.050263
    63  H    0.010954
    64  H    0.010648
    65  H    0.012003
    66  H    0.028786
    67  H    0.024164
    68  H    0.014762
    69  H   -0.003658
    70  H    0.015267
    71  H    0.026199
    72  H    0.004548
    73  H    0.001617
    74  H    0.042095
    75  H    0.040915
    76  H    0.039676
    77  H    0.049380
    78  H    0.037324
    79  H    0.051485
 Sum of Mulliken charges =  -0.00000

 Dipole moment (field-independent basis, Debye):
    X=             -1.3483    Y=             -3.5688    Z=              1.2533  Tot=              4.0156
 Quadrupole moment (field-independent basis, Debye-Ang):
   XX=           -276.9168   YY=           -227.1998   ZZ=           -257.6136
   XY=            -24.5763   XZ=              8.2427   YZ=              1.3797

 Normal termination of Gaussian 16 at Wed Sep 15 13:44:14 2021.
