 Gaussian 16, Revision A.03,
 Gaussian 16:  ES64L-G16RevA.03 25-Dec-2016

 ----------------------------------------------------------
 #p cam-b3lyp/Def2SVP td=(nstates=5) density=(transition=1)
 ----------------------------------------------------------

 --------------------------------
 TDDFT excited states in gaussian
 --------------------------------
 Symbolic Z-matrix:
 Charge =  0 Multiplicity = 1

                         Standard orientation:
 ---------------------------------------------------------------------
 Center     Atomic      Atomic             Coordinates (Angstroms)
 Number     Number       Type             X           Y           Z
 ---------------------------------------------------------------------
      1         12           0       17.002495    0.573653   -0.225875
      2          6           0       16.234264   -2.144159    1.721714
      3          6           0       14.211450    2.152908    0.987982
      4          6           0       17.700181    3.285703   -2.271887
      5          6           0       19.546279   -1.228529   -1.742998
      6          7           0       15.332148    0.056614    1.180390
      7          6           0       15.326256   -1.100096    1.906623
      8          6           0       14.202219   -1.133683    2.824874
      9          6           0       13.382423    0.107248    2.508574
     10          6           0       14.323461    0.846141    1.459644
     11          6           0       11.918406   -0.071028    1.976775
     12          6           0       14.674396   -1.217542    4.316365
     13          6           0       13.759744   -2.014095    5.309787
     14          1           0       12.252255   -2.064760    4.992697
     15          7           0       16.118046    2.504885   -0.484843
     16          6           0       14.965980    2.947265    0.142422
     17          6           0       14.669337    4.319333   -0.316830
     18          6           0       15.704103    4.675841   -1.285311
     19          6           0       16.578597    3.493315   -1.371414
     20          6           0       13.473160    5.142183    0.133057
     21          6           0       15.919874    6.014128   -1.952574
     22          8           0       16.905883    6.166504   -2.694874
     23          6           0       15.013477    7.180383   -1.820848
     24          7           0       18.367784    0.961182   -1.844615
     25          6           0       18.475245    2.146676   -2.451416
     26          6           0       19.689504    2.168374   -3.394723
     27          6           0       20.483901    0.789231   -3.066657
     28          6           0       19.430737    0.161783   -2.086900
     29          6           0       19.250706    2.332712   -4.882479
     30          6           0       21.857929    0.960219   -2.362653
     31          6           0       23.087397    0.578059   -3.200357
     32          7           0       17.738956   -1.337520   -0.129346
     33          6           0       18.782658   -1.956101   -0.821497
     34          6           0       18.943169   -3.352682   -0.359394
     35          6           0       17.931070   -3.431333    0.626147
     36          6           0       17.231199   -2.198596    0.718784
     37          6           0       19.927472   -4.332707   -0.771952
     38          6           0       17.384499   -4.306666    1.683598
     39          8           0       17.706957   -5.402167    2.059948
     40          6           0       16.235780   -3.509223    2.397886
     41          6           0       15.013452   -4.328260    2.368484
     42          8           0       14.398629   -4.498231    1.303293
     43          8           0       14.568481   -4.738371    3.587900
     44          6           0       13.260274   -5.379221    3.677683
     45          1           0       13.316474    2.628226    1.394873
     46          1           0       17.881412    4.135004   -2.934295
     47          1           0       20.435125   -1.710449   -2.155260
     48          1           0       13.610672   -2.020731    2.595732
     49          1           0       13.394542    0.813331    3.339692
     50          1           0       11.465257   -1.055602    1.856669
     51          1           0       11.852264    0.426805    1.009672
     52          1           0       11.178516    0.493842    2.544397
     53          1           0       14.884852   -0.215377    4.690020
     54          1           0       15.701738   -1.580633    4.338278
     55          1           0       13.872833   -1.618358    6.319491
     56          1           0       13.978439   -3.081414    5.324871
     57          1           0       12.907034    4.676486    0.938998
     58          1           0       12.758458    5.272490   -0.680032
     59          1           0       13.811096    6.052500    0.627935
     60          1           0       15.496363    8.003653   -2.346432
     61          1           0       14.811685    7.461128   -0.786307
     62          1           0       14.026841    6.917587   -2.202791
     63          1           0       20.348799    2.960739   -3.040100
     64          1           0       20.576379    0.142854   -3.939368
     65          1           0       19.794260    3.115355   -5.411910
     66          1           0       18.192835    2.588358   -4.948805
     67          1           0       19.390775    1.338786   -5.308104
     68          1           0       21.942844    0.388452   -1.439302
     69          1           0       22.020691    1.986886   -2.033952
     70          1           0       22.864169    0.720937   -4.257706
     71          1           0       23.290997   -0.479180   -3.033321
     72          1           0       23.925661    1.144814   -2.797234
     73          1           0       20.044191   -5.142883   -0.052506
     74          1           0       20.912928   -3.904132   -0.953376
     75          1           0       19.512367   -4.878653   -1.619268
     76          1           0       16.657965   -3.393591    3.396707
     77          1           0       13.200309   -6.347965    3.180909
     78          1           0       12.469883   -4.700036    3.358305
     79          1           0       13.042728   -5.613746    4.719570
     80         12           0      -16.860304    0.425023    0.699351
     81          6           0      -16.435015   -2.478067   -1.504468
     82          6           0      -13.424648    0.263201    1.086354
     83          6           0      -17.012274    3.449657    1.698533
     84          6           0      -20.286099    0.402471   -0.384709
     85          7           0      -15.084074   -0.955457   -0.297675
     86          6           0      -15.151284   -2.050806   -1.130713
     87          6           0      -13.694631   -2.514623   -1.499234
     88          6           0      -12.794856   -1.821490   -0.461363
     89          6           0      -13.811203   -0.781302    0.146025
     90          6           0      -12.170584   -2.695136    0.704790
     91          6           0      -13.304176   -2.239479   -2.991791
     92          6           0      -12.488852   -3.311428   -3.682431
     93          1           0      -10.958846   -3.041459   -3.833295
     94          7           0      -15.470898    1.637527    1.418166
     95          6           0      -14.138914    1.391063    1.612072
     96          6           0      -13.488981    2.582612    2.223294
     97          6           0      -14.544095    3.519585    2.375198
     98          6           0      -15.726614    2.898903    1.783300
     99          6           0      -11.994226    2.769719    2.530561
    100          6           0      -14.461638    4.986432    2.807278
    101          8           0      -13.366302    5.402534    3.174982
    102          6           0      -15.551446    5.879815    2.844369
    103          7           0      -18.414150    1.838000    0.402751
    104          6           0      -18.246829    2.960266    1.189537
    105          6           0      -19.612848    3.749465    1.211168
    106          6           0      -20.544934    2.899356    0.275240
    107          6           0      -19.727829    1.588874    0.175834
    108          6           0      -20.219862    4.006966    2.617671
    109          6           0      -20.958156    3.489987   -1.132853
    110          6           0      -22.094099    4.526769   -1.177314
    111          7           0      -18.194544   -0.763909   -0.610674
    112          6           0      -19.557574   -0.704993   -0.821988
    113          6           0      -20.037672   -1.848581   -1.559228
    114          6           0      -18.829650   -2.590879   -1.838615
    115          6           0      -17.685175   -1.900210   -1.306839
    116          6           0      -21.465324   -2.049937   -1.964496
    117          6           0      -18.345900   -3.707704   -2.519052
    118          8           0      -18.895822   -4.476499   -3.296034
    119          6           0      -16.792558   -3.634940   -2.459500
    120          6           0      -16.374270   -4.957514   -1.860663
    121          8           0      -15.495706   -5.675162   -2.345118
    122          8           0      -16.957704   -5.270032   -0.567235
    123          6           0      -16.255209   -6.356473    0.113699
    124          1           0      -12.353667    0.193318    1.285309
    125          1           0      -17.254279    4.405559    2.167715
    126          1           0      -21.360982    0.488540   -0.556465
    127          1           0      -13.589040   -3.565735   -1.226923
    128          1           0      -12.019061   -1.219823   -0.934889
    129          1           0      -11.117898   -2.792286    0.440085
    130          1           0      -12.589998   -3.700775    0.711365
    131          1           0      -12.324178   -2.312884    1.713891
    132          1           0      -12.639345   -1.387871   -3.138488
    133          1           0      -14.199997   -2.123037   -3.602128
    134          1           0      -12.981632   -3.520888   -4.631867
    135          1           0      -12.565878   -4.218570   -3.082201
    136          1           0      -11.875482    3.285221    3.483959
    137          1           0      -11.619227    3.321677    1.668769
    138          1           0      -11.496742    1.808537    2.652595
    139          1           0      -16.240201    5.538383    3.617776
    140          1           0      -16.039407    6.048068    1.884274
    141          1           0      -15.035969    6.819559    3.045466
    142          1           0      -19.553254    4.740983    0.763599
    143          1           0      -21.457449    2.599949    0.790203
    144          1           0      -21.212829    3.558398    2.584575
    145          1           0      -20.300720    5.083868    2.762144
    146          1           0      -19.511562    3.523037    3.291262
    147          1           0      -21.259638    2.606044   -1.695809
    148          1           0      -20.126999    4.028127   -1.589051
    149          1           0      -22.400315    4.532448   -0.130832
    150          1           0      -22.958652    4.142631   -1.720570
    151          1           0      -21.837496    5.531250   -1.513004
    152          1           0      -21.726432   -1.163948   -2.541751
    153          1           0      -22.162118   -2.031105   -1.126700
    154          1           0      -21.593261   -2.862754   -2.679482
    155          1           0      -16.439582   -3.598183   -3.489931
    156          1           0      -16.540522   -6.051690    1.121290
    157          1           0      -15.207032   -6.416711   -0.179134
    158          1           0      -16.815503   -7.265530   -0.105252
 ---------------------------------------------------------------------

 SCF Done:  E(RCAM-B3LYP) =  -4069.79828147     A.U. after   17 cycles

 Excitation energies and oscillator strengths:

 Excited State   1:      Singlet-A      1.7221 eV  719.96 nm  f=0.3378  <S**2>=0.000
     309 -> 315        0.19518
     311 -> 313        0.67363
     309 <- 315        0.10943
 This state for optimization and/or second-order correction.
 Total Energy, E(TD-HF/TD-DFT) =  -4069.73499572
 Copying the excited state density for this state as the 1-particle RhoCI density.

 Excited State   2:      Singlet-A      1.7300 eV  716.66 nm  f=0.4050  <S**2>=0.000
     310 -> 316        0.18704
     312 -> 314        0.67662
     310 <- 316        0.10794

 Excited State   3:      Singlet-A      2.2416 eV  553.10 nm  f=0.0698  <S**2>=0.000
     309 -> 313        0.61604
     311 -> 315       -0.33052

 Excited State   4:      Singlet-A      2.2550 eV  549.81 nm  f=0.0849  <S**2>=0.000
     310 -> 314        0.62542
     312 -> 316       -0.31652

 Excited State   5:      Singlet-A      2.9799 eV  416.07 nm  f=0.0000  <S**2>=0.000
     312 -> 313        0.70709

 The electronic state is 1-A.
 Alpha  occ. eigenvalues --  -46.90794 -46.88889 -19.25977 -19.23741 -19.20114
 Alpha  occ. eigenvalues --  -19.19303 -19.19047 -19.18827 -19.18369 -19.17897
 Alpha  occ. eigenvalues --  -14.42746 -14.42048 -14.41832 -14.41725 -14.40844
 Alpha  occ. eigenvalues --  -14.39494 -14.39248 -14.39171 -10.39563 -10.39416
 Alpha  occ. eigenvalues --  -10.34971 -10.34965 -10.34855 -10.33536 -10.32342
 Alpha  occ. eigenvalues --  -10.32322 -10.31916 -10.31619 -10.31559 -10.31398
 Alpha  occ. eigenvalues --  -10.31042 -10.30917 -10.30806 -10.30652 -10.30613
 Alpha  occ. eigenvalues --  -10.30418 -10.30109 -10.30020 -10.29923 -10.29688
 Alpha  occ. eigenvalues --  -10.29428 -10.29312 -10.29270 -10.29156 -10.28946
 Alpha  occ. eigenvalues --  -10.28944 -10.28865 -10.28697 -10.28559 -10.28433
 Alpha  occ. eigenvalues --  -10.28398 -10.28352 -10.28349 -10.28286 -10.28247
 Alpha  occ. eigenvalues --  -10.28093 -10.28005 -10.27903 -10.27770 -10.27529
 Alpha  occ. eigenvalues --  -10.27496 -10.27464 -10.27392 -10.27382 -10.27373
 Alpha  occ. eigenvalues --  -10.27223 -10.27012 -10.26991 -10.26884 -10.26878
 Alpha  occ. eigenvalues --  -10.26834 -10.26696 -10.26677 -10.26488 -10.26275
 Alpha  occ. eigenvalues --  -10.26211 -10.26107 -10.26072 -10.26070 -10.26019
 Alpha  occ. eigenvalues --  -10.26012 -10.25872 -10.25511 -10.25356 -10.25267
 Alpha  occ. eigenvalues --  -10.25254  -3.19205  -3.17312  -1.94050  -1.93712
 Alpha  occ. eigenvalues --   -1.93470  -1.92233  -1.91751  -1.91619  -1.16442
 Alpha  occ. eigenvalues --   -1.13972  -1.10950  -1.10496  -1.09011  -1.08923
 Alpha  occ. eigenvalues --   -1.07129  -1.06374  -1.05124  -1.05065  -1.04054
 Alpha  occ. eigenvalues --   -1.03400  -1.03378  -1.03375  -1.01116  -1.00960
 Alpha  occ. eigenvalues --   -0.92919  -0.92490  -0.89131  -0.89038  -0.88976
 Alpha  occ. eigenvalues --   -0.88542  -0.88282  -0.87710  -0.87196  -0.87028
 Alpha  occ. eigenvalues --   -0.86964  -0.86736  -0.86261  -0.85964  -0.85056
 Alpha  occ. eigenvalues --   -0.83949  -0.83905  -0.83730  -0.83568  -0.82566
 Alpha  occ. eigenvalues --   -0.82329  -0.81876  -0.81219  -0.81187  -0.80553
 Alpha  occ. eigenvalues --   -0.79913  -0.78439  -0.78293  -0.77559  -0.77392
 Alpha  occ. eigenvalues --   -0.77311  -0.77077  -0.76239  -0.75862  -0.75308
 Alpha  occ. eigenvalues --   -0.74893  -0.72874  -0.72599  -0.71959  -0.71510
 Alpha  occ. eigenvalues --   -0.69245  -0.69177  -0.68634  -0.68357  -0.68032
 Alpha  occ. eigenvalues --   -0.67750  -0.67049  -0.66922  -0.65840  -0.65605
 Alpha  occ. eigenvalues --   -0.65447  -0.65412  -0.65085  -0.65030  -0.64330
 Alpha  occ. eigenvalues --   -0.64062  -0.62728  -0.61936  -0.60422  -0.59853
 Alpha  occ. eigenvalues --   -0.59848  -0.59590  -0.59306  -0.59222  -0.58957
 Alpha  occ. eigenvalues --   -0.58753  -0.58226  -0.57290  -0.57200  -0.57037
 Alpha  occ. eigenvalues --   -0.56796  -0.56054  -0.55969  -0.55643  -0.55344
 Alpha  occ. eigenvalues --   -0.54820  -0.54724  -0.54372  -0.53978  -0.53976
 Alpha  occ. eigenvalues --   -0.53819  -0.53586  -0.53448  -0.53333  -0.52929
 Alpha  occ. eigenvalues --   -0.52924  -0.52786  -0.52521  -0.52416  -0.52218
 Alpha  occ. eigenvalues --   -0.52025  -0.51776  -0.51662  -0.51505  -0.51478
 Alpha  occ. eigenvalues --   -0.51281  -0.51171  -0.51057  -0.50656  -0.50208
 Alpha  occ. eigenvalues --   -0.49962  -0.49926  -0.49896  -0.49845  -0.49559
 Alpha  occ. eigenvalues --   -0.49370  -0.49158  -0.48994  -0.48990  -0.48677
 Alpha  occ. eigenvalues --   -0.48540  -0.48476  -0.48427  -0.48195  -0.48115
 Alpha  occ. eigenvalues --   -0.47998  -0.47950  -0.47772  -0.47472  -0.47315
 Alpha  occ. eigenvalues --   -0.47199  -0.47107  -0.46770  -0.46699  -0.46563
 Alpha  occ. eigenvalues --   -0.46287  -0.46179  -0.45940  -0.45870  -0.45707
 Alpha  occ. eigenvalues --   -0.45514  -0.45403  -0.45201  -0.45007  -0.44920
 Alpha  occ. eigenvalues --   -0.44722  -0.44530  -0.44507  -0.44366  -0.44327
 Alpha  occ. eigenvalues --   -0.44152  -0.43838  -0.43804  -0.43628  -0.43600
 Alpha  occ. eigenvalues --   -0.43490  -0.43225  -0.43165  -0.43011  -0.42621
 Alpha  occ. eigenvalues --   -0.42600  -0.42488  -0.42342  -0.42145  -0.42100
 Alpha  occ. eigenvalues --   -0.41967  -0.41844  -0.41525  -0.41487  -0.41384
 Alpha  occ. eigenvalues --   -0.41156  -0.40911  -0.40688  -0.40335  -0.40301
 Alpha  occ. eigenvalues --   -0.40247  -0.39995  -0.39993  -0.39537  -0.39343
 Alpha  occ. eigenvalues --   -0.38893  -0.38187  -0.37897  -0.37558  -0.37476
 Alpha  occ. eigenvalues --   -0.37222  -0.37200  -0.36716  -0.36624  -0.36370
 Alpha  occ. eigenvalues --   -0.36025  -0.35395  -0.34512  -0.34040  -0.33972
 Alpha  occ. eigenvalues --   -0.33894  -0.33230  -0.33115  -0.31789  -0.31435
 Alpha  occ. eigenvalues --   -0.31134  -0.31076  -0.30895  -0.30696  -0.30187
 Alpha  occ. eigenvalues --   -0.30064  -0.29506  -0.28774  -0.24503  -0.23883
 Alpha  occ. eigenvalues --   -0.21491  -0.20804
 Alpha virt. eigenvalues --   -0.08823  -0.08291  -0.02735  -0.01722  -0.00399
 Alpha virt. eigenvalues --    0.00544   0.00550   0.02134   0.02545   0.03091
 Alpha virt. eigenvalues --    0.04346   0.04465   0.04790   0.05231   0.05450

 Mulliken charges:
               1
     1  Mg  11.999998
     2  C    5.995895
     3  C    6.001006
     4  C    6.004876
     5  C    5.999736
     6  N    6.998496
     7  C    6.004697
     8  C    5.998144
     9  C    6.000578
    10  C    5.996219
    11  C    6.000202
    12  C    5.999423
    13  C    5.999952
    14  H    1.000749
    15  N    7.001468
    16  C    5.994735
    17  C    5.996511
    18  C    5.998421
    19  C    5.994314
    20  C    6.000674
    21  C    5.998621
    22  O    7.996273
    23  C    6.000536
    24  N    7.001973
    25  C    5.994644
    26  C    6.001388
    27  C    5.998522
    28  C    6.003944
    29  C    6.000435
    30  C    5.998956
    31  C    6.000112
    32  N    6.998907
    33  C    6.005128
    34  C    6.003916
    35  C    6.000078
    36  C    6.004991
    37  C    5.999297
    38  C    6.002230
    39  O    8.003724
    40  C    6.000665
    41  C    6.000262
    42  O    8.000405
    43  O    8.000188
    44  C    5.999642
    45  H    0.998107
    46  H    0.999875
    47  H    1.002091
    48  H    1.000154
    49  H    0.999941
    50  H    0.998220
    51  H    1.000535
    52  H    0.999334
    53  H    1.001312
    54  H    0.999303
    55  H    1.000288
    56  H    0.999507
    57  H    0.997487
    58  H    0.997134
    59  H    0.997365
    60  H    0.998172
    61  H    0.999186
    62  H    0.999052
    63  H    1.000197
    64  H    1.000348
    65  H    0.999953
    66  H    1.000834
    67  H    0.998653
    68  H    0.999600
    69  H    1.001789
    70  H    1.000820
    71  H    0.999612
    72  H    1.000789
    73  H    1.002224
    74  H    1.002303
    75  H    1.002895
    76  H    1.000646
    77  H    1.000185
    78  H    1.000683
    79  H    1.000479
    80  Mg  11.997025
    81  C    6.019310
    82  C    5.992533
    83  C    5.964665
    84  C    6.019254
    85  N    7.008649
    86  C    5.970780
    87  C    6.005523
    88  C    5.995238
    89  C    6.029969
    90  C    5.992036
    91  C    6.001930
    92  C    6.001344
    93  H    0.991140
    94  N    6.987541
    95  C    6.042185
    96  C    6.024920
    97  C    6.002729
    98  C    6.045499
    99  C    5.997690
   100  C    6.012378
   101  O    8.016898
   102  C    5.995564
   103  N    6.999374
   104  C    6.041774
   105  C    5.988598
   106  C    6.005711
   107  C    5.964859
   108  C    5.999493
   109  C    6.003287
   110  C    5.999061
   111  N    7.006399
   112  C    5.964891
   113  C    5.963205
   114  C    6.006749
   115  C    5.955271
   116  C    6.002390
   117  C    5.983612
   118  O    7.970588
   119  C    6.001451
   120  C    5.996179
   121  O    7.990626
   122  O    8.003664
   123  C    6.001901
   124  H    1.011926
   125  H    1.005702
   126  H    0.992165
   127  H    1.000728
   128  H    1.000462
   129  H    1.006475
   130  H    1.014417
   131  H    0.997132
   132  H    0.990681
   133  H    1.007558
   134  H    1.002665
   135  H    1.000838
   136  H    1.015621
   137  H    1.018144
   138  H    1.016510
   139  H    1.008216
   140  H    1.010480
   141  H    1.011197
   142  H    1.004684
   143  H    1.002715
   144  H    1.011292
   145  H    1.000960
   146  H    0.996781
   147  H    1.007053
   148  H    0.990348
   149  H    0.995218
   150  H    1.001206
   151  H    0.994339
   152  H    0.978640
   153  H    0.978160
   154  H    0.984978
   155  H    0.992245
   156  H    0.995474
   157  H    0.993319
   158  H    0.997787
 Sum of Mulliken charges = 624.00000

 Dipole moment (field-independent basis, Debye):
    X=              7.4720    Y=              4.7822    Z=              4.9756  Tot=             10.1714
 Quadrupole moment (field-independent basis, Debye-Ang):
   XX=           -202.8503   YY=              1.5109   ZZ=              1.6066
   XY=           -118.8340   XZ=            -80.1031   YZ=              3.3135

 Normal termination of Gaussian 16 at Wed Sep 22 22:38:44 2021.
