 Gaussian 16, Revision A.03,
 Gaussian 16:  ES64L-G16RevA.03 25-Dec-2016

 -----------------------------------
 #p cam-b3lyp/Def2SVP td=(nstates=5)
 -----------------------------------

 --------------------------------
 TDDFT excited states in gaussian
 --------------------------------
 Symbolic Z-matrix:
 Charge =  0 Multiplicity = 1

                         Standard orientation:
 ---------------------------------------------------------------------
 Center     Atomic      Atomic             Coordinates (Angstroms)
 Number     Number       Type             X           Y           Z
 ---------------------------------------------------------------------
      1         12           0      -25.035121   -0.742550   -0.287105
      2          6           0      -25.897862    1.994837    1.761446
      3          6           0      -24.010003    1.485962   -2.694236
      4          6           0      -24.260528   -3.293435   -2.330023
      5          6           0      -26.612737   -2.935155    1.937035
      6          7           0      -24.876135    1.438191   -0.306461
      7          6           0      -25.236443    2.391128    0.548453
      8          6           0      -24.951611    3.845716    0.119951
      9          6           0      -24.629308    3.532839   -1.420971
     10          6           0      -24.541421    2.028009   -1.494559
     11          6           0      -25.656641    4.083065   -2.380228
     12          6           0      -23.701743    4.541106    0.897016
     13          6           0      -23.811040    6.067149    0.965541
     14          1           0      -23.881417    6.633842    2.406991
     15          7           0      -24.077965   -0.920359   -2.212245
     16          6           0      -23.781604    0.173910   -3.062148
     17          6           0      -22.974882   -0.346453   -4.142958
     18          6           0      -23.007498   -1.735224   -4.054376
     19          6           0      -23.785926   -2.066511   -2.819835
     20          6           0      -22.430179    0.502445   -5.276145
     21          6           0      -22.370892   -2.810056   -4.905392
     22          8           0      -22.472093   -3.958445   -4.585567
     23          6           0      -21.543936   -2.485200   -6.109199
     24          7           0      -25.546142   -2.782753   -0.325974
     25          6           0      -25.042431   -3.658960   -1.242630
     26          6           0      -25.485512   -5.075388   -0.782016
     27          6           0      -25.678412   -4.988949    0.721395
     28          6           0      -25.999131   -3.480171    0.837584
     29          6           0      -26.817255   -5.428332   -1.442873
     30          6           0      -24.512497   -5.434367    1.524049
     31          6           0      -23.135303   -4.942868    1.152767
     32          7           0      -26.030444   -0.577608    1.508684
     33          6           0      -26.632999   -1.529587    2.309399
     34          6           0      -27.189535   -0.865308    3.498144
     35          6           0      -26.894040    0.497344    3.319434
     36          6           0      -26.212974    0.613758    2.138513
     37          6           0      -27.935129   -1.507625    4.586934
     38          6           0      -26.892661    1.794415    3.941128
     39          8           0      -27.306940    2.168920    5.077389
     40          6           0      -26.195027    2.810253    2.918177
     41          6           0      -27.231847    3.849394    2.578305
     42          8           0      -28.351830    3.571564    2.266616
     43          8           0      -26.777488    5.195983    2.591796
     44          6           0      -27.697378    6.182835    1.948564
     45          1           0      -23.727794    2.176583   -3.490913
     46          1           0      -24.118043   -4.138492   -3.007339
     47          1           0      -26.963710   -3.572765    2.751441
     48          1           0      -25.818790    4.473170    0.329618
     49          1           0      -23.665066    4.014790   -1.587062
     50          1           0      -25.251326    5.025305   -2.748661
     51          1           0      -26.652515    4.150747   -1.941817
     52          1           0      -25.591667    3.416411   -3.240080
     53          1           0      -22.769273    4.303663    0.384003
     54          1           0      -23.590933    4.122084    1.897341
     55          1           0      -24.705373    6.245697    0.368200
     56          1           0      -23.015686    6.561373    0.407966
     57          1           0      -22.454355    1.518226   -4.883373
     58          1           0      -23.209445    0.419546   -6.033219
     59          1           0      -21.411090    0.228351   -5.549727
     60          1           0      -20.663379   -2.076437   -5.613288
     61          1           0      -21.968743   -1.721266   -6.759824
     62          1           0      -21.324557   -3.391652   -6.674439
     63          1           0      -24.812069   -5.886038   -1.058103
     64          1           0      -26.487448   -5.597792    1.123602
     65          1           0      -27.742198   -5.352503   -0.871088
     66          1           0      -26.735703   -6.452147   -1.807763
     67          1           0      -26.927716   -4.801612   -2.328547
     68          1           0      -24.466212   -6.520555    1.605992
     69          1           0      -24.730595   -5.064094    2.525590
     70          1           0      -22.830840   -4.282531    1.965284
     71          1           0      -22.915281   -4.394339    0.236422
     72          1           0      -22.454420   -5.793300    1.184608
     73          1           0      -28.905702   -1.814363    4.197206
     74          1           0      -27.973275   -0.740649    5.360411
     75          1           0      -27.444848   -2.422870    4.921389
     76          1           0      -25.312177    3.166600    3.449247
     77          1           0      -28.524323    6.420529    2.617642
     78          1           0      -28.103120    5.835480    0.997303
     79          1           0      -27.279783    7.171265    1.759085
     80         12           0       24.977105   -0.669667    0.303622
     81          6           0       24.906159    2.278546   -1.475402
     82          6           0       24.845803    1.260236    3.308038
     83          6           0       25.402508   -3.400082    2.071824
     84          6           0       25.273311   -2.496384   -2.652542
     85          7           0       24.880304    1.519333    0.764604
     86          6           0       24.828057    2.523697   -0.115226
     87          6           0       24.633754    3.866793    0.661312
     88          6           0       24.760970    3.471333    2.203608
     89          6           0       24.893178    1.939700    2.098520
     90          6           0       26.000492    3.946675    2.936941
     91          6           0       23.359137    4.643304    0.297946
     92          6           0       23.669322    6.092683   -0.036390
     93          1           0       22.617847    7.194211    0.161479
     94          7           0       25.024360   -1.009654    2.402326
     95          6           0       24.909054   -0.144366    3.451864
     96          6           0       24.924453   -0.798537    4.683421
     97          6           0       25.211288   -2.177243    4.389774
     98          6           0       25.211240   -2.259571    2.888182
     99          6           0       24.736843   -0.101165    6.022954
    100          6           0       25.502962   -3.319023    5.349781
    101          8           0       25.896687   -4.403771    4.878981
    102          6           0       25.448965   -3.143302    6.812502
    103          7           0       25.252745   -2.610066   -0.239419
    104          6           0       25.350125   -3.636102    0.677939
    105          6           0       25.566048   -5.061295    0.046117
    106          6           0       25.231247   -4.721711   -1.468899
    107          6           0       25.271820   -3.182600   -1.472179
    108          6           0       26.941668   -5.825700    0.183171
    109          6           0       23.969930   -5.425871   -2.147566
    110          6           0       22.628571   -4.847864   -1.781001
    111          7           0       25.210093   -0.271326   -1.633133
    112          6           0       25.323580   -1.069672   -2.755364
    113          6           0       25.395558   -0.317456   -3.940678
    114          6           0       25.196873    0.985441   -3.469522
    115          6           0       25.081340    0.988047   -2.048841
    116          6           0       25.485334   -0.946951   -5.265301
    117          6           0       25.201073    2.308330   -3.963889
    118          8           0       25.423780    2.680928   -5.117578
    119          6           0       24.980114    3.270356   -2.683007
    120          6           0       26.087259    4.206220   -2.595792
    121          8           0       27.213874    3.965090   -2.226752
    122          8           0       25.735669    5.385507   -3.093266
    123          6           0       26.725120    6.413375   -3.212782
    124          1           0       24.857511    1.860272    4.219861
    125          1           0       25.555584   -4.383639    2.520147
    126          1           0       25.369512   -3.106174   -3.553348
    127          1           0       25.539072    4.392174    0.358888
    128          1           0       23.930370    3.977437    2.696877
    129          1           0       26.642890    4.611094    2.358260
    130          1           0       26.635967    3.098481    3.190158
    131          1           0       25.723064    4.337840    3.916245
    132          1           0       22.573592    4.618310    1.053393
    133          1           0       22.908996    4.149818   -0.563096
    134          1           0       23.832553    6.119542   -1.114374
    135          1           0       24.555559    6.349432    0.543618
    136          1           0       24.378622    0.920801    5.898574
    137          1           0       25.714214    0.032713    6.487074
    138          1           0       24.152796   -0.715547    6.707155
    139          1           0       26.035574   -3.911724    7.317271
    140          1           0       24.411783   -3.299664    7.110609
    141          1           0       25.826681   -2.159651    7.090491
    142          1           0       24.765846   -5.754985    0.306096
    143          1           0       26.024133   -5.128511   -2.095312
    144          1           0       27.609226   -5.200686    0.775005
    145          1           0       27.451939   -5.805195   -0.780616
    146          1           0       26.931527   -6.845137    0.569933
    147          1           0       23.953923   -6.444545   -1.760850
    148          1           0       24.049790   -5.534497   -3.228524
    149          1           0       21.980346   -4.986055   -2.645634
    150          1           0       22.536243   -3.823403   -1.422550
    151          1           0       22.266271   -5.430316   -0.933880
    152          1           0       25.021678   -1.921797   -5.414148
    153          1           0       26.463842   -0.919735   -5.743243
    154          1           0       24.937485   -0.224677   -5.869981
    155          1           0       24.049855    3.816940   -2.836606
    156          1           0       26.795420    7.027993   -2.314611
    157          1           0       26.392469    7.078894   -4.009142
    158          1           0       27.701281    5.967285   -3.403686
 ---------------------------------------------------------------------

 SCF Done:  E(RCAM-B3LYP) =  -4069.82006919     A.U. after   18 cycles

 Excitation energies and oscillator strengths:

 Excited State   1:      Singlet-A      1.6958 eV  731.13 nm  f=0.3542  <S**2>=0.000
     309 -> 315       -0.17406
     312 -> 314        0.68751
     309 <- 315       -0.10607
 This state for optimization and/or second-order correction.
 Total Energy, E(TD-HF/TD-DFT) =  -4069.75774991
 Copying the excited state density for this state as the 1-particle RhoCI density.

 Excited State   2:      Singlet-A      1.7068 eV  726.42 nm  f=0.4310  <S**2>=0.000
     310 -> 316        0.17259
     311 -> 313        0.68657
     310 <- 316        0.10534

 Excited State   3:      Singlet-A      2.1842 eV  567.65 nm  f=0.1179  <S**2>=0.000
     309 -> 314        0.64719
     312 -> 315        0.27033

 Excited State   4:      Singlet-A      2.2215 eV  558.10 nm  f=0.1601  <S**2>=0.000
     310 -> 313        0.65327
     311 -> 316       -0.25408

 Excited State   5:      Singlet-A      3.1589 eV  392.49 nm  f=0.0000  <S**2>=0.000
     312 -> 313        0.70711

 The electronic state is 1-A.
 Alpha  occ. eigenvalues --  -46.88640 -46.87705 -19.24847 -19.24515 -19.20060
 Alpha  occ. eigenvalues --  -19.19099 -19.18644 -19.18611 -19.18260 -19.18258
 Alpha  occ. eigenvalues --  -14.43432 -14.42318 -14.42185 -14.41357 -14.39733
 Alpha  occ. eigenvalues --  -14.39724 -14.39073 -14.38982 -10.39414 -10.38321
 Alpha  occ. eigenvalues --  -10.35204 -10.34887 -10.34758 -10.34530 -10.31867
 Alpha  occ. eigenvalues --  -10.31699 -10.31521 -10.31289 -10.31238 -10.31205
 Alpha  occ. eigenvalues --  -10.31177 -10.31137 -10.30965 -10.30757 -10.30625
 Alpha  occ. eigenvalues --  -10.30536 -10.30174 -10.29454 -10.29406 -10.29403
 Alpha  occ. eigenvalues --  -10.29072 -10.29007 -10.28873 -10.28822 -10.28573
 Alpha  occ. eigenvalues --  -10.28544 -10.28404 -10.28384 -10.28327 -10.28301
 Alpha  occ. eigenvalues --  -10.28294 -10.28287 -10.28260 -10.28217 -10.28145
 Alpha  occ. eigenvalues --  -10.27981 -10.27718 -10.27681 -10.27607 -10.27546
 Alpha  occ. eigenvalues --  -10.27517 -10.27314 -10.27242 -10.27209 -10.27143
 Alpha  occ. eigenvalues --  -10.27136 -10.26819 -10.26710 -10.26668 -10.26623
 Alpha  occ. eigenvalues --  -10.26606 -10.26433 -10.26324 -10.26295 -10.26205
 Alpha  occ. eigenvalues --  -10.26184 -10.25767 -10.25637 -10.25579 -10.25414
 Alpha  occ. eigenvalues --  -10.25133 -10.25122 -10.25000 -10.24658 -10.24480
 Alpha  occ. eigenvalues --  -10.24443  -3.17135  -3.16489  -1.92057  -1.91567
 Alpha  occ. eigenvalues --   -1.91452  -1.91387  -1.90961  -1.90793  -1.17952
 Alpha  occ. eigenvalues --   -1.15630  -1.12134  -1.08873  -1.08521  -1.07816
 Alpha  occ. eigenvalues --   -1.07397  -1.06671  -1.05314  -1.04613  -1.03721
 Alpha  occ. eigenvalues --   -1.03555  -1.03351  -1.02952  -1.02566  -1.01786
 Alpha  occ. eigenvalues --   -0.92969  -0.92108  -0.90066  -0.89456  -0.89384
 Alpha  occ. eigenvalues --   -0.88850  -0.88793  -0.88365  -0.87865  -0.87670
 Alpha  occ. eigenvalues --   -0.87536  -0.86952  -0.86804  -0.86238  -0.84724
 Alpha  occ. eigenvalues --   -0.84613  -0.83884  -0.83590  -0.82971  -0.82647
 Alpha  occ. eigenvalues --   -0.82491  -0.82417  -0.81201  -0.81131  -0.80614
 Alpha  occ. eigenvalues --   -0.79940  -0.78930  -0.78359  -0.77364  -0.77352
 Alpha  occ. eigenvalues --   -0.77124  -0.76914  -0.76302  -0.76000  -0.75303
 Alpha  occ. eigenvalues --   -0.75007  -0.73470  -0.72475  -0.71472  -0.71351
 Alpha  occ. eigenvalues --   -0.69722  -0.69672  -0.68867  -0.68858  -0.67860
 Alpha  occ. eigenvalues --   -0.67815  -0.67165  -0.67141  -0.65847  -0.65413
 Alpha  occ. eigenvalues --   -0.64958  -0.64939  -0.64625  -0.64404  -0.64222
 Alpha  occ. eigenvalues --   -0.63427  -0.62363  -0.61786  -0.60446  -0.60402
 Alpha  occ. eigenvalues --   -0.60022  -0.59957  -0.59164  -0.59013  -0.59000
 Alpha  occ. eigenvalues --   -0.58627  -0.58532  -0.58370  -0.57701  -0.57612
 Alpha  occ. eigenvalues --   -0.56546  -0.56414  -0.56224  -0.55779  -0.55111
 Alpha  occ. eigenvalues --   -0.54804  -0.54692  -0.54560  -0.54380  -0.54108
 Alpha  occ. eigenvalues --   -0.53999  -0.53736  -0.53634  -0.53554  -0.53186
 Alpha  occ. eigenvalues --   -0.53062  -0.52794  -0.52524  -0.52454  -0.52372
 Alpha  occ. eigenvalues --   -0.52151  -0.51900  -0.51742  -0.51651  -0.51547
 Alpha  occ. eigenvalues --   -0.51347  -0.50859  -0.50751  -0.50318  -0.50316
 Alpha  occ. eigenvalues --   -0.50221  -0.50029  -0.49979  -0.49710  -0.49686
 Alpha  occ. eigenvalues --   -0.49604  -0.49491  -0.49278  -0.49227  -0.49162
 Alpha  occ. eigenvalues --   -0.49094  -0.48982  -0.48414  -0.48319  -0.48240
 Alpha  occ. eigenvalues --   -0.48165  -0.47793  -0.47752  -0.47668  -0.47349
 Alpha  occ. eigenvalues --   -0.47194  -0.46898  -0.46727  -0.46521  -0.46397
 Alpha  occ. eigenvalues --   -0.46374  -0.46044  -0.45896  -0.45576  -0.45559
 Alpha  occ. eigenvalues --   -0.45444  -0.45424  -0.45238  -0.45170  -0.44976
 Alpha  occ. eigenvalues --   -0.44946  -0.44608  -0.44395  -0.44338  -0.44189
 Alpha  occ. eigenvalues --   -0.43917  -0.43750  -0.43652  -0.43522  -0.43512
 Alpha  occ. eigenvalues --   -0.43260  -0.43174  -0.43125  -0.42870  -0.42697
 Alpha  occ. eigenvalues --   -0.42547  -0.42543  -0.42484  -0.42015  -0.41841
 Alpha  occ. eigenvalues --   -0.41607  -0.41577  -0.41530  -0.41339  -0.41132
 Alpha  occ. eigenvalues --   -0.41062  -0.41008  -0.40949  -0.40504  -0.40398
 Alpha  occ. eigenvalues --   -0.40291  -0.39765  -0.39542  -0.39218  -0.38904
 Alpha  occ. eigenvalues --   -0.38363  -0.38219  -0.37758  -0.37734  -0.37303
 Alpha  occ. eigenvalues --   -0.37211  -0.37148  -0.36556  -0.36449  -0.36376
 Alpha  occ. eigenvalues --   -0.36212  -0.36203  -0.34701  -0.34537  -0.34254
 Alpha  occ. eigenvalues --   -0.33902  -0.33224  -0.33152  -0.31731  -0.31467
 Alpha  occ. eigenvalues --   -0.31387  -0.30803  -0.30554  -0.30333  -0.30081
 Alpha  occ. eigenvalues --   -0.30028  -0.29787  -0.29348  -0.24162  -0.24145
 Alpha  occ. eigenvalues --   -0.21501  -0.21406
 Alpha virt. eigenvalues --   -0.09120  -0.08979  -0.01757  -0.01448   0.00418
 Alpha virt. eigenvalues --    0.00466   0.02154   0.02459   0.03143   0.03241
 Alpha virt. eigenvalues --    0.04634   0.05281   0.05600   0.05618   0.05647

 Mulliken charges:
               1
     1  Mg   0.813724
     2  C   -0.040333
     3  C   -0.100323
     4  C   -0.056118
     5  C   -0.065203
     6  N   -0.248669
     7  C   -0.044810
     8  C   -0.042252
     9  C   -0.088362
    10  C    0.097206
    11  C    0.104628
    12  C    0.047566
    13  C   -0.047321
    14  H    0.045009
    15  N   -0.365833
    16  C    0.130087
    17  C   -0.165504
    18  C   -0.010033
    19  C    0.116006
    20  C    0.118460
    21  C   -0.027543
    22  O   -0.177940
    23  C    0.053330
    24  N   -0.336423
    25  C    0.059180
    26  C   -0.036024
    27  C    0.001066
    28  C    0.092598
    29  C    0.078981
    30  C    0.053798
    31  C   -0.013966
    32  N   -0.352954
    33  C    0.068150
    34  C   -0.192111
    35  C    0.046575
    36  C    0.100689
    37  C    0.125867
    38  C    0.022987
    39  O   -0.217218
    40  C    0.037667
    41  C    0.193564
    42  O   -0.181811
    43  O   -0.372709
    44  C    0.178960
    45  H   -0.015772
    46  H   -0.006734
    47  H   -0.026810
    48  H    0.020235
    49  H    0.010231
    50  H    0.008614
    51  H    0.034981
    52  H    0.001636
    53  H    0.003168
    54  H    0.019039
    55  H    0.008197
    56  H    0.020931
    57  H    0.008447
    58  H    0.052504
    59  H    0.037123
    60  H    0.038102
    61  H    0.030894
    62  H    0.035327
    63  H   -0.003208
    64  H   -0.009952
    65  H    0.023928
    66  H    0.009696
    67  H    0.009339
    68  H    0.006472
    69  H   -0.008908
    70  H    0.008028
    71  H    0.038121
    72  H    0.006332
    73  H    0.030665
    74  H    0.042261
    75  H    0.013574
    76  H    0.046804
    77  H    0.037700
    78  H    0.032999
    79  H    0.033397
    80  Mg   0.849751
    81  C   -0.032505
    82  C   -0.104338
    83  C   -0.040417
    84  C   -0.102965
    85  N   -0.277009
    86  C   -0.073610
    87  C    0.019991
    88  C   -0.112932
    89  C    0.098357
    90  C    0.051539
    91  C    0.081298
    92  C   -0.091567
    93  H    0.011449
    94  N   -0.341469
    95  C    0.146756
    96  C   -0.163377
    97  C   -0.029794
    98  C    0.148876
    99  C    0.116773
   100  C   -0.008340
   101  O   -0.229845
   102  C    0.068402
   103  N   -0.320746
   104  C    0.008047
   105  C   -0.016768
   106  C   -0.037884
   107  C    0.071421
   108  C    0.076338
   109  C    0.018594
   110  C   -0.003772
   111  N   -0.375131
   112  C    0.118488
   113  C   -0.127457
   114  C    0.017193
   115  C    0.159546
   116  C    0.116736
   117  C    0.021779
   118  O   -0.183770
   119  C   -0.013650
   120  C    0.166808
   121  O   -0.220798
   122  O   -0.295170
   123  C    0.174908
   124  H   -0.024836
   125  H   -0.005977
   126  H   -0.029588
   127  H    0.009704
   128  H    0.016841
   129  H    0.020841
   130  H    0.019477
   131  H    0.013216
   132  H    0.015416
   133  H    0.005715
   134  H    0.041353
   135  H    0.035633
   136  H    0.018810
   137  H    0.034035
   138  H    0.033332
   139  H    0.029295
   140  H    0.043636
   141  H    0.024146
   142  H    0.010402
   143  H    0.001457
   144  H    0.018278
   145  H    0.006748
   146  H    0.034664
   147  H    0.004118
   148  H    0.008751
   149  H    0.014721
   150  H    0.027000
   151  H    0.007623
   152  H    0.024871
   153  H    0.030977
   154  H    0.021917
   155  H    0.035889
   156  H    0.024940
   157  H    0.037050
   158  H    0.049805
 Sum of Mulliken charges =  -0.00000

 Dipole moment (field-independent basis, Debye):
    X=              1.3572    Y=              0.5148    Z=             -2.2564  Tot=              2.6830
 Quadrupole moment (field-independent basis, Debye-Ang):
   XX=           -827.9339   YY=           -475.2843   ZZ=           -518.2766
   XY=            -15.7813   XZ=            242.1955   YZ=             -1.2350

 Normal termination of Gaussian 16 at Tue Sep 14 16:52:40 2021.
