 Gaussian 16, Revision A.03,
 Gaussian 16:  ES64L-G16RevA.03 25-Dec-2016

 -----------------------------------
 #p cam-b3lyp/Def2SVP td=(nstates=5)
 -----------------------------------

 --------------------------------
 TDDFT excited states in gaussian
 --------------------------------
 Symbolic Z-matrix:
 Charge =  0 Multiplicity = 1

                         Standard orientation:
 ---------------------------------------------------------------------
 Center     Atomic      Atomic             Coordinates (Angstroms)
 Number     Number       Type             X           Y           Z
 ---------------------------------------------------------------------
      1         12           0       18.072264   -0.639803    0.006077
      2          6           0       15.956251    1.958076    0.485904
      3          6           0       20.783331    1.494743    0.404291
      4          6           0       20.188434   -3.237294   -0.480061
      5          6           0       15.399470   -2.656499   -0.872646
      6          7           0       18.262002    1.399455    0.494933
      7          6           0       17.279890    2.326966    0.623642
      8          6           0       17.797422    3.645908    1.135455
      9          6           0       19.342956    3.564422    0.838484
     10          6           0       19.479467    2.026942    0.586931
     11          6           0       19.995528    4.488812   -0.272558
     12          6           0       17.550085    3.810684    2.702437
     13          6           0       17.503698    5.302879    3.145198
     14          1           0       18.250900    6.402964    2.372768
     15          7           0       20.221198   -0.873537   -0.119740
     16          6           0       21.148187    0.179326    0.097896
     17          6           0       22.481870   -0.332227   -0.001602
     18          6           0       22.342463   -1.738294   -0.281773
     19          6           0       20.855462   -1.980643   -0.282721
     20          6           0       23.715929    0.462487    0.245897
     21          6           0       23.422747   -2.792243   -0.497550
     22          8           0       23.224361   -3.990563   -0.854557
     23          6           0       24.881072   -2.415207   -0.299223
     24          7           0       17.849486   -2.628571   -0.652912
     25          6           0       18.861607   -3.587994   -0.595530
     26          6           0       18.365739   -5.060029   -0.687714
     27          6           0       16.761796   -4.778742   -0.765323
     28          6           0       16.628748   -3.300165   -0.736922
     29          6           0       18.958497   -5.710370   -1.944352
     30          6           0       15.956789   -5.495549    0.278266
     31          6           0       14.867992   -6.358363   -0.292726
     32          7           0       16.144318   -0.481696   -0.291268
     33          6           0       15.123338   -1.364415   -0.620929
     34          6           0       13.878641   -0.689459   -0.631520
     35          6           0       14.118920    0.656581   -0.245395
     36          6           0       15.495073    0.723621    0.058324
     37          6           0       12.529626   -1.222900   -0.927350
     38          6           0       13.527814    1.969814   -0.109578
     39          8           0       12.423903    2.440701   -0.302209
     40          6           0       14.748584    2.839746    0.455636
     41          6           0       14.792657    4.203389   -0.134049
     42          8           0       14.633332    4.491676   -1.292635
     43          8           0       15.000336    5.168714    0.774921
     44          6           0       15.063941    6.545783    0.207780
     45          1           0       21.549685    2.272134    0.371575
     46          1           0       20.881329   -4.031751   -0.764705
     47          1           0       14.494645   -3.248026   -1.026578
     48          1           0       17.455079    4.488743    0.535248
     49          1           0       19.878456    3.738873    1.771156
     50          1           0       19.218360    5.167258   -0.624634
     51          1           0       20.455124    4.000724   -1.130539
     52          1           0       20.818858    5.016041    0.209747
     53          1           0       18.363280    3.247848    3.161063
     54          1           0       16.596359    3.333856    2.928918
     55          1           0       17.878949    5.249962    4.167364
     56          1           0       16.448880    5.550504    3.261142
     57          1           0       23.999809    0.585307    1.291138
     58          1           0       23.540849    1.421533   -0.240011
     59          1           0       24.566997    0.129133   -0.347212
     60          1           0       25.198565   -1.954195   -1.234389
     61          1           0       25.399056   -3.365279   -0.170566
     62          1           0       25.051982   -1.714054    0.517837
     63          1           0       18.775115   -5.568959    0.185009
     64          1           0       16.396430   -5.137423   -1.728181
     65          1           0       19.484982   -5.040415   -2.624433
     66          1           0       18.188889   -6.314175   -2.424624
     67          1           0       19.744435   -6.376978   -1.588162
     68          1           0       15.421953   -4.821383    0.947388
     69          1           0       16.540411   -6.122783    0.952227
     70          1           0       14.855654   -7.364629    0.125078
     71          1           0       14.972792   -6.467815   -1.371815
     72          1           0       13.960704   -5.772023   -0.144406
     73          1           0       12.485520   -2.044339   -1.643087
     74          1           0       12.083149   -0.438218   -1.538793
     75          1           0       12.017325   -1.476572    0.000773
     76          1           0       14.370518    2.937962    1.473657
     77          1           0       14.073741    6.939030   -0.026705
     78          1           0       15.788778    6.619831   -0.603089
     79          1           0       15.465824    7.208736    0.974386
     80         12           0      -18.232559   -0.573931    0.103607
     81          6           0      -17.596948    2.781663   -0.533930
     82          6           0      -17.200570   -0.037967    3.331746
     83          6           0      -18.607177   -3.955305    0.687447
     84          6           0      -18.723171   -1.175036   -3.294709
     85          7           0      -17.581910    1.202108    1.264450
     86          6           0      -17.498511    2.478490    0.851990
     87          6           0      -17.212614    3.505768    1.972076
     88          6           0      -16.848325    2.540513    3.180149
     89          6           0      -17.186968    1.098074    2.566982
     90          6           0      -15.345833    2.763396    3.578659
     91          6           0      -18.563171    4.365055    2.181531
     92          6           0      -18.422291    5.913603    2.099362
     93          1           0      -16.959473    6.436856    2.336241
     94          7           0      -17.892065   -1.870545    1.722095
     95          6           0      -17.540570   -1.414480    3.009401
     96          6           0      -17.667375   -2.514199    3.941852
     97          6           0      -18.017177   -3.653031    3.205361
     98          6           0      -18.273701   -3.181701    1.794115
     99          6           0      -17.139762   -2.403429    5.379395
    100          6           0      -18.169507   -5.111111    3.713978
    101          8           0      -18.490381   -6.086244    3.009164
    102          6           0      -17.986704   -5.377701    5.218021
    103          7           0      -18.534960   -2.296896   -1.182833
    104          6           0      -18.712497   -3.601666   -0.629948
    105          6           0      -18.810421   -4.652387   -1.755654
    106          6           0      -19.131238   -3.709002   -3.007084
    107          6           0      -18.820294   -2.293221   -2.454557
    108          6           0      -17.532990   -5.474834   -1.794172
    109          6           0      -20.653904   -3.815835   -3.440815
    110          6           0      -21.881855   -3.630749   -2.485583
    111          7           0      -18.107829    0.502218   -1.586195
    112          6           0      -18.313940    0.145582   -2.922406
    113          6           0      -18.151390    1.301526   -3.743080
    114          6           0      -17.917895    2.351384   -2.873285
    115          6           0      -17.791857    1.819108   -1.566327
    116          6           0      -18.168749    1.366075   -5.256652
    117          6           0      -17.700881    3.742264   -2.810150
    118          8           0      -17.574967    4.493115   -3.724401
    119          6           0      -17.366465    4.051899   -1.292341
    120          6           0      -15.925119    4.479598   -1.264369
    121          8           0      -15.018950    3.784763   -0.854302
    122          8           0      -15.860826    5.706060   -1.796043
    123          6           0      -14.534480    6.056292   -2.241881
    124          1           0      -16.952147    0.137598    4.380287
    125          1           0      -18.485426   -5.029303    0.838547
    126          1           0      -18.862748   -1.348867   -4.364196
    127          1           0      -16.416022    4.217371    1.755753
    128          1           0      -17.472902    2.659036    4.065861
    129          1           0      -14.778265    1.852577    3.770859
    130          1           0      -15.502668    3.349871    4.483507
    131          1           0      -14.919396    3.430618    2.829994
    132          1           0      -19.027176    4.011958    3.102228
    133          1           0      -19.253886    4.052179    1.398126
    134          1           0      -19.098746    6.223044    2.895339
    135          1           0      -18.766742    6.358640    1.166345
    136          1           0      -16.417197   -3.208395    5.516035
    137          1           0      -17.952558   -2.605979    6.078141
    138          1           0      -16.708547   -1.415974    5.541032
    139          1           0      -16.919074   -5.292091    5.424539
    140          1           0      -18.227278   -6.431370    5.358474
    141          1           0      -18.731821   -4.816007    5.780873
    142          1           0      -19.718806   -5.211704   -1.529930
    143          1           0      -18.577955   -4.053020   -3.880197
    144          1           0      -17.045260   -5.554262   -0.822483
    145          1           0      -16.819226   -5.041735   -2.494562
    146          1           0      -17.746431   -6.507305   -2.070077
    147          1           0      -20.779855   -4.761663   -3.967831
    148          1           0      -20.762813   -2.970488   -4.120295
    149          1           0      -22.116605   -4.598202   -2.041477
    150          1           0      -22.697303   -3.295978   -3.127803
    151          1           0      -21.801605   -2.830928   -1.748719
    152          1           0      -19.117500    1.027603   -5.673467
    153          1           0      -17.377912    0.677400   -5.553281
    154          1           0      -18.123414    2.367095   -5.687898
    155          1           0      -17.921831    4.851849   -0.802368
    156          1           0      -14.519384    6.731674   -3.096972
    157          1           0      -13.756583    5.303995   -2.371597
    158          1           0      -13.969497    6.633258   -1.509437
 ---------------------------------------------------------------------

 SCF Done:  E(RCAM-B3LYP) =  -4069.81681833     A.U. after   18 cycles

 Excitation energies and oscillator strengths:

 Excited State   1:      Singlet-A      1.6462 eV  753.17 nm  f=0.3924  <S**2>=0.000
     309 -> 315       -0.17001
     311 -> 313        0.68912
     309 <- 315       -0.10749
 This state for optimization and/or second-order correction.
 Total Energy, E(TD-HF/TD-DFT) =  -4069.75632276
 Copying the excited state density for this state as the 1-particle RhoCI density.

 Excited State   2:      Singlet-A      1.7043 eV  727.46 nm  f=0.3888  <S**2>=0.000
     310 -> 316       -0.17574
     312 -> 314        0.68646
     310 <- 316       -0.10652

 Excited State   3:      Singlet-A      2.2266 eV  556.84 nm  f=0.0417  <S**2>=0.000
     309 -> 313       -0.28572
     310 -> 314        0.57800
     311 -> 315       -0.13032
     312 -> 316        0.24630

 Excited State   4:      Singlet-A      2.2271 eV  556.71 nm  f=0.1981  <S**2>=0.000
     309 -> 313        0.57068
     310 -> 314        0.28917
     311 -> 315        0.26083
     312 -> 316        0.12347

 Excited State   5:      Singlet-A      2.9997 eV  413.32 nm  f=0.0000  <S**2>=0.000
     312 -> 313        0.70709

 The electronic state is 1-A.
 Alpha  occ. eigenvalues --  -46.88036 -46.87138 -19.26104 -19.25159 -19.20018
 Alpha  occ. eigenvalues --  -19.19317 -19.19213 -19.18751 -19.18574 -19.18485
 Alpha  occ. eigenvalues --  -14.42843 -14.42201 -14.41675 -14.41392 -14.39515
 Alpha  occ. eigenvalues --  -14.39513 -14.39016 -14.38747 -10.39276 -10.38582
 Alpha  occ. eigenvalues --  -10.35214 -10.35136 -10.35082 -10.34784 -10.32036
 Alpha  occ. eigenvalues --  -10.31557 -10.31344 -10.31300 -10.30942 -10.30718
 Alpha  occ. eigenvalues --  -10.30625 -10.30471 -10.30305 -10.30114 -10.30102
 Alpha  occ. eigenvalues --  -10.29858 -10.29843 -10.29786 -10.29619 -10.29594
 Alpha  occ. eigenvalues --  -10.29337 -10.28937 -10.28843 -10.28841 -10.28733
 Alpha  occ. eigenvalues --  -10.28476 -10.28355 -10.28238 -10.28132 -10.28099
 Alpha  occ. eigenvalues --  -10.28093 -10.28023 -10.27857 -10.27849 -10.27814
 Alpha  occ. eigenvalues --  -10.27786 -10.27642 -10.27623 -10.27619 -10.27551
 Alpha  occ. eigenvalues --  -10.27524 -10.27501 -10.27464 -10.27190 -10.27025
 Alpha  occ. eigenvalues --  -10.26967 -10.26805 -10.26690 -10.26672 -10.26646
 Alpha  occ. eigenvalues --  -10.26490 -10.26210 -10.25987 -10.25826 -10.25770
 Alpha  occ. eigenvalues --  -10.25750 -10.25749 -10.25593 -10.25571 -10.25464
 Alpha  occ. eigenvalues --  -10.25373 -10.25228 -10.25217 -10.25161 -10.25107
 Alpha  occ. eigenvalues --  -10.24638  -3.16638  -3.15996  -1.91539  -1.91072
 Alpha  occ. eigenvalues --   -1.90960  -1.90887  -1.90431  -1.90341  -1.18109
 Alpha  occ. eigenvalues --   -1.17299  -1.11971  -1.10130  -1.09033  -1.08294
 Alpha  occ. eigenvalues --   -1.07398  -1.07248  -1.04515  -1.04111  -1.03560
 Alpha  occ. eigenvalues --   -1.03276  -1.02708  -1.02667  -1.01401  -1.01120
 Alpha  occ. eigenvalues --   -0.93364  -0.92755  -0.89706  -0.88800  -0.88579
 Alpha  occ. eigenvalues --   -0.88492  -0.88088  -0.87713  -0.87670  -0.87215
 Alpha  occ. eigenvalues --   -0.87035  -0.86456  -0.86405  -0.85975  -0.84322
 Alpha  occ. eigenvalues --   -0.83887  -0.83810  -0.83357  -0.82471  -0.82243
 Alpha  occ. eigenvalues --   -0.81652  -0.81153  -0.81049  -0.80867  -0.80498
 Alpha  occ. eigenvalues --   -0.79894  -0.78350  -0.77770  -0.77672  -0.77352
 Alpha  occ. eigenvalues --   -0.77066  -0.76691  -0.76522  -0.75814  -0.75209
 Alpha  occ. eigenvalues --   -0.74915  -0.72916  -0.72876  -0.71840  -0.71139
 Alpha  occ. eigenvalues --   -0.69085  -0.68850  -0.68679  -0.68602  -0.68186
 Alpha  occ. eigenvalues --   -0.67929  -0.66695  -0.66327  -0.65854  -0.65807
 Alpha  occ. eigenvalues --   -0.65348  -0.64769  -0.64504  -0.64436  -0.64072
 Alpha  occ. eigenvalues --   -0.63897  -0.62340  -0.62332  -0.60316  -0.59955
 Alpha  occ. eigenvalues --   -0.59927  -0.59358  -0.58961  -0.58916  -0.58373
 Alpha  occ. eigenvalues --   -0.58367  -0.57994  -0.57956  -0.57703  -0.57211
 Alpha  occ. eigenvalues --   -0.56219  -0.56081  -0.55638  -0.55494  -0.55179
 Alpha  occ. eigenvalues --   -0.54969  -0.54856  -0.54342  -0.53936  -0.53927
 Alpha  occ. eigenvalues --   -0.53338  -0.53324  -0.53080  -0.52992  -0.52883
 Alpha  occ. eigenvalues --   -0.52550  -0.52549  -0.52427  -0.52167  -0.52139
 Alpha  occ. eigenvalues --   -0.51969  -0.51951  -0.51811  -0.51693  -0.51303
 Alpha  occ. eigenvalues --   -0.51145  -0.50912  -0.50571  -0.50305  -0.50092
 Alpha  occ. eigenvalues --   -0.49973  -0.49860  -0.49768  -0.49604  -0.49465
 Alpha  occ. eigenvalues --   -0.49123  -0.49000  -0.48870  -0.48800  -0.48553
 Alpha  occ. eigenvalues --   -0.48380  -0.48288  -0.48219  -0.47989  -0.47905
 Alpha  occ. eigenvalues --   -0.47759  -0.47695  -0.47435  -0.47317  -0.47208
 Alpha  occ. eigenvalues --   -0.47087  -0.46702  -0.46612  -0.46594  -0.46350
 Alpha  occ. eigenvalues --   -0.46224  -0.46128  -0.45915  -0.45682  -0.45532
 Alpha  occ. eigenvalues --   -0.45189  -0.45138  -0.44903  -0.44891  -0.44766
 Alpha  occ. eigenvalues --   -0.44590  -0.44539  -0.44506  -0.44277  -0.44043
 Alpha  occ. eigenvalues --   -0.43884  -0.43707  -0.43560  -0.43505  -0.43365
 Alpha  occ. eigenvalues --   -0.43278  -0.43167  -0.43008  -0.42969  -0.42611
 Alpha  occ. eigenvalues --   -0.42403  -0.42341  -0.42338  -0.42039  -0.41940
 Alpha  occ. eigenvalues --   -0.41883  -0.41708  -0.41408  -0.41274  -0.40971
 Alpha  occ. eigenvalues --   -0.40886  -0.40765  -0.40632  -0.40488  -0.40426
 Alpha  occ. eigenvalues --   -0.40383  -0.40234  -0.40041  -0.39519  -0.39104
 Alpha  occ. eigenvalues --   -0.38244  -0.37962  -0.37636  -0.37611  -0.37416
 Alpha  occ. eigenvalues --   -0.37189  -0.37047  -0.37023  -0.37017  -0.36607
 Alpha  occ. eigenvalues --   -0.36420  -0.36071  -0.34754  -0.34588  -0.34126
 Alpha  occ. eigenvalues --   -0.34050  -0.33335  -0.32621  -0.31601  -0.31527
 Alpha  occ. eigenvalues --   -0.30916  -0.30726  -0.30704  -0.30403  -0.30225
 Alpha  occ. eigenvalues --   -0.29940  -0.29569  -0.29542  -0.24306  -0.23723
 Alpha  occ. eigenvalues --   -0.21028  -0.20933
 Alpha virt. eigenvalues --   -0.08957  -0.08505  -0.01611  -0.01297   0.00120
 Alpha virt. eigenvalues --    0.00605   0.02173   0.02525   0.02604   0.03171
 Alpha virt. eigenvalues --    0.04577   0.04772   0.05475   0.05874   0.06174

 Mulliken charges:
               1
     1  Mg   0.841719
     2  C    0.034526
     3  C   -0.092985
     4  C   -0.054380
     5  C   -0.125444
     6  N   -0.303472
     7  C   -0.052269
     8  C    0.000521
     9  C   -0.079189
    10  C    0.037468
    11  C    0.069897
    12  C    0.044560
    13  C   -0.036884
    14  H    0.029752
    15  N   -0.308331
    16  C    0.155167
    17  C   -0.140380
    18  C   -0.029028
    19  C    0.069263
    20  C    0.113468
    21  C    0.008016
    22  O   -0.244600
    23  C    0.041260
    24  N   -0.321011
    25  C    0.036069
    26  C   -0.042169
    27  C    0.024910
    28  C    0.084858
    29  C    0.056671
    30  C    0.036921
    31  C   -0.008403
    32  N   -0.439374
    33  C    0.179102
    34  C   -0.175151
    35  C   -0.014002
    36  C    0.109966
    37  C    0.115570
    38  C    0.073244
    39  O   -0.144951
    40  C   -0.038103
    41  C    0.155680
    42  O   -0.198836
    43  O   -0.329048
    44  C    0.182748
    45  H   -0.027454
    46  H   -0.007708
    47  H   -0.042390
    48  H    0.003902
    49  H    0.010788
    50  H    0.020583
    51  H    0.027108
    52  H    0.015768
    53  H    0.012892
    54  H    0.017196
    55  H    0.020520
    56  H    0.038038
    57  H    0.049689
    58  H    0.012640
    59  H    0.009433
    60  H    0.044197
    61  H    0.032978
    62  H    0.028621
    63  H    0.029406
    64  H    0.012716
    65  H    0.039371
    66  H    0.014876
    67  H    0.019115
    68  H    0.008602
    69  H    0.002700
    70  H    0.020695
    71  H    0.002409
    72  H    0.017175
    73  H    0.004866
    74  H    0.038584
    75  H    0.044856
    76  H    0.038557
    77  H    0.051892
    78  H    0.041613
    79  H    0.022423
    80  Mg   0.826349
    81  C   -0.012294
    82  C   -0.055189
    83  C   -0.055342
    84  C   -0.101737
    85  N   -0.262882
    86  C   -0.021561
    87  C   -0.037410
    88  C   -0.073747
    89  C    0.047858
    90  C    0.074594
    91  C    0.036470
    92  C   -0.072641
    93  H    0.021681
    94  N   -0.381527
    95  C    0.116828
    96  C   -0.159389
    97  C   -0.046585
    98  C    0.112345
    99  C    0.135767
   100  C    0.005266
   101  O   -0.221345
   102  C    0.048251
   103  N   -0.269129
   104  C    0.003999
   105  C   -0.013052
   106  C   -0.018919
   107  C    0.072180
   108  C    0.091482
   109  C   -0.014709
   110  C    0.000590
   111  N   -0.397778
   112  C    0.133587
   113  C   -0.171104
   114  C    0.038094
   115  C    0.109043
   116  C    0.123574
   117  C    0.021069
   118  O   -0.126704
   119  C   -0.026009
   120  C    0.176025
   121  O   -0.208473
   122  O   -0.277552
   123  C    0.181954
   124  H   -0.037534
   125  H    0.007404
   126  H   -0.023662
   127  H    0.022004
   128  H    0.013702
   129  H    0.030072
   130  H    0.010688
   131  H    0.027882
   132  H    0.008520
   133  H    0.018885
   134  H    0.034099
   135  H    0.048642
   136  H    0.023677
   137  H    0.016828
   138  H    0.018142
   139  H    0.040366
   140  H    0.017659
   141  H    0.042627
   142  H    0.008158
   143  H    0.001980
   144  H    0.024907
   145  H    0.013054
   146  H    0.014117
   147  H    0.012814
   148  H   -0.002235
   149  H    0.027103
   150  H    0.014259
   151  H    0.022609
   152  H    0.014978
   153  H    0.034335
   154  H    0.032760
   155  H    0.025996
   156  H    0.038683
   157  H    0.037350
   158  H    0.007204
 Sum of Mulliken charges =  -0.00000

 Dipole moment (field-independent basis, Debye):
    X=              2.3172    Y=              2.3937    Z=              5.1650  Tot=              6.1463
 Quadrupole moment (field-independent basis, Debye-Ang):
   XX=           -375.4511   YY=           -505.0037   ZZ=           -493.3343
   XY=             27.2928   XZ=             35.0381   YZ=             29.9765

 Normal termination of Gaussian 16 at Wed Sep 15 21:41:05 2021.
