 Gaussian 16, Revision A.03,
 Gaussian 16:  ES64L-G16RevA.03 25-Dec-2016

 ----------------------------------------------------------
 #p cam-b3lyp/Def2SVP td=(nstates=5) density=(transition=1)
 ----------------------------------------------------------

 --------------------------------
 TDDFT excited states in gaussian
 --------------------------------
 Symbolic Z-matrix:
 Charge =  0 Multiplicity = 1

                         Standard orientation:
 ---------------------------------------------------------------------
 Center     Atomic      Atomic             Coordinates (Angstroms)
 Number     Number       Type             X           Y           Z
 ---------------------------------------------------------------------
      1         12           0       -9.548173   -0.805353    0.621438
      2          6           0       -9.650140    2.528473   -0.245301
      3          6           0       -7.577607    0.084096    3.273380
      4          6           0       -9.201332   -4.092630    1.312760
      5          6           0      -11.049072   -1.640541   -2.401622
      6          7           0       -8.619205    1.156098    1.292741
      7          6           0       -8.947053    2.337593    0.934849
      8          6           0       -8.326060    3.552456    1.799057
      9          6           0       -7.407818    2.693060    2.755029
     10          6           0       -7.806999    1.184115    2.394462
     11          6           0       -5.817458    2.855778    2.507309
     12          6           0       -9.385404    4.457697    2.564979
     13          6           0       -9.033693    5.972795    2.778037
     14          1           0       -7.625285    6.384909    2.472793
     15          7           0       -8.626053   -1.837229    2.086233
     16          6           0       -7.887725   -1.286360    3.206317
     17          6           0       -7.486283   -2.402902    4.055707
     18          6           0       -7.851370   -3.627797    3.443501
     19          6           0       -8.629629   -3.221496    2.251506
     20          6           0       -6.824650   -2.067190    5.343645
     21          6           0       -7.658127   -5.092536    3.901170
     22          8           0       -7.918220   -6.065017    3.257082
     23          6           0       -6.904639   -5.261464    5.236007
     24          7           0       -9.939729   -2.670313   -0.412969
     25          6           0       -9.723608   -3.864746    0.039684
     26          6           0       -9.960773   -4.946231   -1.052277
     27          6           0      -10.657373   -4.170548   -2.195908
     28          6           0      -10.577204   -2.722067   -1.659030
     29          6           0       -8.633687   -5.617033   -1.466235
     30          6           0      -12.097031   -4.696170   -2.484487
     31          6           0      -12.161221   -6.072560   -3.166108
     32          7           0      -10.237780    0.211113   -1.036247
     33          6           0      -10.916981   -0.271749   -2.140680
     34          6           0      -11.301381    0.876037   -2.919299
     35          6           0      -10.806813    2.046705   -2.270107
     36          6           0      -10.197755    1.520926   -1.098186
     37          6           0      -11.991701    0.825477   -4.155565
     38          6           0      -10.737759    3.472941   -2.239974
     39          8           0      -11.122883    4.298910   -3.120334
     40          6           0       -9.871181    3.815737   -0.966646
     41          6           0       -8.697569    4.529289   -1.423005
     42          8           0       -7.689149    3.990325   -1.878370
     43          8           0       -9.000464    5.866734   -1.391096
     44          6           0       -7.992152    6.705847   -2.072504
     45          1           0       -6.926389    0.334341    4.112922
     46          1           0       -9.070367   -5.134791    1.613694
     47          1           0      -11.580130   -1.952412   -3.303892
     48          1           0       -7.713126    4.089340    1.074613
     49          1           0       -7.590556    2.965928    3.794190
     50          1           0       -5.673762    3.259523    1.504688
     51          1           0       -5.332445    1.883037    2.587297
     52          1           0       -5.282724    3.501423    3.204710
     53          1           0       -9.452752    3.992232    3.547934
     54          1           0      -10.430130    4.325237    2.281632
     55          1           0       -9.239276    6.334232    3.785536
     56          1           0       -9.616495    6.572568    2.078895
     57          1           0       -5.754437   -1.917362    5.198326
     58          1           0       -7.098827   -2.744083    6.152930
     59          1           0       -7.248932   -1.120053    5.675990
     60          1           0       -7.489059   -5.013673    6.122645
     61          1           0       -6.058558   -4.591066    5.088378
     62          1           0       -6.462612   -6.241821    5.411296
     63          1           0      -10.655555   -5.625808   -0.559343
     64          1           0      -10.039646   -4.211131   -3.093022
     65          1           0       -7.732511   -5.026433   -1.299946
     66          1           0       -8.488905   -5.859902   -2.519449
     67          1           0       -8.580260   -6.532502   -0.877100
     68          1           0      -12.590307   -4.006529   -3.168050
     69          1           0      -12.672266   -4.721440   -1.558359
     70          1           0      -11.143274   -6.457931   -3.224360
     71          1           0      -12.381452   -5.929782   -4.224144
     72          1           0      -12.873246   -6.811274   -2.798898
     73          1           0      -12.782719    0.092872   -3.994849
     74          1           0      -11.418723    0.479097   -5.015537
     75          1           0      -12.299755    1.837396   -4.420682
     76          1           0      -10.513329    4.503348   -0.415620
     77          1           0       -8.047631    6.444061   -3.129521
     78          1           0       -7.011615    6.625439   -1.604440
     79          1           0       -8.310233    7.742899   -1.964378
     80         12           0        9.436681   -0.649104   -0.238891
     81          6           0        7.602791    2.327356   -0.136568
     82          6           0       11.982522    1.095939    1.345885
     83          6           0       11.303921   -3.269129   -0.708096
     84          6           0        6.770541   -2.117132   -2.050042
     85          7           0        9.913938    1.625640    0.171749
     86          6           0        8.959377    2.556236    0.272863
     87          6           0        9.574751    3.774767    0.875481
     88          6           0       11.093103    3.475629    0.927375
     89          6           0       11.027271    1.963628    0.841791
     90          6           0       12.028799    4.100117   -0.109181
     91          6           0        8.994434    4.081664    2.292487
     92          6           0        8.507180    5.531363    2.614258
     93          1           0        9.189244    6.739497    1.899693
     94          7           0       11.371274   -1.093597    0.396352
     95          6           0       12.154394   -0.275229    1.199570
     96          6           0       13.330002   -1.020242    1.513387
     97          6           0       13.231415   -2.287075    0.809853
     98          6           0       11.944885   -2.291214    0.129626
     99          6           0       14.519804   -0.477587    2.334967
    100          6           0       14.267181   -3.441409    0.686461
    101          8           0       14.092612   -4.439797    0.062635
    102          6           0       15.546887   -3.272517    1.481580
    103          7           0        9.048792   -2.415816   -1.227319
    104          6           0       10.031052   -3.337935   -1.337969
    105          6           0        9.613943   -4.612410   -2.122385
    106          6           0        8.062495   -4.322574   -2.306572
    107          6           0        7.907211   -2.886587   -1.820084
    108          6           0       10.487017   -4.754473   -3.498682
    109          6           0        7.140130   -5.396230   -1.648307
    110          6           0        6.562061   -5.091649   -0.277901
    111          7           0        7.511629   -0.092573   -0.954351
    112          6           0        6.530540   -0.812426   -1.581114
    113          6           0        5.336512    0.085290   -1.764763
    114          6           0        5.735436    1.319505   -1.203706
    115          6           0        7.090342    1.200290   -0.748705
    116          6           0        4.080995   -0.198655   -2.543768
    117          6           0        5.315226    2.691015   -0.927218
    118          8           0        4.234629    3.223042   -1.197088
    119          6           0        6.438823    3.306587   -0.098572
    120          6           0        6.759239    4.617215   -0.758313
    121          8           0        7.420392    4.749203   -1.771953
    122          8           0        6.028782    5.524255   -0.130824
    123          6           0        5.804893    6.802194   -0.788302
    124          1           0       12.834418    1.672281    1.711428
    125          1           0       11.842689   -4.218568   -0.719292
    126          1           0        5.942954   -2.576041   -2.595550
    127          1           0        9.353443    4.628059    0.235160
    128          1           0       11.443692    3.873070    1.879950
    129          1           0       11.570960    4.780164   -0.827747
    130          1           0       12.541055    3.319861   -0.672810
    131          1           0       12.776292    4.654689    0.457665
    132          1           0        9.634178    3.743237    3.107263
    133          1           0        8.141474    3.403329    2.277283
    134          1           0        8.682031    5.622542    3.687015
    135          1           0        7.437367    5.589362    2.415296
    136          1           0       15.477830   -0.580293    1.825227
    137          1           0       14.692289   -1.054161    3.243897
    138          1           0       14.413381    0.560416    2.652888
    139          1           0       15.365272   -3.029408    2.528692
    140          1           0       16.159738   -2.526260    0.975844
    141          1           0       16.175468   -4.157125    1.379498
    142          1           0        9.769080   -5.526047   -1.548801
    143          1           0        7.740612   -4.367418   -3.346899
    144          1           0        9.776389   -4.523255   -4.292298
    145          1           0       10.783867   -5.779666   -3.721061
    146          1           0       11.286156   -4.018868   -3.596860
    147          1           0        7.811572   -6.234978   -1.464015
    148          1           0        6.347879   -5.733000   -2.316594
    149          1           0        7.401965   -4.665453    0.272102
    150          1           0        6.275477   -6.088691    0.055760
    151          1           0        5.777133   -4.345772   -0.155432
    152          1           0        4.015695   -1.127358   -3.110725
    153          1           0        3.924512    0.597555   -3.271687
    154          1           0        3.272144   -0.095836   -1.821068
    155          1           0        6.146330    3.627332    0.901458
    156          1           0        6.150247    6.959265   -1.809642
    157          1           0        6.403765    7.485191   -0.185050
    158          1           0        4.847387    7.195472   -0.446586
 ---------------------------------------------------------------------

 SCF Done:  E(RCAM-B3LYP) =  -4069.82237815     A.U. after   18 cycles

 Excitation energies and oscillator strengths:

 Excited State   1:      Singlet-A      1.7296 eV  716.85 nm  f=0.4150  <S**2>=0.000
     309 -> 316       -0.18709
     312 -> 313        0.68363
     309 <- 316       -0.10971
 This state for optimization and/or second-order correction.
 Total Energy, E(TD-HF/TD-DFT) =  -4069.75881792
 Copying the excited state density for this state as the 1-particle RhoCI density.

 Excited State   2:      Singlet-A      1.7721 eV  699.64 nm  f=0.3682  <S**2>=0.000
     310 -> 315        0.19897
     311 -> 314        0.67922
     310 <- 315        0.10973

 Excited State   3:      Singlet-A      2.2131 eV  560.24 nm  f=0.0022  <S**2>=0.000
     309 -> 313        0.45490
     310 -> 314        0.45487
     311 -> 315       -0.19789
     312 -> 316        0.19918

 Excited State   4:      Singlet-A      2.2154 eV  559.66 nm  f=0.2037  <S**2>=0.000
     309 -> 313       -0.45356
     310 -> 314        0.45458
     311 -> 315       -0.19974
     312 -> 316       -0.20037

 Excited State   5:      Singlet-A      2.9496 eV  420.34 nm  f=0.0000  <S**2>=0.000
     311 -> 313        0.70691

 The electronic state is 1-A.
 Alpha  occ. eigenvalues --  -46.88792 -46.88341 -19.26261 -19.24710 -19.20125
 Alpha  occ. eigenvalues --  -19.19642 -19.19403 -19.19219 -19.18625 -19.18177
 Alpha  occ. eigenvalues --  -14.42159 -14.41781 -14.41598 -14.41485 -14.39623
 Alpha  occ. eigenvalues --  -14.39312 -14.38887 -14.38738 -10.39152 -10.38469
 Alpha  occ. eigenvalues --  -10.36235 -10.35456 -10.34697 -10.34498 -10.32057
 Alpha  occ. eigenvalues --  -10.31776 -10.31269 -10.31176 -10.31070 -10.30786
 Alpha  occ. eigenvalues --  -10.30637 -10.30625 -10.30617 -10.30424 -10.30372
 Alpha  occ. eigenvalues --  -10.30276 -10.29737 -10.29558 -10.29510 -10.29384
 Alpha  occ. eigenvalues --  -10.29376 -10.29257 -10.29150 -10.28974 -10.28911
 Alpha  occ. eigenvalues --  -10.28868 -10.28857 -10.28370 -10.28282 -10.28206
 Alpha  occ. eigenvalues --  -10.28129 -10.28050 -10.28043 -10.27723 -10.27710
 Alpha  occ. eigenvalues --  -10.27573 -10.27557 -10.27515 -10.27168 -10.27133
 Alpha  occ. eigenvalues --  -10.27132 -10.27070 -10.27047 -10.27019 -10.26860
 Alpha  occ. eigenvalues --  -10.26700 -10.26684 -10.26628 -10.26605 -10.26523
 Alpha  occ. eigenvalues --  -10.26448 -10.26337 -10.26304 -10.26245 -10.26057
 Alpha  occ. eigenvalues --  -10.25938 -10.25903 -10.25788 -10.25633 -10.25390
 Alpha  occ. eigenvalues --  -10.25362 -10.25276 -10.25215 -10.25079 -10.24598
 Alpha  occ. eigenvalues --  -10.24395  -3.17248  -3.16954  -1.92156  -1.91847
 Alpha  occ. eigenvalues --   -1.91739  -1.91509  -1.91415  -1.91257  -1.18336
 Alpha  occ. eigenvalues --   -1.15436  -1.12480  -1.11368  -1.09602  -1.08670
 Alpha  occ. eigenvalues --   -1.07141  -1.06682  -1.05323  -1.05020  -1.04264
 Alpha  occ. eigenvalues --   -1.03774  -1.03401  -1.02600  -1.01861  -1.00819
 Alpha  occ. eigenvalues --   -0.93353  -0.92461  -0.89274  -0.88718  -0.88628
 Alpha  occ. eigenvalues --   -0.88309  -0.88023  -0.87778  -0.87426  -0.87095
 Alpha  occ. eigenvalues --   -0.86907  -0.86803  -0.86224  -0.85534  -0.84445
 Alpha  occ. eigenvalues --   -0.83850  -0.83733  -0.83436  -0.82618  -0.82270
 Alpha  occ. eigenvalues --   -0.81687  -0.81416  -0.80990  -0.80787  -0.80222
 Alpha  occ. eigenvalues --   -0.80024  -0.78499  -0.77906  -0.77341  -0.77340
 Alpha  occ. eigenvalues --   -0.77014  -0.76313  -0.76308  -0.75679  -0.75113
 Alpha  occ. eigenvalues --   -0.74785  -0.72670  -0.72152  -0.71708  -0.71406
 Alpha  occ. eigenvalues --   -0.69526  -0.69372  -0.68894  -0.68729  -0.68123
 Alpha  occ. eigenvalues --   -0.68056  -0.66940  -0.66105  -0.65753  -0.65363
 Alpha  occ. eigenvalues --   -0.65272  -0.64965  -0.64698  -0.64651  -0.64340
 Alpha  occ. eigenvalues --   -0.64022  -0.62808  -0.61479  -0.59975  -0.59850
 Alpha  occ. eigenvalues --   -0.59659  -0.59311  -0.59207  -0.59072  -0.58460
 Alpha  occ. eigenvalues --   -0.58220  -0.58101  -0.57817  -0.57606  -0.57308
 Alpha  occ. eigenvalues --   -0.56865  -0.56000  -0.55940  -0.55646  -0.55104
 Alpha  occ. eigenvalues --   -0.54959  -0.54793  -0.54677  -0.54489  -0.53927
 Alpha  occ. eigenvalues --   -0.53591  -0.53294  -0.53263  -0.53113  -0.52955
 Alpha  occ. eigenvalues --   -0.52879  -0.52670  -0.52520  -0.52029  -0.52007
 Alpha  occ. eigenvalues --   -0.51860  -0.51698  -0.51338  -0.51313  -0.51240
 Alpha  occ. eigenvalues --   -0.51066  -0.51038  -0.50889  -0.50656  -0.50343
 Alpha  occ. eigenvalues --   -0.50123  -0.49674  -0.49400  -0.49378  -0.49195
 Alpha  occ. eigenvalues --   -0.49077  -0.48897  -0.48848  -0.48670  -0.48477
 Alpha  occ. eigenvalues --   -0.48417  -0.48371  -0.48128  -0.48118  -0.47966
 Alpha  occ. eigenvalues --   -0.47773  -0.47716  -0.47291  -0.46979  -0.46891
 Alpha  occ. eigenvalues --   -0.46569  -0.46407  -0.46398  -0.46179  -0.46018
 Alpha  occ. eigenvalues --   -0.45982  -0.45898  -0.45864  -0.45655  -0.45588
 Alpha  occ. eigenvalues --   -0.45549  -0.45343  -0.45062  -0.44998  -0.44822
 Alpha  occ. eigenvalues --   -0.44797  -0.44451  -0.44363  -0.44225  -0.44097
 Alpha  occ. eigenvalues --   -0.43750  -0.43695  -0.43477  -0.43327  -0.43259
 Alpha  occ. eigenvalues --   -0.43157  -0.43063  -0.42947  -0.42864  -0.42729
 Alpha  occ. eigenvalues --   -0.42713  -0.42610  -0.42193  -0.42171  -0.41758
 Alpha  occ. eigenvalues --   -0.41656  -0.41638  -0.41599  -0.41394  -0.41203
 Alpha  occ. eigenvalues --   -0.41133  -0.40997  -0.40724  -0.40604  -0.40281
 Alpha  occ. eigenvalues --   -0.40139  -0.39750  -0.39630  -0.39344  -0.39289
 Alpha  occ. eigenvalues --   -0.38389  -0.38169  -0.37925  -0.37560  -0.37166
 Alpha  occ. eigenvalues --   -0.37105  -0.36825  -0.36718  -0.36470  -0.36396
 Alpha  occ. eigenvalues --   -0.36265  -0.36214  -0.34395  -0.34253  -0.34058
 Alpha  occ. eigenvalues --   -0.33811  -0.33381  -0.33149  -0.31714  -0.31395
 Alpha  occ. eigenvalues --   -0.31149  -0.30775  -0.30380  -0.30323  -0.30090
 Alpha  occ. eigenvalues --   -0.29912  -0.29111  -0.28949  -0.23787  -0.23613
 Alpha  occ. eigenvalues --   -0.21185  -0.21068
 Alpha virt. eigenvalues --   -0.08478  -0.08367  -0.01637  -0.01514   0.00020
 Alpha virt. eigenvalues --    0.00203   0.02144   0.02652   0.02815   0.02877
 Alpha virt. eigenvalues --    0.05048   0.05539   0.05610   0.05901   0.06006

 Mulliken charges:
               1
     1  Mg  11.999903
     2  C    5.999458
     3  C    6.000220
     4  C    6.000624
     5  C    5.999789
     6  N    6.999774
     7  C    6.000575
     8  C    5.999670
     9  C    6.000659
    10  C    5.998714
    11  C    6.000246
    12  C    5.999754
    13  C    6.000211
    14  H    0.999198
    15  N    7.000194
    16  C    5.998961
    17  C    5.999571
    18  C    5.999480
    19  C    5.999358
    20  C    6.000159
    21  C    5.999786
    22  O    7.999741
    23  C    6.000141
    24  N    7.000105
    25  C    5.999270
    26  C    6.000172
    27  C    5.999657
    28  C    6.000625
    29  C    6.000119
    30  C    5.999799
    31  C    5.999968
    32  N    6.999772
    33  C    6.000859
    34  C    6.000633
    35  C    6.000034
    36  C    6.000489
    37  C    5.999793
    38  C    6.000446
    39  O    8.000885
    40  C    5.999978
    41  C    6.000142
    42  O    7.999210
    43  O    8.000344
    44  C    6.000021
    45  H    0.999491
    46  H    1.000299
    47  H    1.000517
    48  H    0.999464
    49  H    1.000287
    50  H    0.998746
    51  H    0.999130
    52  H    0.999520
    53  H    1.000543
    54  H    1.000373
    55  H    1.000536
    56  H    1.000166
    57  H    0.998855
    58  H    1.000249
    59  H    1.000005
    60  H    1.000349
    61  H    0.999376
    62  H    1.000129
    63  H    1.000576
    64  H    0.999890
    65  H    0.999237
    66  H    0.999825
    67  H    1.000462
    68  H    1.000107
    69  H    1.000468
    70  H    0.999981
    71  H    1.000206
    72  H    1.000594
    73  H    1.000785
    74  H    1.000455
    75  H    1.000553
    76  H    1.000490
    77  H    0.999946
    78  H    0.999319
    79  H    1.000566
    80  Mg  11.997581
    81  C    5.985795
    82  C    6.022219
    83  C    6.015694
    84  C    5.973407
    85  N    7.003483
    86  C    6.030189
    87  C    5.994610
    88  C    6.010183
    89  C    5.959920
    90  C    6.000640
    91  C    5.998208
    92  C    5.998383
    93  H    1.005433
    94  N    7.011672
    95  C    5.949967
    96  C    5.986059
    97  C    5.981215
    98  C    5.966243
    99  C    6.004370
   100  C    5.985310
   101  O    7.973634
   102  C    6.006928
   103  N    6.994049
   104  C    5.967101
   105  C    6.010437
   106  C    5.988330
   107  C    6.038414
   108  C    6.006829
   109  C    5.998501
   110  C    5.991852
   111  N    6.992777
   112  C    6.047676
   113  C    6.028626
   114  C    6.004102
   115  C    6.034435
   116  C    5.995882
   117  C    6.016699
   118  O    8.029403
   119  C    5.997678
   120  C    6.005407
   121  O    8.006814
   122  O    8.000465
   123  C    5.994880
   124  H    0.990373
   125  H    0.993380
   126  H    1.005662
   127  H    1.001790
   128  H    0.997562
   129  H    0.986092
   130  H    1.004819
   131  H    0.997853
   132  H    1.014679
   133  H    0.992803
   134  H    1.004706
   135  H    0.994939
   136  H    0.981987
   137  H    0.980714
   138  H    0.980600
   139  H    0.993587
   140  H    0.991356
   141  H    0.984107
   142  H    0.999107
   143  H    1.001777
   144  H    0.987088
   145  H    0.996086
   146  H    1.003582
   147  H    1.011377
   148  H    1.000470
   149  H    1.010831
   150  H    1.005534
   151  H    0.992269
   152  H    1.020722
   153  H    1.018538
   154  H    1.018904
   155  H    1.010562
   156  H    1.003685
   157  H    1.007284
   158  H    1.003675
 Sum of Mulliken charges = 624.00000

 Dipole moment (field-independent basis, Debye):
    X=            -10.2551    Y=              3.4203    Z=             -3.1108  Tot=             11.2491
 Quadrupole moment (field-independent basis, Debye-Ang):
   XX=           -186.6222   YY=              1.2371   ZZ=              0.6649
   XY=             36.3010   XZ=            -24.6083   YZ=              0.8389

 Normal termination of Gaussian 16 at Thu Sep 23 07:30:23 2021.
