 Gaussian 16, Revision A.03,
 Gaussian 16:  ES64L-G16RevA.03 25-Dec-2016

 -----------------------------------------------------------
 #p cam-b3lyp/Def2SVP td=(nstates=5, root=1) density=current
 -----------------------------------------------------------

 --------------------------------
 TDDFT excited states in gaussian
 --------------------------------
 Symbolic Z-matrix:
 Charge =  0 Multiplicity = 1

                         Standard orientation:
 ---------------------------------------------------------------------
 Center     Atomic      Atomic             Coordinates (Angstroms)
 Number     Number       Type             X           Y           Z
 ---------------------------------------------------------------------
      1         12           0       -0.505010    0.027823   -0.266996
      2          6           0        2.858038    0.121759    0.253662
      3          6           0       -0.352174   -3.394848    0.272641
      4          6           0       -3.859644   -0.001832   -0.401699
      5          6           0       -0.641012    3.541843   -0.129392
      6          7           0        1.059104   -1.422756    0.468762
      7          6           0        2.366802   -1.106864    0.555458
      8          6           0        3.194746   -2.238410    1.044833
      9          6           0        2.172987   -3.482272    0.668909
     10          6           0        0.838372   -2.740463    0.445194
     11          6           0        2.669204   -4.327787   -0.540995
     12          6           0        3.417437   -2.101434    2.542634
     13          6           0        2.152957   -1.967041    3.511532
     14          1           0        2.131718   -2.684302    4.855587
     15          7           0       -1.911014   -1.470039   -0.090768
     16          6           0       -1.647539   -2.860578   -0.005555
     17          6           0       -2.890629   -3.532561   -0.188075
     18          6           0       -3.926099   -2.617580   -0.332839
     19          6           0       -3.290530   -1.289203   -0.326159
     20          6           0       -2.889068   -5.047690   -0.174923
     21          6           0       -5.406595   -2.906044   -0.404588
     22          8           0       -5.727864   -4.118681   -0.337394
     23          6           0       -6.453594   -1.942960   -0.331806
     24          7           0       -2.033387    1.576356   -0.044826
     25          6           0       -3.356666    1.288770   -0.207718
     26          6           0       -4.222398    2.569266   -0.133289
     27          6           0       -3.145017    3.702037   -0.043483
     28          6           0       -1.854976    2.900925    0.005628
     29          6           0       -5.183880    2.716943   -1.293160
     30          6           0       -3.388654    4.641582    1.254759
     31          6           0       -3.192335    6.138453    0.988642
     32          7           0        0.823793    1.631588    0.000833
     33          6           0        0.687261    2.972737   -0.164448
     34          6           0        2.013766    3.520848   -0.247113
     35          6           0        2.968356    2.451716   -0.132183
     36          6           0        2.174732    1.330243    0.043619
     37          6           0        2.351647    4.970713   -0.176422
     38          6           0        4.333882    2.048804   -0.027090
     39          8           0        5.300184    2.814639   -0.132516
     40          6           0        4.307617    0.546535    0.185908
     41          6           0        5.063849   -0.099496   -0.914342
     42          8           0        6.223295    0.213506   -1.100582
     43          8           0        4.382418   -1.075893   -1.574553
     44          6           0        5.126865   -1.737165   -2.648067
     45          1           0       -0.270697   -4.478443    0.165843
     46          1           0       -4.914289   -0.041288   -0.681486
     47          1           0       -0.584625    4.624827   -0.260011
     48          1           0        4.187145   -2.374264    0.614845
     49          1           0        2.181464   -4.241841    1.451711
     50          1           0        2.792524   -5.368143   -0.242304
     51          1           0        3.652142   -3.941806   -0.812396
     52          1           0        2.035846   -4.270989   -1.427235
     53          1           0        4.129243   -1.287979    2.684573
     54          1           0        4.064061   -2.952928    2.754277
     55          1           0        1.199130   -2.286790    3.091712
     56          1           0        2.173885   -0.903883    3.749253
     57          1           0       -2.951059   -5.326935    0.877043
     58          1           0       -1.935485   -5.402444   -0.563986
     59          1           0       -3.682774   -5.538358   -0.739082
     60          1           0       -7.354670   -2.357383    0.121418
     61          1           0       -6.636038   -1.423866   -1.273622
     62          1           0       -6.121549   -1.233868    0.425292
     63          1           0       -4.746932    2.455174    0.816011
     64          1           0       -3.116340    4.249215   -0.985558
     65          1           0       -5.209410    1.856070   -1.960719
     66          1           0       -5.197116    3.617718   -1.906187
     67          1           0       -6.153712    2.606076   -0.807269
     68          1           0       -2.744032    4.401783    2.100436
     69          1           0       -4.376191    4.489906    1.690131
     70          1           0       -4.173854    6.611723    0.988122
     71          1           0       -2.808626    6.255691   -0.025052
     72          1           0       -2.553999    6.622394    1.728012
     73          1           0        2.080632    5.593362   -1.028191
     74          1           0        3.429213    5.002845   -0.011069
     75          1           0        1.859595    5.466338    0.660511
     76          1           0        4.822758    0.366430    1.129913
     77          1           0        6.033310   -2.158673   -2.212620
     78          1           0        5.334270   -1.085993   -3.497370
     79          1           0        4.504621   -2.481528   -3.144677
 ---------------------------------------------------------------------

 SCF Done:  E(RCAM-B3LYP) =  -2034.90434701     A.U. after   17 cycles

 Excitation energies and oscillator strengths:

 Excited State   1:      Singlet-A      1.7418 eV  711.81 nm  f=0.3922  <S**2>=0.000
     155 ->158        -0.17702
     156 ->157         0.68526
     155 <-158        -0.10393
 This state for optimization and/or second-order correction.
 Total Energy, E(TD-HF/TD-DFT) =  -2034.84033678
 Copying the excited state density for this state as the 1-particle RhoCI density.

 Excited State   2:      Singlet-A      2.2176 eV  559.10 nm  f=0.1295  <S**2>=0.000
     155 ->157         0.65047
     156 ->158         0.25333

 Excited State   3:      Singlet-A      3.1804 eV  389.84 nm  f=0.0011  <S**2>=0.000
     153 ->157        -0.27716
     154 ->157         0.63251

 Excited State   4:      Singlet-A      3.3433 eV  370.84 nm  f=0.0037  <S**2>=0.000
     151 ->157        -0.13611
     152 ->157        -0.20278
     153 ->157         0.55529
     154 ->157         0.20480
     156 ->158        -0.19326

 Excited State   5:      Singlet-A      3.3909 eV  365.64 nm  f=0.0018  <S**2>=0.000
     151 ->157         0.50589
     151 ->158         0.19278
     151 ->159         0.26535
     151 ->161         0.25891
     153 ->157         0.15367

 The electronic state is 1-A.
 Alpha  occ. eigenvalues --  -46.89120 -19.26405 -19.19490 -19.18290 -19.18174
 Alpha  occ. eigenvalues --  -14.42091 -14.42073 -14.39801 -14.38617 -10.39479
 Alpha  occ. eigenvalues --  -10.34848 -10.34461 -10.32755 -10.31691 -10.31229
 Alpha  occ. eigenvalues --  -10.31199 -10.30531 -10.30399 -10.30223 -10.29212
 Alpha  occ. eigenvalues --  -10.29058 -10.28572 -10.28469 -10.28386 -10.28354
 Alpha  occ. eigenvalues --  -10.28290 -10.28219 -10.28034 -10.27743 -10.27411
 Alpha  occ. eigenvalues --  -10.27372 -10.27305 -10.27241 -10.27187 -10.27006
 Alpha  occ. eigenvalues --  -10.26784 -10.26556 -10.26478 -10.26353 -10.25628
 Alpha  occ. eigenvalues --  -10.25566 -10.24983 -10.24563  -3.17573  -1.92449
 Alpha  occ. eigenvalues --   -1.92048  -1.91855  -1.17429  -1.09065  -1.08409
 Alpha  occ. eigenvalues --   -1.08005  -1.04996  -1.04554  -1.02743  -1.01527
 Alpha  occ. eigenvalues --   -0.94084  -0.89294  -0.89057  -0.88762  -0.87804
 Alpha  occ. eigenvalues --   -0.86338  -0.85858  -0.85112  -0.84141  -0.83364
 Alpha  occ. eigenvalues --   -0.82816  -0.81471  -0.80912  -0.78638  -0.78005
 Alpha  occ. eigenvalues --   -0.77072  -0.76177  -0.74971  -0.72526  -0.72138
 Alpha  occ. eigenvalues --   -0.70162  -0.69135  -0.68857  -0.67143  -0.66573
 Alpha  occ. eigenvalues --   -0.65350  -0.65229  -0.64404  -0.63839  -0.60255
 Alpha  occ. eigenvalues --   -0.59748  -0.59353  -0.58840  -0.58400  -0.58035
 Alpha  occ. eigenvalues --   -0.56856  -0.56600  -0.55818  -0.55172  -0.54533
 Alpha  occ. eigenvalues --   -0.54265  -0.53768  -0.53497  -0.53087  -0.52498
 Alpha  occ. eigenvalues --   -0.51901  -0.51838  -0.51446  -0.51093  -0.50933
 Alpha  occ. eigenvalues --   -0.50344  -0.49613  -0.49483  -0.49130  -0.48766
 Alpha  occ. eigenvalues --   -0.48698  -0.48489  -0.48172  -0.47641  -0.47109
 Alpha  occ. eigenvalues --   -0.46737  -0.46442  -0.46419  -0.46066  -0.45749
 Alpha  occ. eigenvalues --   -0.45654  -0.45246  -0.44872  -0.44671  -0.44633
 Alpha  occ. eigenvalues --   -0.44553  -0.43746  -0.43561  -0.42825  -0.42452
 Alpha  occ. eigenvalues --   -0.42317  -0.42259  -0.41918  -0.41797  -0.41287
 Alpha  occ. eigenvalues --   -0.41164  -0.40973  -0.40494  -0.39540  -0.39206
 Alpha  occ. eigenvalues --   -0.38692  -0.37842  -0.37706  -0.37532  -0.36901
 Alpha  occ. eigenvalues --   -0.35981  -0.34707  -0.34006  -0.33118  -0.31792
 Alpha  occ. eigenvalues --   -0.30890  -0.30455  -0.30112  -0.29000  -0.24309
 Alpha  occ. eigenvalues --   -0.21679
 Alpha virt. eigenvalues --   -0.09152  -0.01894   0.00138   0.01331   0.02003
 Alpha virt. eigenvalues --    0.04976   0.05499   0.06073   0.06956   0.08373
 Alpha virt. eigenvalues --    0.08428   0.08697   0.09019   0.09656   0.10366

 Mulliken charges:
               1
     1  Mg   0.787411
     2  C   -0.001029
     3  C   -0.064330
     4  C   -0.081462
     5  C   -0.083185
     6  N   -0.254337
     7  C   -0.012991
     8  C   -0.034258
     9  C   -0.078880
    10  C    0.077858
    11  C    0.066825
    12  C    0.044962
    13  C   -0.075561
    14  H    0.021734
    15  N   -0.434416
    16  C    0.129607
    17  C   -0.137296
    18  C   -0.006174
    19  C    0.150350
    20  C    0.134547
    21  C   -0.021092
    22  O   -0.247932
    23  C    0.086127
    24  N   -0.266264
    25  C    0.024558
    26  C   -0.007675
    27  C   -0.038546
    28  C    0.096183
    29  C    0.064841
    30  C    0.032238
    31  C   -0.000059
    32  N   -0.356146
    33  C    0.087340
    34  C   -0.157445
    35  C    0.053313
    36  C    0.095819
    37  C    0.092518
    38  C   -0.007503
    39  O   -0.167882
    40  C   -0.003236
    41  C    0.183782
    42  O   -0.197120
    43  O   -0.323162
    44  C    0.181462
    45  H   -0.031763
    46  H   -0.060547
    47  H   -0.035236
    48  H    0.000815
    49  H    0.013110
    50  H    0.017108
    51  H    0.005213
    52  H    0.020331
    53  H    0.002468
    54  H    0.010140
    55  H    0.059685
    56  H    0.043844
    57  H    0.025783
    58  H    0.005795
    59  H    0.037430
    60  H    0.031298
    61  H    0.051746
    62  H    0.024938
    63  H    0.026958
    64  H    0.020190
    65  H    0.018493
    66  H    0.029276
    67  H    0.006678
    68  H    0.013122
    69  H    0.006438
    70  H    0.013501
    71  H    0.012987
    72  H    0.025639
    73  H    0.017913
    74  H    0.036660
    75  H    0.017527
    76  H    0.059177
    77  H    0.045701
    78  H    0.040859
    79  H    0.033232
 Sum of Mulliken charges =  -0.00000

 Dipole moment (field-independent basis, Debye):
    X=             -3.4990    Y=              0.3967    Z=             -1.2162  Tot=              3.7256
 Quadrupole moment (field-independent basis, Debye-Ang):
   XX=           -289.0831   YY=           -255.0610   ZZ=           -249.0835
   XY=            -58.7586   XZ=              0.5679   YZ=              3.7439

 Normal termination of Gaussian 16 at Tue Oct 12 15:27:55 2021.
