 Gaussian 16, Revision A.03,
 Gaussian 16:  ES64L-G16RevA.03 25-Dec-2016

 -----------------------------------
 #p cam-b3lyp/Def2SVP td=(nstates=5)
 -----------------------------------

 --------------------------------
 TDDFT excited states in gaussian
 --------------------------------
 Symbolic Z-matrix:
 Charge =  0 Multiplicity = 1

                         Standard orientation:
 ---------------------------------------------------------------------
 Center     Atomic      Atomic             Coordinates (Angstroms)
 Number     Number       Type             X           Y           Z
 ---------------------------------------------------------------------
      1         12           0      -26.468462   -0.529603    0.429320
      2          6           0      -25.046815    2.285919   -1.161792
      3          6           0      -26.545414   -2.146949   -2.443434
      4          6           0      -28.615701   -2.750164    1.889216
      5          6           0      -27.258725    1.756416    3.226603
      6          7           0      -25.898501    0.077975   -1.582242
      7          6           0      -25.141556    1.133905   -1.944640
      8          6           0      -24.597279    0.900347   -3.367590
      9          6           0      -25.039226   -0.476069   -3.749038
     10          6           0      -25.929649   -0.898792   -2.541516
     11          6           0      -25.654831   -0.545240   -5.206271
     12          6           0      -23.078758    1.166275   -3.639136
     13          6           0      -22.227796    0.289217   -4.654341
     14          1           0      -21.287053    1.008041   -5.632458
     15          7           0      -27.233790   -2.342359   -0.144477
     16          6           0      -27.142295   -2.849879   -1.420843
     17          6           0      -27.753585   -4.148497   -1.417797
     18          6           0      -28.429495   -4.376538   -0.156201
     19          6           0      -28.153909   -3.116183    0.568145
     20          6           0      -27.742636   -4.923425   -2.672832
     21          6           0      -29.186840   -5.617917    0.376568
     22          8           0      -29.713939   -5.585388    1.439399
     23          6           0      -29.054400   -6.936880   -0.312599
     24          7           0      -27.795180   -0.443218    2.286483
     25          6           0      -28.436970   -1.577259    2.646859
     26          6           0      -29.157261   -1.431307    4.025394
     27          6           0      -28.704932   -0.013203    4.490032
     28          6           0      -27.881538    0.505283    3.285043
     29          6           0      -30.656146   -1.570175    3.995476
     30          6           0      -27.881917    0.102127    5.820572
     31          6           0      -26.433314   -0.252257    5.813926
     32          7           0      -26.249006    1.559925    1.039863
     33          6           0      -26.560962    2.260314    2.169739
     34          6           0      -25.997746    3.585420    2.080621
     35          6           0      -25.387810    3.681340    0.802155
     36          6           0      -25.612656    2.430602    0.191975
     37          6           0      -26.175102    4.717254    3.030185
     38          6           0      -24.690507    4.533197   -0.118449
     39          8           0      -24.267283    5.681320   -0.048000
     40          6           0      -24.392145    3.655602   -1.415819
     41          6           0      -24.789148    4.350990   -2.707075
     42          8           0      -25.924350    4.623740   -3.001122
     43          8           0      -23.656606    4.564123   -3.476742
     44          6           0      -23.934020    5.264491   -4.731287
     45          1           0      -26.430165   -2.828207   -3.289505
     46          1           0      -29.251774   -3.531834    2.309123
     47          1           0      -27.398013    2.402848    4.095505
     48          1           0      -25.136614    1.702006   -3.872150
     49          1           0      -24.145752   -1.096683   -3.822530
     50          1           0      -25.508613    0.412125   -5.706176
     51          1           0      -26.677231   -0.911588   -5.114004
     52          1           0      -25.081035   -1.215690   -5.846349
     53          1           0      -22.573093    1.080451   -2.677034
     54          1           0      -22.895032    2.197514   -3.941756
     55          1           0      -22.974950   -0.279846   -5.207901
     56          1           0      -21.635244   -0.430308   -4.089177
     57          1           0      -28.699273   -5.444600   -2.701415
     58          1           0      -26.959207   -5.674152   -2.576152
     59          1           0      -27.592745   -4.449741   -3.643158
     60          1           0      -29.896377   -6.920464   -1.003395
     61          1           0      -29.022806   -7.728098    0.437074
     62          1           0      -28.182438   -7.035421   -0.959559
     63          1           0      -28.735949   -2.099952    4.776336
     64          1           0      -29.440826    0.785602    4.576564
     65          1           0      -31.002448   -1.950536    3.033608
     66          1           0      -31.161896   -0.613263    4.127145
     67          1           0      -30.899305   -2.271428    4.793350
     68          1           0      -28.346478   -0.511745    6.592298
     69          1           0      -28.058746    1.096659    6.230753
     70          1           0      -26.223008   -0.924673    4.982000
     71          1           0      -25.981680   -0.794029    6.645254
     72          1           0      -25.912163    0.705001    5.779734
     73          1           0      -27.208328    5.024974    3.188368
     74          1           0      -25.833303    5.600204    2.489539
     75          1           0      -25.651976    4.543208    3.970883
     76          1           0      -23.318410    3.467440   -1.401895
     77          1           0      -23.688941    4.363229   -5.292361
     78          1           0      -23.159314    6.030134   -4.765399
     79          1           0      -24.960910    5.622964   -4.805857
     80         12           0       26.808444    0.541300   -0.112294
     81          6           0       25.145262   -2.510886    0.147588
     82          6           0       24.036891    2.116513    1.199871
     83          6           0       28.594014    3.284392   -0.347850
     84          6           0       29.925872   -1.317159   -0.444425
     85          7           0       24.731712   -0.198886    0.547961
     86          6           0       24.280002   -1.487739    0.597351
     87          6           0       22.867495   -1.538980    1.060963
     88          6           0       22.530390   -0.042048    1.440831
     89          6           0       23.847034    0.733108    1.044094
     90          6           0       21.193187    0.487526    0.864388
     91          6           0       22.656867   -2.496947    2.258614
     92          6           0       21.519247   -3.476389    1.975112
     93          1           0       20.378296   -3.578831    3.031872
     94          7           0       26.356565    2.455310    0.335824
     95          6           0       25.148450    2.945860    0.829122
     96          6           0       25.307468    4.393648    0.874479
     97          6           0       26.642038    4.775806    0.385600
     98          6           0       27.272054    3.468738    0.016917
     99          6           0       24.335349    5.267723    1.493203
    100          6           0       27.148225    6.155747    0.473815
    101          8           0       26.500088    7.095916    0.883611
    102          6           0       28.550923    6.546859    0.163440
    103          7           0       28.883772    0.885657   -0.308239
    104          6           0       29.315247    2.137461   -0.667231
    105          6           0       30.812843    2.128438   -0.890272
    106          6           0       31.240990    0.783859   -0.434179
    107          6           0       29.985515    0.072772   -0.317068
    108          6           0       31.279040    2.559574   -2.340996
    109          6           0       31.886122    0.792741    0.994152
    110          6           0       32.889608   -0.230454    1.265975
    111          7           0       27.462852   -1.503686   -0.178180
    112          6           0       28.714222   -2.100414   -0.380391
    113          6           0       28.528676   -3.491841   -0.649421
    114          6           0       27.177310   -3.720588   -0.418736
    115          6           0       26.555631   -2.463930   -0.087859
    116          6           0       29.627198   -4.417630   -1.022192
    117          6           0       26.186719   -4.719777   -0.348406
    118          8           0       26.268253   -5.913102   -0.536438
    119          6           0       24.854925   -3.998061   -0.044336
    120          6           0       23.884849   -4.313382   -1.104989
    121          8           0       23.768505   -3.707140   -2.183384
    122          8           0       23.228307   -5.482329   -0.795170
    123          6           0       22.143778   -5.959964   -1.637446
    124          1           0       23.104191    2.553994    1.560474
    125          1           0       29.315637    4.102694   -0.411137
    126          1           0       30.881018   -1.830840   -0.572202
    127          1           0       22.291563   -1.670434    0.144494
    128          1           0       22.386453    0.114140    2.509495
    129          1           0       20.665902   -0.435181    0.619137
    130          1           0       21.263258    1.208303    0.049660
    131          1           0       20.630206    0.997860    1.645489
    132          1           0       22.319145   -2.002298    3.169123
    133          1           0       23.610960   -2.999690    2.415862
    134          1           0       22.070758   -4.412356    2.062762
    135          1           0       21.184790   -3.295719    0.954611
    136          1           0       23.493830    4.656603    1.820213
    137          1           0       23.871850    6.006662    0.838879
    138          1           0       24.777370    5.730660    2.376178
    139          1           0       28.666024    6.029627   -0.789113
    140          1           0       29.206751    6.124083    0.924983
    141          1           0       28.644924    7.627027    0.049556
    142          1           0       31.161898    2.919748   -0.227900
    143          1           0       31.818513    0.170451   -1.125847
    144          1           0       30.442737    2.975980   -2.902825
    145          1           0       31.847908    1.804603   -2.884805
    146          1           0       31.918169    3.442095   -2.340883
    147          1           0       31.096114    0.737640    1.743219
    148          1           0       32.385493    1.742740    1.183844
    149          1           0       33.861723    0.140520    0.939400
    150          1           0       32.642480   -1.186333    0.802924
    151          1           0       33.069290   -0.290834    2.339851
    152          1           0       30.340397   -3.934226   -1.689714
    153          1           0       29.285872   -5.359553   -1.451884
    154          1           0       30.172798   -4.553386   -0.088339
    155          1           0       24.340472   -4.406366    0.825665
    156          1           0       22.377233   -6.375788   -2.617647
    157          1           0       21.393728   -5.176380   -1.742856
    158          1           0       21.746667   -6.815079   -1.091729
 ---------------------------------------------------------------------

 SCF Done:  E(RCAM-B3LYP) =  -4069.76659463     A.U. after   18 cycles

 Excitation energies and oscillator strengths:

 Excited State   1:      Singlet-A      1.6751 eV  740.15 nm  f=0.3618  <S**2>=0.000
     309 -> 315       -0.18826
     311 -> 313        0.68338
     309 <- 315       -0.11090
 This state for optimization and/or second-order correction.
 Total Energy, E(TD-HF/TD-DFT) =  -4069.70503509
 Copying the excited state density for this state as the 1-particle RhoCI density.

 Excited State   2:      Singlet-A      1.7017 eV  728.58 nm  f=0.3911  <S**2>=0.000
     310 -> 316        0.18700
     312 -> 314        0.68382
     310 <- 316        0.11025

 Excited State   3:      Singlet-A      2.1859 eV  567.19 nm  f=0.1038  <S**2>=0.000
     309 -> 313        0.63555
     311 -> 315        0.29758

 Excited State   4:      Singlet-A      2.1898 eV  566.19 nm  f=0.1083  <S**2>=0.000
     310 -> 314        0.64236
     312 -> 316       -0.28248

 Excited State   5:      Singlet-A      3.0572 eV  405.55 nm  f=0.0000  <S**2>=0.000
     312 -> 313        0.70711

 The electronic state is 1-A.
 Alpha  occ. eigenvalues --  -46.89995 -46.88961 -19.24891 -19.24736 -19.20026
 Alpha  occ. eigenvalues --  -19.19580 -19.19385 -19.18632 -19.18376 -19.17397
 Alpha  occ. eigenvalues --  -14.42344 -14.42216 -14.41948 -14.41782 -14.40286
 Alpha  occ. eigenvalues --  -14.39497 -14.39187 -14.38810 -10.39119 -10.39111
 Alpha  occ. eigenvalues --  -10.35729 -10.34799 -10.34229 -10.33721 -10.31700
 Alpha  occ. eigenvalues --  -10.31639 -10.31628 -10.31590 -10.31587 -10.31258
 Alpha  occ. eigenvalues --  -10.31126 -10.31081 -10.31069 -10.30887 -10.30712
 Alpha  occ. eigenvalues --  -10.30491 -10.30365 -10.29884 -10.29588 -10.29447
 Alpha  occ. eigenvalues --  -10.29110 -10.29016 -10.29006 -10.28674 -10.28591
 Alpha  occ. eigenvalues --  -10.28573 -10.28565 -10.28391 -10.28336 -10.28236
 Alpha  occ. eigenvalues --  -10.28183 -10.28142 -10.28041 -10.27987 -10.27928
 Alpha  occ. eigenvalues --  -10.27832 -10.27830 -10.27657 -10.27559 -10.27378
 Alpha  occ. eigenvalues --  -10.27366 -10.27312 -10.27297 -10.27226 -10.27195
 Alpha  occ. eigenvalues --  -10.27158 -10.27027 -10.26812 -10.26781 -10.26722
 Alpha  occ. eigenvalues --  -10.26564 -10.26537 -10.26486 -10.26458 -10.26351
 Alpha  occ. eigenvalues --  -10.26259 -10.26241 -10.26131 -10.25568 -10.25394
 Alpha  occ. eigenvalues --  -10.25202 -10.25106 -10.24972 -10.24881 -10.24880
 Alpha  occ. eigenvalues --  -10.24740  -3.18304  -3.17450  -1.93177  -1.92768
 Alpha  occ. eigenvalues --   -1.92595  -1.92353  -1.91914  -1.91740  -1.16290
 Alpha  occ. eigenvalues --   -1.15470  -1.12900  -1.10076  -1.09859  -1.09211
 Alpha  occ. eigenvalues --   -1.08539  -1.06730  -1.05003  -1.04222  -1.03820
 Alpha  occ. eigenvalues --   -1.03141  -1.03006  -1.02483  -1.01836  -1.01590
 Alpha  occ. eigenvalues --   -0.92671  -0.91614  -0.90782  -0.89612  -0.89306
 Alpha  occ. eigenvalues --   -0.89068  -0.88880  -0.88258  -0.87727  -0.87372
 Alpha  occ. eigenvalues --   -0.87260  -0.87175  -0.86314  -0.86095  -0.85281
 Alpha  occ. eigenvalues --   -0.84561  -0.84004  -0.83659  -0.83475  -0.82590
 Alpha  occ. eigenvalues --   -0.82529  -0.81998  -0.81428  -0.80842  -0.80840
 Alpha  occ. eigenvalues --   -0.80402  -0.78687  -0.78286  -0.77994  -0.77158
 Alpha  occ. eigenvalues --   -0.77138  -0.77100  -0.76326  -0.75854  -0.75401
 Alpha  occ. eigenvalues --   -0.74652  -0.73427  -0.72328  -0.72051  -0.71469
 Alpha  occ. eigenvalues --   -0.69815  -0.69355  -0.69276  -0.69125  -0.68204
 Alpha  occ. eigenvalues --   -0.68011  -0.67534  -0.66907  -0.66484  -0.65949
 Alpha  occ. eigenvalues --   -0.65292  -0.64920  -0.64701  -0.64305  -0.64139
 Alpha  occ. eigenvalues --   -0.64012  -0.62052  -0.61706  -0.60757  -0.60028
 Alpha  occ. eigenvalues --   -0.59553  -0.59515  -0.59482  -0.58979  -0.58805
 Alpha  occ. eigenvalues --   -0.58349  -0.57998  -0.57934  -0.57431  -0.57386
 Alpha  occ. eigenvalues --   -0.56423  -0.56148  -0.55917  -0.55880  -0.55498
 Alpha  occ. eigenvalues --   -0.55390  -0.55161  -0.55054  -0.54585  -0.54452
 Alpha  occ. eigenvalues --   -0.54262  -0.54060  -0.53724  -0.53346  -0.53211
 Alpha  occ. eigenvalues --   -0.52848  -0.52768  -0.52567  -0.52376  -0.52308
 Alpha  occ. eigenvalues --   -0.52113  -0.51759  -0.51729  -0.51698  -0.51302
 Alpha  occ. eigenvalues --   -0.51248  -0.51196  -0.50932  -0.50829  -0.50617
 Alpha  occ. eigenvalues --   -0.50431  -0.50298  -0.50033  -0.50025  -0.49674
 Alpha  occ. eigenvalues --   -0.49521  -0.49404  -0.49203  -0.49137  -0.48983
 Alpha  occ. eigenvalues --   -0.48867  -0.48770  -0.48596  -0.48578  -0.48527
 Alpha  occ. eigenvalues --   -0.48340  -0.47696  -0.47637  -0.47208  -0.47150
 Alpha  occ. eigenvalues --   -0.47138  -0.47017  -0.46807  -0.46765  -0.46617
 Alpha  occ. eigenvalues --   -0.46332  -0.46225  -0.46029  -0.45782  -0.45756
 Alpha  occ. eigenvalues --   -0.45555  -0.45429  -0.45323  -0.44951  -0.44630
 Alpha  occ. eigenvalues --   -0.44604  -0.44562  -0.44497  -0.44332  -0.44089
 Alpha  occ. eigenvalues --   -0.44064  -0.43717  -0.43701  -0.43643  -0.43446
 Alpha  occ. eigenvalues --   -0.43248  -0.43248  -0.43079  -0.43000  -0.42983
 Alpha  occ. eigenvalues --   -0.42931  -0.42611  -0.42582  -0.42342  -0.42102
 Alpha  occ. eigenvalues --   -0.42036  -0.41828  -0.41680  -0.41603  -0.41463
 Alpha  occ. eigenvalues --   -0.41350  -0.41186  -0.40875  -0.40690  -0.40596
 Alpha  occ. eigenvalues --   -0.40280  -0.40129  -0.39228  -0.39193  -0.38964
 Alpha  occ. eigenvalues --   -0.38504  -0.38119  -0.37907  -0.37754  -0.37386
 Alpha  occ. eigenvalues --   -0.37350  -0.36990  -0.36903  -0.36402  -0.36339
 Alpha  occ. eigenvalues --   -0.35910  -0.35718  -0.34624  -0.34365  -0.33732
 Alpha  occ. eigenvalues --   -0.33558  -0.33153  -0.33046  -0.31794  -0.31400
 Alpha  occ. eigenvalues --   -0.30839  -0.30696  -0.30610  -0.29898  -0.29831
 Alpha  occ. eigenvalues --   -0.29673  -0.29457  -0.29344  -0.24326  -0.23825
 Alpha  occ. eigenvalues --   -0.21592  -0.21055
 Alpha virt. eigenvalues --   -0.09180  -0.08643  -0.02529  -0.01625   0.00232
 Alpha virt. eigenvalues --    0.00314   0.01156   0.02331   0.02513   0.02657
 Alpha virt. eigenvalues --    0.04066   0.04509   0.04975   0.05440   0.05689

 Mulliken charges:
               1
     1  Mg   0.817865
     2  C   -0.011201
     3  C   -0.048698
     4  C   -0.055567
     5  C   -0.096278
     6  N   -0.298087
     7  C   -0.057219
     8  C    0.017542
     9  C   -0.086237
    10  C    0.071775
    11  C    0.069644
    12  C    0.007531
    13  C   -0.067061
    14  H    0.036304
    15  N   -0.428104
    16  C    0.123547
    17  C   -0.120413
    18  C   -0.043132
    19  C    0.090950
    20  C    0.083036
    21  C    0.006700
    22  O   -0.165881
    23  C    0.045763
    24  N   -0.240939
    25  C    0.047259
    26  C   -0.014244
    27  C   -0.001800
    28  C   -0.021704
    29  C    0.084120
    30  C    0.000183
    31  C    0.023696
    32  N   -0.309237
    33  C    0.157999
    34  C   -0.178987
    35  C    0.018066
    36  C    0.070975
    37  C    0.109133
    38  C    0.054894
    39  O   -0.173439
    40  C    0.002873
    41  C    0.190153
    42  O   -0.197561
    43  O   -0.349876
    44  C    0.157922
    45  H   -0.041361
    46  H   -0.000502
    47  H   -0.031334
    48  H    0.022151
    49  H    0.017483
    50  H    0.020956
    51  H    0.027886
    52  H    0.010826
    53  H    0.005493
    54  H    0.023777
    55  H    0.015072
    56  H    0.032484
    57  H    0.014268
    58  H    0.031690
    59  H    0.035823
    60  H    0.041882
    61  H    0.048334
    62  H    0.015539
    63  H    0.012523
    64  H    0.008285
    65  H    0.023027
    66  H    0.012821
    67  H    0.018958
    68  H   -0.001830
    69  H   -0.002384
    70  H    0.016605
    71  H    0.009337
    72  H    0.016380
    73  H    0.022599
    74  H    0.027233
    75  H    0.029729
    76  H    0.040642
    77  H    0.033788
    78  H    0.050158
    79  H    0.069393
    80  Mg   0.816001
    81  C    0.061242
    82  C   -0.041721
    83  C   -0.115228
    84  C   -0.090471
    85  N   -0.274162
    86  C   -0.072843
    87  C    0.029100
    88  C   -0.105827
    89  C    0.020225
    90  C    0.061874
    91  C    0.063542
    92  C   -0.082815
    93  H    0.022974
    94  N   -0.454293
    95  C    0.183559
    96  C   -0.155246
    97  C   -0.020249
    98  C    0.249198
    99  C    0.147978
   100  C   -0.059480
   101  O   -0.208377
   102  C    0.069712
   103  N   -0.300498
   104  C    0.044361
   105  C   -0.028488
   106  C   -0.022881
   107  C    0.032458
   108  C    0.076703
   109  C    0.046887
   110  C    0.037668
   111  N   -0.321502
   112  C    0.100606
   113  C   -0.177564
   114  C    0.038594
   115  C    0.077983
   116  C    0.134569
   117  C    0.030836
   118  O   -0.149649
   119  C   -0.065438
   120  C    0.186046
   121  O   -0.240189
   122  O   -0.329529
   123  C    0.188559
   124  H   -0.024507
   125  H   -0.026434
   126  H   -0.025927
   127  H    0.025416
   128  H    0.016568
   129  H    0.017408
   130  H    0.029709
   131  H    0.010086
   132  H    0.027900
   133  H    0.028720
   134  H    0.041898
   135  H    0.032848
   136  H   -0.022422
   137  H    0.032768
   138  H    0.041412
   139  H    0.021173
   140  H    0.040054
   141  H    0.031095
   142  H    0.007566
   143  H    0.001027
   144  H    0.012648
   145  H    0.023868
   146  H    0.005952
   147  H    0.014794
   148  H   -0.004803
   149  H    0.004492
   150  H    0.009386
   151  H    0.010873
   152  H    0.014709
   153  H    0.043123
   154  H    0.027830
   155  H    0.023720
   156  H    0.040275
   157  H    0.029969
   158  H    0.032580
 Sum of Mulliken charges =  -0.00000

 Dipole moment (field-independent basis, Debye):
    X=              3.0993    Y=             -4.5380    Z=             -0.4051  Tot=              5.5103
 Quadrupole moment (field-independent basis, Debye-Ang):
   XX=           -456.3224   YY=           -578.0114   ZZ=           -481.7291
   XY=            147.3022   XZ=             39.7630   YZ=              3.7729

 Normal termination of Gaussian 16 at Wed Sep 15 03:47:47 2021.
