 Gaussian 16, Revision A.03,
 Gaussian 16:  ES64L-G16RevA.03 25-Dec-2016

 -----------------------------------
 #p cam-b3lyp/Def2SVP td=(nstates=5)
 -----------------------------------

 --------------------------------
 TDDFT excited states in gaussian
 --------------------------------
 Symbolic Z-matrix:
 Charge =  0 Multiplicity = 1

                         Standard orientation:
 ---------------------------------------------------------------------
 Center     Atomic      Atomic             Coordinates (Angstroms)
 Number     Number       Type             X           Y           Z
 ---------------------------------------------------------------------
      1         12           0       20.971374    0.700609   -0.399227
      2          6           0       21.420621   -2.600112    0.472383
      3          6           0       17.764581    0.497065    0.758072
      4          6           0       21.034582    3.987374   -0.073808
      5          6           0       24.304106    0.742337   -1.503149
      6          7           0       19.941243   -0.791537    0.933960
      7          6           0       20.220557   -2.120440    0.937442
      8          6           0       19.120594   -2.943135    1.540495
      9          6           0       17.894087   -2.032365    1.210006
     10          6           0       18.560873   -0.707246    0.871555
     11          6           0       16.979791   -2.621014    0.097546
     12          6           0       19.302912   -3.133355    3.129368
     13          6           0       18.823250   -4.543335    3.711068
     14          1           0       17.733111   -4.282373    4.720788
     15          7           0       19.509000    2.055683    0.068194
     16          6           0       18.286952    1.836292    0.601131
     17          6           0       17.607438    3.097698    0.868163
     18          6           0       18.538525    4.121576    0.598018
     19          6           0       19.767485    3.390848    0.179007
     20          6           0       16.160919    3.127959    1.418563
     21          6           0       18.288881    5.563443    0.942380
     22          8           0       17.222223    5.888933    1.394642
     23          6           0       19.331581    6.689536    0.807152
     24          7           0       22.418830    2.229405   -0.860124
     25          6           0       22.203767    3.446828   -0.624662
     26          6           0       23.394676    4.308232   -0.829660
     27          6           0       24.483448    3.272364   -1.314945
     28          6           0       23.729059    2.017195   -1.230134
     29          6           0       23.083534    5.510805   -1.783509
     30          6           0       25.777580    3.276714   -0.376394
     31          6           0       27.097311    2.657656   -0.959830
     32          7           0       22.544753   -0.620567   -0.595062
     33          6           0       23.799705   -0.477421   -1.158545
     34          6           0       24.462199   -1.749115   -1.247178
     35          6           0       23.519533   -2.655056   -0.646358
     36          6           0       22.451401   -1.909084   -0.186764
     37          6           0       25.807141   -2.044479   -1.828762
     38          6           0       23.291206   -4.025638   -0.342990
     39          8           0       23.932930   -5.073831   -0.489739
     40          6           0       22.016460   -4.023424    0.564226
     41          6           0       21.150701   -5.140714    0.085366
     42          8           0       21.148545   -6.286371    0.557251
     43          8           0       20.407281   -4.724069   -0.984234
     44          6           0       19.586798   -5.865708   -1.477522
     45          1           0       16.693062    0.511100    0.969873
     46          1           0       21.043778    5.064882    0.100068
     47          1           0       25.374501    0.784072   -1.718753
     48          1           0       19.108066   -3.847628    0.933666
     49          1           0       17.253400   -1.967379    2.089591
     50          1           0       15.998293   -2.839712    0.517188
     51          1           0       17.405184   -3.583190   -0.189560
     52          1           0       16.986161   -1.919366   -0.735984
     53          1           0       18.900072   -2.340526    3.759459
     54          1           0       20.355665   -3.058052    3.399752
     55          1           0       19.693136   -4.914632    4.253066
     56          1           0       18.557050   -5.349256    3.027064
     57          1           0       16.043687    3.638218    2.374521
     58          1           0       15.692563    2.145842    1.492204
     59          1           0       15.550214    3.624144    0.665017
     60          1           0       19.634398    6.874394   -0.222975
     61          1           0       20.217792    6.543042    1.425135
     62          1           0       18.873037    7.545079    1.303954
     63          1           0       23.630986    4.648433    0.178480
     64          1           0       24.806576    3.308088   -2.355059
     65          1           0       23.293371    6.420483   -1.221303
     66          1           0       22.051787    5.495345   -2.135197
     67          1           0       23.804562    5.637839   -2.590875
     68          1           0       25.567071    2.745154    0.551871
     69          1           0       25.943935    4.323621   -0.126852
     70          1           0       28.001874    3.256169   -1.064223
     71          1           0       26.938912    2.315406   -1.981597
     72          1           0       27.397060    1.789698   -0.372524
     73          1           0       26.291762   -1.236018   -2.375799
     74          1           0       25.538881   -2.887512   -2.464222
     75          1           0       26.315108   -2.417309   -0.939248
     76          1           0       22.223473   -4.132773    1.629322
     77          1           0       20.239758   -6.606591   -1.937763
     78          1           0       18.959600   -5.597643   -2.327765
     79          1           0       18.999007   -6.235315   -0.637029
     80         12           0      -21.618994    0.316819   -0.349873
     81          6           0      -18.578143   -1.335637   -0.009249
     82          6           0      -23.191218   -2.767951   -0.160188
     83          6           0      -24.574627    1.777259   -0.112058
     84          6           0      -19.978773    3.347037   -0.024317
     85          7           0      -20.986561   -1.776551    0.047781
     86          6           0      -19.684261   -2.231294    0.014373
     87          6           0      -19.590177   -3.728426    0.007372
     88          6           0      -21.066598   -4.139657   -0.424327
     89          6           0      -21.825667   -2.851616   -0.134458
     90          6           0      -21.372436   -4.875314   -1.814422
     91          6           0      -19.044950   -4.386958    1.358325
     92          6           0      -19.375901   -3.667927    2.699931
     93          1           0      -19.755175   -4.599066    3.826312
     94          7           0      -23.615421   -0.384318   -0.042937
     95          6           0      -24.053590   -1.713952   -0.006889
     96          6           0      -25.467440   -1.796968    0.237605
     97          6           0      -25.912561   -0.454187    0.281040
     98          6           0      -24.709036    0.404185    0.069667
     99          6           0      -26.192212   -3.138989    0.123064
    100          6           0      -27.403259   -0.096867    0.479215
    101          8           0      -28.259475   -0.958138    0.704759
    102          6           0      -27.750197    1.324269    0.327096
    103          7           0      -22.129386    2.285720    0.019397
    104          6           0      -23.444238    2.654592   -0.209903
    105          6           0      -23.640505    4.185824   -0.260066
    106          6           0      -22.141218    4.616678    0.013224
    107          6           0      -21.373823    3.370799    0.056828
    108          6           0      -24.215897    4.813668   -1.490179
    109          6           0      -21.958154    5.403170    1.408340
    110          6           0      -21.109064    6.634652    1.229509
    111          7           0      -19.639627    0.962657   -0.264653
    112          6           0      -19.125732    2.239396   -0.132934
    113          6           0      -17.647895    2.182563   -0.058235
    114          6           0      -17.384342    0.769416   -0.009658
    115          6           0      -18.614671    0.113236   -0.132202
    116          6           0      -16.662158    3.242759    0.223116
    117          6           0      -16.376344   -0.297205    0.169294
    118          8           0      -15.194051   -0.202569    0.405118
    119          6           0      -17.097777   -1.682923    0.135303
    120          6           0      -16.518977   -2.531594   -0.906935
    121          8           0      -15.938306   -3.613476   -0.815464
    122          8           0      -16.474455   -1.751674   -2.092244
    123          6           0      -15.969663   -2.450964   -3.293280
    124          1           0      -23.624171   -3.752434   -0.352101
    125          1           0      -25.485834    2.366432   -0.233694
    126          1           0      -19.556356    4.353218   -0.003621
    127          1           0      -18.869676   -4.057456   -0.741357
    128          1           0      -21.310763   -4.846311    0.369246
    129          1           0      -20.500211   -5.160955   -2.402145
    130          1           0      -21.937171   -4.265330   -2.519352
    131          1           0      -21.807566   -5.854550   -1.612888
    132          1           0      -17.974289   -4.575765    1.287203
    133          1           0      -19.463038   -5.393038    1.390688
    134          1           0      -20.162792   -2.926924    2.555877
    135          1           0      -18.500624   -3.121914    3.050788
    136          1           0      -27.063012   -3.226012    0.773629
    137          1           0      -25.533294   -3.931537    0.476774
    138          1           0      -26.511311   -3.213770   -0.916764
    139          1           0      -27.649818    1.593837   -0.723842
    140          1           0      -27.116689    1.929433    0.976350
    141          1           0      -28.795257    1.391445    0.629346
    142          1           0      -24.160518    4.476085    0.653160
    143          1           0      -21.861981    5.093317   -0.926405
    144          1           0      -24.060350    5.886458   -1.374861
    145          1           0      -25.296015    4.675150   -1.442278
    146          1           0      -23.769800    4.379289   -2.385623
    147          1           0      -21.532166    4.686132    2.109997
    148          1           0      -22.866039    5.671437    1.950077
    149          1           0      -20.160423    6.461391    1.737039
    150          1           0      -21.472257    7.478377    1.817237
    151          1           0      -20.869466    6.767891    0.174747
    152          1           0      -17.068418    4.246365    0.357430
    153          1           0      -16.023849    3.295792   -0.658158
    154          1           0      -16.320953    2.932340    1.210494
    155          1           0      -16.929164   -2.100887    1.127487
    156          1           0      -16.695189   -2.148972   -4.049473
    157          1           0      -15.885835   -3.537483   -3.318337
    158          1           0      -15.077836   -1.890892   -3.575079
 ---------------------------------------------------------------------

 SCF Done:  E(RCAM-B3LYP) =  -4069.79813906     A.U. after   19 cycles

 Excitation energies and oscillator strengths:

 Excited State   1:      Singlet-A      1.6891 eV  734.01 nm  f=0.3688  <S**2>=0.000
     309 -> 316        0.16429
     312 -> 313        0.68771
     309 <- 316        0.10168
 This state for optimization and/or second-order correction.
 Total Energy, E(TD-HF/TD-DFT) =  -4069.73606477
 Copying the excited state density for this state as the 1-particle RhoCI density.

 Excited State   2:      Singlet-A      1.7179 eV  721.72 nm  f=0.3645  <S**2>=0.000
     310 -> 315        0.18170
     311 -> 314        0.68337
     310 <- 315        0.10497

 Excited State   3:      Singlet-A      2.2043 eV  562.47 nm  f=0.0865  <S**2>=0.000
     310 -> 314        0.62959
     311 -> 315       -0.30510

 Excited State   4:      Singlet-A      2.2121 eV  560.48 nm  f=0.1081  <S**2>=0.000
     309 -> 313        0.64114
     312 -> 316       -0.27959

 Excited State   5:      Singlet-A      3.1666 eV  391.54 nm  f=0.0000  <S**2>=0.000
     311 -> 313        0.70710

 The electronic state is 1-A.
 Alpha  occ. eigenvalues --  -46.89196 -46.89119 -19.25531 -19.24357 -19.20552
 Alpha  occ. eigenvalues --  -19.19496 -19.19037 -19.19013 -19.18835 -19.17873
 Alpha  occ. eigenvalues --  -14.42249 -14.42219 -14.42087 -14.41880 -14.40284
 Alpha  occ. eigenvalues --  -14.39657 -14.39198 -14.38563 -10.39746 -10.38633
 Alpha  occ. eigenvalues --  -10.35730 -10.35132 -10.35119 -10.34045 -10.32288
 Alpha  occ. eigenvalues --  -10.31683 -10.31683 -10.31637 -10.31313 -10.31196
 Alpha  occ. eigenvalues --  -10.30956 -10.30693 -10.30656 -10.30647 -10.30227
 Alpha  occ. eigenvalues --  -10.30206 -10.30092 -10.29941 -10.29367 -10.29345
 Alpha  occ. eigenvalues --  -10.28972 -10.28752 -10.28691 -10.28554 -10.28441
 Alpha  occ. eigenvalues --  -10.28426 -10.28367 -10.28363 -10.28355 -10.28220
 Alpha  occ. eigenvalues --  -10.28185 -10.28174 -10.28138 -10.28088 -10.28011
 Alpha  occ. eigenvalues --  -10.27823 -10.27749 -10.27686 -10.27657 -10.27562
 Alpha  occ. eigenvalues --  -10.27544 -10.27404 -10.27313 -10.27233 -10.27176
 Alpha  occ. eigenvalues --  -10.27151 -10.27142 -10.27141 -10.26981 -10.26973
 Alpha  occ. eigenvalues --  -10.26919 -10.26742 -10.26644 -10.26631 -10.26587
 Alpha  occ. eigenvalues --  -10.26553 -10.26257 -10.26231 -10.26196 -10.26185
 Alpha  occ. eigenvalues --  -10.26069 -10.26034 -10.25974 -10.25767 -10.25400
 Alpha  occ. eigenvalues --  -10.24406  -3.17769  -3.17644  -1.92657  -1.92528
 Alpha  occ. eigenvalues --   -1.92238  -1.92115  -1.92060  -1.91937  -1.15920
 Alpha  occ. eigenvalues --   -1.14832  -1.11930  -1.10375  -1.09385  -1.08079
 Alpha  occ. eigenvalues --   -1.07026  -1.06915  -1.06398  -1.05085  -1.04564
 Alpha  occ. eigenvalues --   -1.03910  -1.03731  -1.03198  -1.02801  -1.02356
 Alpha  occ. eigenvalues --   -0.92478  -0.92471  -0.89707  -0.89669  -0.89235
 Alpha  occ. eigenvalues --   -0.88664  -0.88229  -0.87999  -0.87681  -0.87273
 Alpha  occ. eigenvalues --   -0.86893  -0.86851  -0.86602  -0.86198  -0.84845
 Alpha  occ. eigenvalues --   -0.84469  -0.84273  -0.83780  -0.82734  -0.82399
 Alpha  occ. eigenvalues --   -0.82250  -0.81801  -0.80888  -0.80857  -0.80318
 Alpha  occ. eigenvalues --   -0.80166  -0.78400  -0.78334  -0.77815  -0.77515
 Alpha  occ. eigenvalues --   -0.76860  -0.76778  -0.76231  -0.75945  -0.75762
 Alpha  occ. eigenvalues --   -0.75465  -0.72664  -0.72657  -0.72195  -0.72153
 Alpha  occ. eigenvalues --   -0.70464  -0.69439  -0.69377  -0.69286  -0.68125
 Alpha  occ. eigenvalues --   -0.68102  -0.67719  -0.66841  -0.66798  -0.66427
 Alpha  occ. eigenvalues --   -0.65330  -0.64915  -0.64825  -0.64522  -0.64433
 Alpha  occ. eigenvalues --   -0.64013  -0.62558  -0.62392  -0.60490  -0.60290
 Alpha  occ. eigenvalues --   -0.59596  -0.59392  -0.59157  -0.58956  -0.58776
 Alpha  occ. eigenvalues --   -0.58300  -0.57950  -0.57541  -0.57265  -0.56970
 Alpha  occ. eigenvalues --   -0.56664  -0.56338  -0.56184  -0.55838  -0.55644
 Alpha  occ. eigenvalues --   -0.55362  -0.55113  -0.55015  -0.54623  -0.54115
 Alpha  occ. eigenvalues --   -0.53905  -0.53561  -0.52920  -0.52920  -0.52727
 Alpha  occ. eigenvalues --   -0.52639  -0.52634  -0.52362  -0.52190  -0.51996
 Alpha  occ. eigenvalues --   -0.51949  -0.51677  -0.51630  -0.51208  -0.51161
 Alpha  occ. eigenvalues --   -0.51125  -0.50863  -0.50623  -0.50486  -0.50383
 Alpha  occ. eigenvalues --   -0.50290  -0.50183  -0.49889  -0.49663  -0.49647
 Alpha  occ. eigenvalues --   -0.49566  -0.49284  -0.49114  -0.48915  -0.48836
 Alpha  occ. eigenvalues --   -0.48597  -0.48578  -0.48315  -0.48311  -0.48185
 Alpha  occ. eigenvalues --   -0.47753  -0.47742  -0.47651  -0.47378  -0.47266
 Alpha  occ. eigenvalues --   -0.46931  -0.46897  -0.46787  -0.46516  -0.46286
 Alpha  occ. eigenvalues --   -0.46256  -0.46223  -0.46196  -0.45802  -0.45784
 Alpha  occ. eigenvalues --   -0.45744  -0.45400  -0.45349  -0.45134  -0.45077
 Alpha  occ. eigenvalues --   -0.45005  -0.44990  -0.44705  -0.44661  -0.44637
 Alpha  occ. eigenvalues --   -0.44388  -0.44273  -0.44180  -0.43954  -0.43941
 Alpha  occ. eigenvalues --   -0.43434  -0.43349  -0.43234  -0.43137  -0.43123
 Alpha  occ. eigenvalues --   -0.42891  -0.42763  -0.42580  -0.42493  -0.42157
 Alpha  occ. eigenvalues --   -0.42145  -0.41976  -0.41938  -0.41869  -0.41724
 Alpha  occ. eigenvalues --   -0.41698  -0.41425  -0.41236  -0.41133  -0.40741
 Alpha  occ. eigenvalues --   -0.40472  -0.40041  -0.40006  -0.39595  -0.39118
 Alpha  occ. eigenvalues --   -0.38591  -0.38523  -0.38256  -0.37990  -0.37679
 Alpha  occ. eigenvalues --   -0.37446  -0.36909  -0.36784  -0.36678  -0.36572
 Alpha  occ. eigenvalues --   -0.36457  -0.35670  -0.35168  -0.34938  -0.34813
 Alpha  occ. eigenvalues --   -0.33569  -0.33355  -0.33334  -0.31881  -0.31352
 Alpha  occ. eigenvalues --   -0.31286  -0.31218  -0.30827  -0.30569  -0.30024
 Alpha  occ. eigenvalues --   -0.29971  -0.29670  -0.28930  -0.24155  -0.24110
 Alpha  occ. eigenvalues --   -0.21229  -0.21135
 Alpha virt. eigenvalues --   -0.08770  -0.08680  -0.02261  -0.01773   0.00234
 Alpha virt. eigenvalues --    0.00618   0.01693   0.01701   0.02389   0.02514
 Alpha virt. eigenvalues --    0.04071   0.04652   0.04937   0.05836   0.05938

 Mulliken charges:
               1
     1  Mg   0.827949
     2  C    0.029837
     3  C   -0.080468
     4  C   -0.070091
     5  C   -0.085148
     6  N   -0.279622
     7  C   -0.085669
     8  C    0.013193
     9  C   -0.095839
    10  C    0.097075
    11  C    0.091195
    12  C    0.062610
    13  C   -0.075225
    14  H    0.013499
    15  N   -0.375440
    16  C    0.100315
    17  C   -0.121955
    18  C   -0.020115
    19  C    0.147723
    20  C    0.132994
    21  C   -0.028649
    22  O   -0.181263
    23  C    0.044392
    24  N   -0.219546
    25  C   -0.003962
    26  C   -0.028914
    27  C    0.001899
    28  C   -0.020758
    29  C    0.065845
    30  C    0.026764
    31  C   -0.008589
    32  N   -0.362089
    33  C    0.142926
    34  C   -0.189916
    35  C    0.039470
    36  C    0.070785
    37  C    0.143847
    38  C    0.011166
    39  O   -0.189864
    40  C    0.005500
    41  C    0.179212
    42  O   -0.228211
    43  O   -0.342858
    44  C    0.180403
    45  H   -0.022384
    46  H   -0.067145
    47  H   -0.047037
    48  H    0.007640
    49  H    0.015517
    50  H    0.019196
    51  H    0.006659
    52  H    0.019680
    53  H    0.017325
    54  H    0.008030
    55  H    0.035211
    56  H    0.040865
    57  H    0.046042
    58  H   -0.003564
    59  H    0.028865
    60  H    0.045379
    61  H    0.039457
    62  H    0.024597
    63  H    0.020004
    64  H    0.015915
    65  H    0.008846
    66  H    0.036934
    67  H    0.015467
    68  H    0.016345
    69  H    0.011535
    70  H    0.015972
    71  H    0.015032
    72  H    0.022406
    73  H    0.021489
    74  H    0.042211
    75  H    0.041799
    76  H    0.048094
    77  H    0.046338
    78  H    0.028337
    79  H    0.044532
    80  Mg   0.819879
    81  C   -0.024982
    82  C   -0.097590
    83  C   -0.086977
    84  C   -0.094189
    85  N   -0.283885
    86  C   -0.030023
    87  C   -0.040864
    88  C    0.001976
    89  C    0.000869
    90  C    0.064173
    91  C    0.029229
    92  C   -0.076376
    93  H    0.023212
    94  N   -0.359628
    95  C    0.167007
    96  C   -0.136593
    97  C   -0.064245
    98  C    0.184924
    99  C    0.126746
   100  C    0.000331
   101  O   -0.204507
   102  C    0.054788
   103  N   -0.295344
   104  C   -0.001581
   105  C   -0.033991
   106  C   -0.063472
   107  C    0.012414
   108  C    0.107185
   109  C    0.036505
   110  C    0.030428
   111  N   -0.342689
   112  C    0.151467
   113  C   -0.189607
   114  C   -0.004835
   115  C    0.088713
   116  C    0.130651
   117  C    0.030267
   118  O   -0.149201
   119  C    0.028498
   120  C    0.222602
   121  O   -0.208330
   122  O   -0.379731
   123  C    0.180162
   124  H   -0.029631
   125  H   -0.042310
   126  H   -0.043978
   127  H    0.010508
   128  H    0.006352
   129  H    0.011229
   130  H    0.026798
   131  H    0.022159
   132  H    0.028653
   133  H    0.010457
   134  H    0.047606
   135  H    0.030609
   136  H    0.035841
   137  H    0.016231
   138  H    0.041141
   139  H    0.048733
   140  H    0.044985
   141  H    0.024332
   142  H    0.004684
   143  H    0.008065
   144  H    0.019792
   145  H    0.014493
   146  H    0.025106
   147  H    0.015652
   148  H    0.007069
   149  H    0.005818
   150  H    0.014916
   151  H    0.023367
   152  H   -0.003581
   153  H    0.043697
   154  H    0.053190
   155  H    0.038607
   156  H    0.018954
   157  H    0.058644
   158  H    0.038424
 Sum of Mulliken charges =  -0.00000

 Dipole moment (field-independent basis, Debye):
    X=             -3.0640    Y=              9.1819    Z=             -5.3584  Tot=             11.0638
 Quadrupole moment (field-independent basis, Debye-Ang):
   XX=           -461.8097   YY=           -514.8314   ZZ=           -499.1239
   XY=             81.1331   XZ=             24.3478   YZ=              8.0893

 Normal termination of Gaussian 16 at Thu Sep 16 04:12:10 2021.
