 Gaussian 16, Revision A.03,
 Gaussian 16:  ES64L-G16RevA.03 25-Dec-2016

 ---------------------------------------------------
 #p cam-b3lyp/Def2SVP td=(nstates=5) density=(CIS=1)
 ---------------------------------------------------

 --------------------------------
 TDDFT excited states in gaussian
 --------------------------------
 Symbolic Z-matrix:
 Charge =  0 Multiplicity = 1

                         Standard orientation:
 ---------------------------------------------------------------------
 Center     Atomic      Atomic             Coordinates (Angstroms)
 Number     Number       Type             X           Y           Z
 ---------------------------------------------------------------------
      1         12           0       -0.563453    0.023721   -0.065143
      2          6           0        2.848635    0.373582    0.197761
      3          6           0       -0.371896   -3.341284    0.541037
      4          6           0       -4.053311   -0.269698   -0.143912
      5          6           0       -0.953545    3.447169    0.167325
      6          7           0        1.098589   -1.232937    0.534618
      7          6           0        2.464625   -0.963255    0.415009
      8          6           0        3.310965   -2.180343    0.796687
      9          6           0        2.226402   -3.283241    0.699959
     10          6           0        0.847142   -2.593364    0.671000
     11          6           0        2.487692   -4.291906   -0.439957
     12          6           0        3.938014   -2.039243    2.197851
     13          6           0        5.425062   -2.509126    2.357980
     14          1           0        5.799862   -3.049346    3.682598
     15          7           0       -1.960032   -1.564176    0.110495
     16          6           0       -1.685239   -2.879533    0.265889
     17          6           0       -2.829503   -3.717116    0.064581
     18          6           0       -3.894934   -2.866193   -0.272466
     19          6           0       -3.315817   -1.465721   -0.137449
     20          6           0       -2.790570   -5.246640    0.056426
     21          6           0       -5.366985   -3.285000   -0.630118
     22          8           0       -5.681643   -4.499231   -0.538814
     23          6           0       -6.462620   -2.275112   -1.182693
     24          7           0       -2.275251    1.387627    0.304041
     25          6           0       -3.563298    1.038069    0.068552
     26          6           0       -4.490563    2.224149   -0.001735
     27          6           0       -3.532972    3.426460    0.144036
     28          6           0       -2.166115    2.737631    0.168630
     29          6           0       -5.414876    2.257465   -1.263866
     30          6           0       -3.889722    4.373169    1.387073
     31          6           0       -4.550399    5.703882    1.008869
     32          7           0        0.661075    1.619673    0.083723
     33          6           0        0.398378    3.006131    0.141032
     34          6           0        1.658041    3.744441   -0.019252
     35          6           0        2.609872    2.735798   -0.074001
     36          6           0        1.951283    1.510213    0.118579
     37          6           0        1.910775    5.208407   -0.078999
     38          6           0        4.054240    2.487852   -0.187193
     39          8           0        4.996716    3.225774   -0.518645
     40          6           0        4.268523    0.926385   -0.059139
     41          6           0        4.895298    0.346843   -1.320166
     42          8           0        4.584476    0.579770   -2.492565
     43          8           0        5.913303   -0.424113   -0.842905
     44          6           0        6.822144   -0.982446   -1.830028
     45          1           0       -0.323468   -4.416100    0.727307
     46          1           0       -5.138538   -0.229702   -0.259014
     47          1           0       -1.005977    4.535872    0.231270
     48          1           0        4.125416   -2.297513    0.081043
     49          1           0        2.334635   -3.821196    1.641710
     50          1           0        3.495220   -4.399408   -0.841683
     51          1           0        1.901659   -3.932253   -1.285587
     52          1           0        2.180860   -5.303100   -0.173700
     53          1           0        3.333631   -2.497332    2.980307
     54          1           0        3.809368   -0.987795    2.455902
     55          1           0        6.085955   -1.672438    2.131707
     56          1           0        5.602192   -3.332135    1.664197
     57          1           0       -3.186850   -5.542992   -0.914515
     58          1           0       -3.236277   -5.630378    0.974217
     59          1           0       -1.728004   -5.488550    0.035105
     60          1           0       -6.909559   -1.807634   -0.306088
     61          1           0       -7.204389   -2.885988   -1.696664
     62          1           0       -5.972050   -1.690518   -1.961426
     63          1           0       -5.157352    2.178836    0.859430
     64          1           0       -3.399896    4.050236   -0.739564
     65          1           0       -5.432134    3.245820   -1.722345
     66          1           0       -6.444344    1.980643   -1.037298
     67          1           0       -5.091295    1.485522   -1.960857
     68          1           0       -3.004922    4.678584    1.945447
     69          1           0       -4.489075    3.824584    2.113580
     70          1           0       -5.325658    5.948181    1.735302
     71          1           0       -5.001143    5.622486    0.020011
     72          1           0       -3.858139    6.544422    0.963801
     73          1           0        0.940918    5.705792   -0.090260
     74          1           0        2.652713    5.426751   -0.847339
     75          1           0        2.324600    5.478215    0.893216
     76          1           0        4.863013    0.658636    0.814761
     77          1           0        6.322045   -1.408246   -2.700839
     78          1           0        7.530017   -1.735101   -1.482910
     79          1           0        7.486567   -0.200977   -2.199630
 ---------------------------------------------------------------------

 SCF Done:  E(RCAM-B3LYP) =  -2034.92242103     A.U. after   19 cycles

 Excitation energies and oscillator strengths:

 Excited State   1:      Singlet-A      1.7088 eV  725.55 nm  f=0.0000  <S**2>=0.000
     155 ->158         0.17445
     156 ->157         0.68612
     155 <-158         0.10517
 This state for optimization and/or second-order correction.
 Total Energy, E(TD-HF/TD-DFT) =  -2034.85962237
 Copying the excited state density for this state as the 1-particle RhoCI density.

 Excited State   2:      Singlet-A      2.2476 eV  551.63 nm  f=0.0000  <S**2>=0.000
     155 ->157         0.62543
     156 ->158        -0.31549

 Excited State   3:      Singlet-A      3.4347 eV  360.97 nm  f=0.0000  <S**2>=0.000
     150 ->157        -0.10164
     150 ->159         0.15067
     150 ->161        -0.11392
     151 ->157        -0.26185
     151 ->159         0.18013
     151 ->161        -0.10865
     152 ->157         0.41899
     152 ->159        -0.11476
     155 ->157         0.12487
     156 ->158         0.30790

 Excited State   4:      Singlet-A      3.4827 eV  356.00 nm  f=0.0000  <S**2>=0.000
     153 ->157        -0.24624
     153 ->159        -0.12079
     153 ->161        -0.14592
     154 ->157         0.34918
     155 ->157         0.20226
     156 ->158         0.40684

 Excited State   5:      Singlet-A      3.5465 eV  349.60 nm  f=0.0000  <S**2>=0.000
     150 ->157         0.24586
     150 ->159        -0.12247
     151 ->157         0.15235
     151 ->159        -0.12818
     153 ->157         0.27763
     153 ->159         0.15301
     153 ->161         0.15631
     154 ->157        -0.29915
     155 ->157         0.16129
     156 ->158         0.30939

 The electronic state is 1-A.
 Alpha  occ. eigenvalues --  -46.89181 -19.26369 -19.20271 -19.19692 -19.18453
 Alpha  occ. eigenvalues --  -14.42414 -14.42180 -14.40235 -14.39116 -10.39962
 Alpha  occ. eigenvalues --  -10.36683 -10.34759 -10.32207 -10.32057 -10.31600
 Alpha  occ. eigenvalues --  -10.31192 -10.31100 -10.30486 -10.30407 -10.29682
 Alpha  occ. eigenvalues --  -10.28821 -10.28500 -10.28485 -10.28357 -10.28165
 Alpha  occ. eigenvalues --  -10.28027 -10.28022 -10.27979 -10.27921 -10.27750
 Alpha  occ. eigenvalues --  -10.27718 -10.27618 -10.27478 -10.27302 -10.26995
 Alpha  occ. eigenvalues --  -10.26921 -10.26742 -10.26577 -10.26287 -10.26061
 Alpha  occ. eigenvalues --  -10.25979 -10.25769 -10.24594  -3.17714  -1.92580
 Alpha  occ. eigenvalues --   -1.92156  -1.92044  -1.16844  -1.08624  -1.08367
 Alpha  occ. eigenvalues --   -1.07759  -1.04682  -1.04010  -1.03527  -1.02158
 Alpha  occ. eigenvalues --   -0.91426  -0.88883  -0.88844  -0.88702  -0.87286
 Alpha  occ. eigenvalues --   -0.86994  -0.86399  -0.84320  -0.83903  -0.82514
 Alpha  occ. eigenvalues --   -0.81645  -0.81128  -0.80198  -0.77944  -0.77484
 Alpha  occ. eigenvalues --   -0.76751  -0.75895  -0.75300  -0.72713  -0.71731
 Alpha  occ. eigenvalues --   -0.69203  -0.68976  -0.67892  -0.67258  -0.66136
 Alpha  occ. eigenvalues --   -0.65084  -0.65000  -0.64563  -0.62693  -0.59952
 Alpha  occ. eigenvalues --   -0.59602  -0.58929  -0.58613  -0.57735  -0.57241
 Alpha  occ. eigenvalues --   -0.55973  -0.55764  -0.55351  -0.55023  -0.53772
 Alpha  occ. eigenvalues --   -0.53377  -0.53146  -0.52801  -0.52604  -0.52020
 Alpha  occ. eigenvalues --   -0.51593  -0.51362  -0.51187  -0.51106  -0.50877
 Alpha  occ. eigenvalues --   -0.49949  -0.49469  -0.49335  -0.49062  -0.48517
 Alpha  occ. eigenvalues --   -0.48273  -0.48152  -0.47853  -0.47690  -0.47481
 Alpha  occ. eigenvalues --   -0.47186  -0.46869  -0.46584  -0.46392  -0.46010
 Alpha  occ. eigenvalues --   -0.45575  -0.45258  -0.44780  -0.44440  -0.44126
 Alpha  occ. eigenvalues --   -0.43797  -0.43777  -0.43488  -0.43286  -0.42949
 Alpha  occ. eigenvalues --   -0.42477  -0.42459  -0.42126  -0.41964  -0.41586
 Alpha  occ. eigenvalues --   -0.41155  -0.40803  -0.40610  -0.39721  -0.39367
 Alpha  occ. eigenvalues --   -0.38688  -0.38391  -0.38161  -0.37388  -0.36860
 Alpha  occ. eigenvalues --   -0.36422  -0.34876  -0.34801  -0.33039  -0.31588
 Alpha  occ. eigenvalues --   -0.31205  -0.30500  -0.30459  -0.29842  -0.24206
 Alpha  occ. eigenvalues --   -0.21089
 Alpha virt. eigenvalues --   -0.08588  -0.02029   0.00165   0.01633   0.01973
 Alpha virt. eigenvalues --    0.04981   0.05041   0.06590   0.06986   0.08069
 Alpha virt. eigenvalues --    0.08397   0.08677   0.09256   0.09472   0.10165

 Mulliken charges:
               1
     1  Mg   0.825085
     2  C   -0.108957
     3  C   -0.135184
     4  C   -0.126772
     5  C   -0.093330
     6  N   -0.398479
     7  C   -0.001119
     8  C   -0.006740
     9  C   -0.037421
    10  C    0.125566
    11  C    0.061956
    12  C    0.065715
    13  C   -0.069831
    14  H    0.026166
    15  N   -0.351371
    16  C    0.129605
    17  C   -0.209357
    18  C   -0.073221
    19  C    0.195022
    20  C    0.164794
    21  C   -0.009030
    22  O   -0.241588
    23  C    0.054804
    24  N   -0.314866
    25  C    0.037900
    26  C   -0.020599
    27  C   -0.001848
    28  C    0.105022
    29  C    0.059072
    30  C    0.042556
    31  C   -0.002246
    32  N   -0.350715
    33  C    0.156599
    34  C   -0.179772
    35  C    0.007269
    36  C    0.172221
    37  C    0.152146
    38  C    0.070042
    39  O   -0.198852
    40  C    0.007492
    41  C    0.223408
    42  O   -0.218073
    43  O   -0.326208
    44  C    0.174535
    45  H   -0.017395
    46  H   -0.043054
    47  H   -0.036530
    48  H    0.002616
    49  H    0.006637
    50  H    0.014345
    51  H    0.013229
    52  H    0.016673
    53  H    0.006788
    54  H    0.005879
    55  H    0.043376
    56  H    0.028585
    57  H    0.041363
    58  H    0.046543
    59  H   -0.010283
    60  H    0.058394
    61  H    0.031556
    62  H    0.040098
    63  H    0.023530
    64  H    0.011806
    65  H    0.024918
    66  H    0.012038
    67  H    0.016560
    68  H    0.008442
    69  H    0.005410
    70  H    0.016542
    71  H    0.008861
    72  H    0.019590
    73  H   -0.000713
    74  H    0.052919
    75  H    0.028033
    76  H    0.034888
    77  H    0.037771
    78  H    0.033777
    79  H    0.035411
 Sum of Mulliken charges =  -0.00000

 Dipole moment (field-independent basis, Debye):
    X=             -0.6720    Y=              3.6897    Z=              0.7227  Tot=              3.8194
 Quadrupole moment (field-independent basis, Debye-Ang):
   XX=           -258.0855   YY=           -258.4378   ZZ=           -261.1441
   XY=            -59.5909   XZ=              4.9251   YZ=              6.4731

 Normal termination of Gaussian 16 at Fri Oct  8 19:54:32 2021.
