 Gaussian 16, Revision A.03,
 Gaussian 16:  ES64L-G16RevA.03 25-Dec-2016

 ----------------------------------------------------------
 #p cam-b3lyp/Def2SVP td=(nstates=5) density=(transition=1)
 ----------------------------------------------------------

 --------------------------------
 TDDFT excited states in gaussian
 --------------------------------
 Symbolic Z-matrix:
 Charge =  0 Multiplicity = 1

                         Standard orientation:
 ---------------------------------------------------------------------
 Center     Atomic      Atomic             Coordinates (Angstroms)
 Number     Number       Type             X           Y           Z
 ---------------------------------------------------------------------
      1         12           0        9.226556   -0.322606   -0.251898
      2          6           0        7.176194    2.427865   -0.278399
      3          6           0       11.813799    1.694274    0.745998
      4          6           0       11.341039   -3.070566   -0.328252
      5          6           0        6.702176   -2.222171   -1.680015
      6          7           0        9.511071    1.866568    0.150015
      7          6           0        8.466974    2.747066    0.146731
      8          6           0        8.900139    4.071255    0.554975
      9          6           0       10.410932    3.977687    0.699097
     10          6           0       10.649882    2.418131    0.493051
     11          6           0       11.313847    4.850237   -0.239700
     12          6           0        8.167973    4.545090    1.856491
     13          6           0        7.883868    6.080641    1.995553
     14          1           0        8.854187    7.043705    1.283777
     15          7           0       11.277668   -0.633170    0.272948
     16          6           0       12.157205    0.355231    0.680252
     17          6           0       13.480298   -0.254224    0.924125
     18          6           0       13.355792   -1.677087    0.614685
     19          6           0       11.957198   -1.860516    0.189467
     20          6           0       14.715967    0.510791    1.369311
     21          6           0       14.391262   -2.758373    0.818236
     22          8           0       14.086946   -3.939164    0.574174
     23          6           0       15.785749   -2.520523    1.263087
     24          7           0        9.087098   -2.344056   -0.979089
     25          6           0       10.059827   -3.248646   -0.835323
     26          6           0        9.568646   -4.647283   -1.244316
     27          6           0        7.967355   -4.469840   -1.456709
     28          6           0        7.898136   -2.911840   -1.281743
     29          6           0       10.339380   -5.178053   -2.492203
     30          6           0        7.070604   -5.182457   -0.407506
     31          6           0        6.241863   -6.364262   -0.932778
     32          7           0        7.322752    0.002683   -0.940367
     33          6           0        6.394897   -0.864976   -1.521127
     34          6           0        5.136549   -0.143466   -1.813915
     35          6           0        5.450111    1.153086   -1.342266
     36          6           0        6.777069    1.190128   -0.836448
     37          6           0        3.904469   -0.665948   -2.369341
     38          6           0        4.864473    2.485352   -1.086836
     39          8           0        3.752944    2.914105   -1.249365
     40          6           0        5.984785    3.365516   -0.426616
     41          6           0        6.133165    4.598416   -1.216371
     42          8           0        6.655343    4.562254   -2.342226
     43          8           0        5.791002    5.742628   -0.563019
     44          6           0        6.094896    7.025341   -1.189479
     45          1           0       12.615739    2.363574    1.064431
     46          1           0       12.031640   -3.915135   -0.380347
     47          1           0        5.900445   -2.886971   -2.007920
     48          1           0        8.660422    4.764264   -0.252219
     49          1           0       10.719131    4.104868    1.737507
     50          1           0       10.888489    5.540530   -0.968894
     51          1           0       11.971823    4.177193   -0.788863
     52          1           0       12.046341    5.451895    0.298976
     53          1           0        8.691343    4.159206    2.731375
     54          1           0        7.259353    3.956299    1.980920
     55          1           0        7.852971    6.360098    3.049047
     56          1           0        6.949030    6.383466    1.524808
     57          1           0       14.511957    1.550140    1.624357
     58          1           0       15.459598    0.552585    0.572970
     59          1           0       15.061554    0.134210    2.331880
     60          1           0       16.236546   -3.503736    1.394477
     61          1           0       15.856472   -1.947383    2.188464
     62          1           0       16.293782   -1.883986    0.538439
     63          1           0        9.664134   -5.283620   -0.364414
     64          1           0        7.649923   -4.721311   -2.468627
     65          1           0       10.723511   -6.190552   -2.367436
     66          1           0       11.197895   -4.544326   -2.716227
     67          1           0        9.619692   -5.080765   -3.305376
     68          1           0        6.357027   -4.514684    0.073733
     69          1           0        7.653029   -5.567402    0.429858
     70          1           0        6.754556   -6.817777   -1.781131
     71          1           0        5.285215   -5.974647   -1.279383
     72          1           0        6.046555   -7.010330   -0.077877
     73          1           0        3.045243   -0.027119   -2.166266
     74          1           0        3.664049   -1.668978   -2.017428
     75          1           0        3.967834   -0.573732   -3.453681
     76          1           0        5.557454    3.531570    0.562863
     77          1           0        5.535161    7.221494   -2.104392
     78          1           0        7.169197    7.148364   -1.326422
     79          1           0        5.788945    7.833918   -0.525811
     80         12           0       -8.878437   -1.057027    0.539781
     81          6           0      -10.280121    1.938738   -0.677959
     82          6           0       -7.488544    0.828602    3.080888
     83          6           0       -7.358086   -3.856492    1.767020
     84          6           0      -10.002990   -2.701572   -2.162093
     85          7           0       -8.915316    1.157819    1.157808
     86          6           0       -9.660945    2.188795    0.598947
     87          6           0       -9.650452    3.401962    1.507177
     88          6           0       -8.461400    3.113299    2.494081
     89          6           0       -8.298686    1.631611    2.239397
     90          6           0       -7.166425    3.991729    2.282769
     91          6           0      -10.954268    3.575917    2.300246
     92          6           0      -11.407087    5.024517    2.512096
     93          1           0      -10.572912    5.930745    3.459711
     94          7           0       -7.681987   -1.484648    2.229540
     95          6           0       -7.224923   -0.536532    3.079636
     96          6           0       -6.334635   -1.151294    4.009880
     97          6           0       -6.345116   -2.571893    3.788924
     98          6           0       -7.091832   -2.672762    2.547425
     99          6           0       -5.598670   -0.360294    5.055471
    100          6           0       -5.641075   -3.721866    4.509415
    101          8           0       -5.913581   -4.917496    4.262916
    102          6           0       -4.513585   -3.495864    5.510291
    103          7           0       -8.785489   -2.994102   -0.053611
    104          6           0       -8.040248   -3.998071    0.557341
    105          6           0       -8.132249   -5.241591   -0.266076
    106          6           0       -9.032716   -4.968651   -1.524218
    107          6           0       -9.351304   -3.490164   -1.248959
    108          6           0       -6.765841   -5.931060   -0.559456
    109          6           0      -10.309500   -5.830537   -1.629709
    110          6           0      -10.143814   -7.066832   -2.534463
    111          7           0       -9.866044   -0.555472   -1.098519
    112          6           0      -10.352183   -1.330678   -2.150394
    113          6           0      -11.181739   -0.531655   -3.126704
    114          6           0      -11.111690    0.747435   -2.551239
    115          6           0      -10.372050    0.682353   -1.326846
    116          6           0      -11.869785   -1.050446   -4.376201
    117          6           0      -11.567626    2.112350   -2.766873
    118          8           0      -12.216321    2.611720   -3.687130
    119          6           0      -11.125712    2.900398   -1.461462
    120          6           0      -10.378848    4.147062   -1.975085
    121          8           0       -9.604879    4.190694   -2.909028
    122          8           0      -10.863301    5.264385   -1.297644
    123          6           0      -10.220719    6.509865   -1.717539
    124          1           0       -7.131482    1.438959    3.912781
    125          1           0       -6.925238   -4.811133    2.072477
    126          1           0      -10.223650   -3.277961   -3.062563
    127          1           0       -9.438893    4.344698    1.003205
    128          1           0       -8.690740    3.285745    3.545670
    129          1           0       -7.254610    4.789521    1.544744
    130          1           0       -6.271373    3.468343    1.947393
    131          1           0       -6.908523    4.523886    3.198424
    132          1           0      -10.885534    3.110356    3.283150
    133          1           0      -11.790527    3.117054    1.772403
    134          1           0      -12.452534    5.083783    2.814485
    135          1           0      -11.447354    5.567691    1.568162
    136          1           0       -5.176236    0.450579    4.461872
    137          1           0       -4.758026   -0.839979    5.556581
    138          1           0       -6.231078    0.077661    5.827375
    139          1           0       -3.757531   -2.826831    5.099012
    140          1           0       -4.144892   -4.509746    5.665204
    141          1           0       -4.886015   -3.031712    6.423497
    142          1           0       -8.543617   -6.013684    0.384827
    143          1           0       -8.512688   -5.001490   -2.482475
    144          1           0       -5.981056   -5.302156   -0.138544
    145          1           0       -6.624247   -5.984025   -1.638590
    146          1           0       -6.840224   -6.889651   -0.044878
    147          1           0      -11.128877   -5.162677   -1.894650
    148          1           0      -10.542619   -6.296911   -0.672250
    149          1           0       -9.090683   -7.342495   -2.592856
    150          1           0      -10.413905   -6.944309   -3.583503
    151          1           0      -10.669405   -7.898509   -2.064306
    152          1           0      -12.722956   -1.645179   -4.049395
    153          1           0      -11.267964   -1.701459   -5.010001
    154          1           0      -12.198850   -0.164396   -4.918861
    155          1           0      -11.935631    3.219862   -0.805931
    156          1           0       -9.324427    6.774494   -1.155720
    157          1           0      -11.006474    7.256385   -1.602632
    158          1           0       -9.850337    6.599285   -2.738761
 ---------------------------------------------------------------------

 SCF Done:  E(RCAM-B3LYP) =  -4069.88074380     A.U. after   18 cycles

 Excitation energies and oscillator strengths:

 Excited State   1:      Singlet-A      1.7010 eV  728.91 nm  f=0.4433  <S**2>=0.000
     310 -> 316        0.18528
     311 -> 313        0.67980
     310 <- 316        0.10886
 This state for optimization and/or second-order correction.
 Total Energy, E(TD-HF/TD-DFT) =  -4069.81823499
 Copying the excited state density for this state as the 1-particle RhoCI density.

 Excited State   2:      Singlet-A      1.7301 eV  716.64 nm  f=0.3315  <S**2>=0.000
     309 -> 315       -0.18755
     312 -> 314        0.67831
     309 <- 315       -0.10823

 Excited State   3:      Singlet-A      2.2322 eV  555.44 nm  f=0.0864  <S**2>=0.000
     310 -> 313        0.63500
     311 -> 316       -0.29880

 Excited State   4:      Singlet-A      2.2552 eV  549.76 nm  f=0.0914  <S**2>=0.000
     309 -> 314        0.62455
     312 -> 315        0.31620

 Excited State   5:      Singlet-A      2.8384 eV  436.81 nm  f=0.0000  <S**2>=0.000
     312 -> 313        0.70699

 The electronic state is 1-A.
 Alpha  occ. eigenvalues --  -46.88932 -46.87553 -19.26032 -19.25652 -19.20295
 Alpha  occ. eigenvalues --  -19.19352 -19.19135 -19.19098 -19.19001 -19.18406
 Alpha  occ. eigenvalues --  -14.42577 -14.41873 -14.41769 -14.41185 -14.39799
 Alpha  occ. eigenvalues --  -14.39536 -14.39388 -14.39292 -10.39613 -10.39572
 Alpha  occ. eigenvalues --  -10.35776 -10.35002 -10.34983 -10.34906 -10.32376
 Alpha  occ. eigenvalues --  -10.31364 -10.31340 -10.30956 -10.30773 -10.30697
 Alpha  occ. eigenvalues --  -10.30656 -10.30654 -10.30637 -10.30465 -10.30237
 Alpha  occ. eigenvalues --  -10.30184 -10.30149 -10.30063 -10.29964 -10.29489
 Alpha  occ. eigenvalues --  -10.29379 -10.29197 -10.29124 -10.29018 -10.28742
 Alpha  occ. eigenvalues --  -10.28648 -10.28643 -10.28624 -10.28516 -10.28459
 Alpha  occ. eigenvalues --  -10.28441 -10.28333 -10.28274 -10.28061 -10.27936
 Alpha  occ. eigenvalues --  -10.27817 -10.27779 -10.27570 -10.27528 -10.27458
 Alpha  occ. eigenvalues --  -10.27426 -10.27421 -10.27280 -10.27275 -10.27130
 Alpha  occ. eigenvalues --  -10.27031 -10.26970 -10.26951 -10.26530 -10.26461
 Alpha  occ. eigenvalues --  -10.26364 -10.26317 -10.26269 -10.26140 -10.26113
 Alpha  occ. eigenvalues --  -10.26102 -10.26060 -10.26044 -10.25918 -10.25900
 Alpha  occ. eigenvalues --  -10.25599 -10.25598 -10.25539 -10.25503 -10.25380
 Alpha  occ. eigenvalues --  -10.25298  -3.17355  -3.16336  -1.92277  -1.91795
 Alpha  occ. eigenvalues --   -1.91662  -1.91233  -1.90767  -1.90680  -1.16495
 Alpha  occ. eigenvalues --   -1.16189  -1.11003  -1.09134  -1.08959  -1.08860
 Alpha  occ. eigenvalues --   -1.08063  -1.07179  -1.05169  -1.04616  -1.04096
 Alpha  occ. eigenvalues --   -1.03573  -1.03420  -1.02979  -1.01369  -1.01002
 Alpha  occ. eigenvalues --   -0.92539  -0.92476  -0.89333  -0.89183  -0.88939
 Alpha  occ. eigenvalues --   -0.88319  -0.88213  -0.87748  -0.87394  -0.87236
 Alpha  occ. eigenvalues --   -0.86923  -0.86778  -0.86301  -0.86055  -0.84317
 Alpha  occ. eigenvalues --   -0.83996  -0.83606  -0.83469  -0.82374  -0.82206
 Alpha  occ. eigenvalues --   -0.81915  -0.81656  -0.81266  -0.80898  -0.80597
 Alpha  occ. eigenvalues --   -0.79994  -0.78478  -0.78366  -0.77606  -0.77383
 Alpha  occ. eigenvalues --   -0.77353  -0.77187  -0.76282  -0.76050  -0.74970
 Alpha  occ. eigenvalues --   -0.74931  -0.72640  -0.72590  -0.71570  -0.71552
 Alpha  occ. eigenvalues --   -0.69299  -0.69297  -0.68742  -0.68389  -0.68095
 Alpha  occ. eigenvalues --   -0.68080  -0.67233  -0.66965  -0.65888  -0.65691
 Alpha  occ. eigenvalues --   -0.65482  -0.65423  -0.65075  -0.64403  -0.64374
 Alpha  occ. eigenvalues --   -0.64067  -0.62776  -0.62477  -0.60277  -0.60067
 Alpha  occ. eigenvalues --   -0.59898  -0.59630  -0.59268  -0.58842  -0.58802
 Alpha  occ. eigenvalues --   -0.58414  -0.58269  -0.57650  -0.57411  -0.57330
 Alpha  occ. eigenvalues --   -0.56095  -0.56019  -0.55934  -0.55385  -0.55364
 Alpha  occ. eigenvalues --   -0.55022  -0.54774  -0.54587  -0.54026  -0.53706
 Alpha  occ. eigenvalues --   -0.53488  -0.53409  -0.53054  -0.52963  -0.52831
 Alpha  occ. eigenvalues --   -0.52799  -0.52484  -0.52456  -0.52261  -0.52062
 Alpha  occ. eigenvalues --   -0.51763  -0.51695  -0.51662  -0.51542  -0.51324
 Alpha  occ. eigenvalues --   -0.51222  -0.51129  -0.50396  -0.50242  -0.50142
 Alpha  occ. eigenvalues --   -0.50001  -0.49957  -0.49890  -0.49717  -0.49414
 Alpha  occ. eigenvalues --   -0.49281  -0.49036  -0.48993  -0.48820  -0.48582
 Alpha  occ. eigenvalues --   -0.48521  -0.48406  -0.48165  -0.48162  -0.47985
 Alpha  occ. eigenvalues --   -0.47983  -0.47533  -0.47513  -0.47315  -0.47241
 Alpha  occ. eigenvalues --   -0.47150  -0.46745  -0.46743  -0.46574  -0.46434
 Alpha  occ. eigenvalues --   -0.46321  -0.46185  -0.45911  -0.45813  -0.45751
 Alpha  occ. eigenvalues --   -0.45558  -0.45428  -0.45248  -0.44964  -0.44833
 Alpha  occ. eigenvalues --   -0.44574  -0.44532  -0.44440  -0.44366  -0.44275
 Alpha  occ. eigenvalues --   -0.44256  -0.43845  -0.43641  -0.43526  -0.43504
 Alpha  occ. eigenvalues --   -0.43424  -0.43207  -0.43087  -0.43056  -0.42916
 Alpha  occ. eigenvalues --   -0.42667  -0.42592  -0.42259  -0.42196  -0.41896
 Alpha  occ. eigenvalues --   -0.41853  -0.41676  -0.41521  -0.41513  -0.41203
 Alpha  occ. eigenvalues --   -0.41148  -0.40968  -0.40956  -0.40736  -0.40373
 Alpha  occ. eigenvalues --   -0.40370  -0.40144  -0.40037  -0.39617  -0.39570
 Alpha  occ. eigenvalues --   -0.38634  -0.38223  -0.38221  -0.37850  -0.37522
 Alpha  occ. eigenvalues --   -0.37274  -0.37164  -0.36777  -0.36771  -0.36668
 Alpha  occ. eigenvalues --   -0.36542  -0.36068  -0.35069  -0.34848  -0.34081
 Alpha  occ. eigenvalues --   -0.34020  -0.33158  -0.32762  -0.31452  -0.31174
 Alpha  occ. eigenvalues --   -0.30936  -0.30885  -0.30848  -0.30746  -0.30464
 Alpha  occ. eigenvalues --   -0.30108  -0.29909  -0.29547  -0.23926  -0.23859
 Alpha  occ. eigenvalues --   -0.20986  -0.20846
 Alpha virt. eigenvalues --   -0.08482  -0.08333  -0.01764  -0.01689   0.00081
 Alpha virt. eigenvalues --    0.00500   0.01832   0.02500   0.03038   0.03828
 Alpha virt. eigenvalues --    0.04415   0.04861   0.05134   0.05173   0.05695

 Mulliken charges:
               1
     1  Mg  11.999749
     2  C    6.003123
     3  C    5.999160
     4  C    5.996093
     5  C    6.000233
     6  N    7.001216
     7  C    5.996109
     8  C    6.001632
     9  C    5.999454
    10  C    6.003230
    11  C    5.999758
    12  C    6.000675
    13  C    5.999926
    14  H    0.999921
    15  N    6.998760
    16  C    6.004413
    17  C    6.002914
    18  C    6.001516
    19  C    6.004667
    20  C    5.999466
    21  C    6.001178
    22  O    8.003261
    23  C    5.999515
    24  N    6.998434
    25  C    6.004440
    26  C    5.998780
    27  C    6.001280
    28  C    5.996522
    29  C    5.999567
    30  C    6.001134
    31  C    5.999985
    32  N    7.000984
    33  C    5.995639
    34  C    5.996290
    35  C    5.999971
    36  C    5.995839
    37  C    6.000726
    38  C    5.997811
    39  O    7.996662
    40  C    5.999744
    41  C    5.999875
    42  O    8.000132
    43  O    7.999593
    44  C    6.000087
    45  H    1.001674
    46  H    1.000333
    47  H    0.998172
    48  H    1.000135
    49  H    0.999956
    50  H    1.001772
    51  H    0.999742
    52  H    1.000576
    53  H    0.998649
    54  H    0.999987
    55  H    0.999500
    56  H    1.000408
    57  H    1.002080
    58  H    1.002633
    59  H    1.002210
    60  H    1.001752
    61  H    1.000634
    62  H    1.000975
    63  H    0.999736
    64  H    1.000123
    65  H    1.000267
    66  H    0.999563
    67  H    1.001451
    68  H    0.999406
    69  H    0.998340
    70  H    1.000001
    71  H    1.000020
    72  H    0.998831
    73  H    0.997587
    74  H    0.997200
    75  H    0.998609
    76  H    0.998677
    77  H    1.000423
    78  H    0.999522
    79  H    0.999591
    80  Mg  12.000099
    81  C    6.022260
    82  C    5.981657
    83  C    5.975765
    84  C    6.016103
    85  N    7.005289
    86  C    5.965785
    87  C    6.009723
    88  C    5.988415
    89  C    6.035877
    90  C    5.996461
    91  C    6.003840
    92  C    6.001352
    93  H    0.989829
    94  N    6.991225
    95  C    6.043879
    96  C    6.023591
    97  C    6.015045
    98  C    6.036501
    99  C    5.996298
   100  C    6.010844
   101  O    8.026838
   102  C    5.995992
   103  N    6.993992
   104  C    6.036520
   105  C    5.989298
   106  C    6.012863
   107  C    5.966677
   108  C    5.997867
   109  C    6.004090
   110  C    6.000484
   111  N    7.003056
   112  C    5.958299
   113  C    5.968047
   114  C    5.999215
   115  C    5.964537
   116  C    6.000740
   117  C    5.985155
   118  O    7.969655
   119  C    5.998787
   120  C    5.994024
   121  O    7.997745
   122  O    7.997680
   123  C    6.002972
   124  H    1.009482
   125  H    1.006003
   126  H    0.990288
   127  H    0.999074
   128  H    1.001308
   129  H    1.014459
   130  H    0.999415
   131  H    1.002664
   132  H    0.987092
   133  H    1.007033
   134  H    0.999387
   135  H    1.004091
   136  H    1.016914
   137  H    1.016847
   138  H    1.022423
   139  H    1.006932
   140  H    1.013587
   141  H    1.007763
   142  H    1.001549
   143  H    0.998413
   144  H    0.995090
   145  H    1.011522
   146  H    1.001769
   147  H    1.005997
   148  H    0.989049
   149  H    0.993445
   150  H    1.001726
   151  H    0.995412
   152  H    0.980564
   153  H    0.980545
   154  H    0.986964
   155  H    0.991850
   156  H    0.992589
   157  H    0.996160
   158  H    0.998227
 Sum of Mulliken charges = 624.00000

 Dipole moment (field-independent basis, Debye):
    X=              7.5110    Y=             -2.3620    Z=              8.6871  Tot=             11.7243
 Quadrupole moment (field-independent basis, Debye-Ang):
   XX=            -85.5081   YY=              1.1293   ZZ=              8.6448
   XY=             14.4020   XZ=            -67.0806   YZ=             -9.5298

 Normal termination of Gaussian 16 at Wed Sep 22 22:21:04 2021.
