 Gaussian 16, Revision A.03,
 Gaussian 16:  ES64L-G16RevA.03 25-Dec-2016

 ----------------------------------------------------------
 #p cam-b3lyp/Def2SVP td=(nstates=5) density=(transition=1)
 ----------------------------------------------------------

 --------------------------------
 TDDFT excited states in gaussian
 --------------------------------
 Symbolic Z-matrix:
 Charge =  0 Multiplicity = 1

                         Standard orientation:
 ---------------------------------------------------------------------
 Center     Atomic      Atomic             Coordinates (Angstroms)
 Number     Number       Type             X           Y           Z
 ---------------------------------------------------------------------
      1         12           0       16.558600   -0.611503    0.442313
      2          6           0       15.692391    2.261394   -1.336526
      3          6           0       17.627509    1.271244    2.970073
      4          6           0       18.509398   -3.244905    1.414259
      5          6           0       15.473416   -2.537137   -2.250376
      6          7           0       16.494557    1.548355    0.846466
      7          6           0       16.092232    2.487427   -0.001159
      8          6           0       16.097723    3.875676    0.735375
      9          6           0       16.822921    3.538210    2.060113
     10          6           0       17.028842    2.029083    1.970542
     11          6           0       18.285906    4.194710    2.191330
     12          6           0       14.658143    4.514324    0.994346
     13          6           0       14.637540    5.983369    0.744567
     14          1           0       14.075493    6.916184    1.806263
     15          7           0       17.861598   -0.930666    1.997151
     16          6           0       18.163155   -0.018867    2.973819
     17          6           0       18.850838   -0.716156    4.069456
     18          6           0       19.102921   -2.035771    3.600851
     19          6           0       18.515756   -2.085673    2.251574
     20          6           0       19.293802   -0.006594    5.388676
     21          6           0       19.896463   -3.181781    4.297811
     22          8           0       20.059706   -4.297426    3.816626
     23          6           0       20.467932   -2.914956    5.638886
     24          7           0       16.960124   -2.532929   -0.289895
     25          6           0       17.862792   -3.465949    0.229132
     26          6           0       18.013400   -4.649161   -0.762456
     27          6           0       16.612609   -4.658107   -1.517795
     28          6           0       16.342592   -3.140225   -1.314716
     29          6           0       19.269028   -4.540714   -1.654073
     30          6           0       15.515130   -5.492387   -0.920714
     31          6           0       14.735390   -5.011689    0.266952
     32          7           0       15.563115   -0.309952   -1.341983
     33          6           0       15.215843   -1.164092   -2.363008
     34          6           0       14.565635   -0.459724   -3.470458
     35          6           0       14.817011    0.952746   -3.162843
     36          6           0       15.438418    0.953755   -1.853592
     37          6           0       14.061562   -1.048464   -4.686739
     38          6           0       14.693085    2.324412   -3.640848
     39          8           0       14.327235    2.779911   -4.658839
     40          6           0       15.197720    3.241162   -2.408352
     41          6           0       16.176348    4.320558   -2.796617
     42          8           0       17.398518    4.207913   -2.779765
     43          8           0       15.463000    5.484820   -3.079953
     44          6           0       16.234743    6.683777   -3.454142
     45          1           0       17.858563    1.695783    3.949644
     46          1           0       19.168501   -4.037562    1.775492
     47          1           0       15.069203   -3.205476   -3.013042
     48          1           0       16.715093    4.611917    0.220083
     49          1           0       16.318687    3.840648    2.977907
     50          1           0       18.156656    5.147987    2.704234
     51          1           0       18.769604    4.448557    1.248444
     52          1           0       18.894228    3.532275    2.808258
     53          1           0       14.326667    4.358791    2.021142
     54          1           0       13.841079    4.081465    0.416989
     55          1           0       13.939565    6.079681   -0.086643
     56          1           0       15.564281    6.461164    0.428057
     57          1           0       20.301055    0.363161    5.198839
     58          1           0       19.216693   -0.672210    6.248730
     59          1           0       18.808323    0.954592    5.560909
     60          1           0       20.940120   -1.962907    5.880743
     61          1           0       21.217629   -3.670118    5.873772
     62          1           0       19.751532   -3.225091    6.400139
     63          1           0       18.069660   -5.518784   -0.108340
     64          1           0       16.707680   -4.951418   -2.563124
     65          1           0       19.110519   -4.603140   -2.730696
     66          1           0       20.099292   -5.161823   -1.317189
     67          1           0       19.722095   -3.556571   -1.535834
     68          1           0       15.829224   -6.487293   -0.607429
     69          1           0       14.779400   -5.676910   -1.703632
     70          1           0       13.859229   -4.562796   -0.200614
     71          1           0       15.207971   -4.231076    0.863517
     72          1           0       14.465876   -5.865712    0.889168
     73          1           0       13.178471   -0.466827   -4.951844
     74          1           0       13.759338   -2.067710   -4.447398
     75          1           0       14.807484   -0.975853   -5.477596
     76          1           0       14.316686    3.739967   -2.004506
     77          1           0       16.894378    6.392785   -4.272088
     78          1           0       16.865753    7.012233   -2.628701
     79          1           0       15.709488    7.588489   -3.760699
     80         12           0      -16.292050   -0.638192    0.012866
     81          6           0      -18.444042    1.766518    1.162590
     82          6           0      -13.988049    1.705189   -0.619201
     83          6           0      -14.388249   -3.084997   -1.310705
     84          6           0      -19.011558   -3.041230    0.234126
     85          7           0      -16.358172    1.577098    0.012018
     86          6           0      -17.274226    2.340411    0.620097
     87          6           0      -16.808297    3.885836    0.636376
     88          6           0      -15.356050    3.735796    0.046929
     89          6           0      -15.196706    2.233722   -0.263193
     90          6           0      -15.060847    4.692911   -1.124282
     91          6           0      -16.843630    4.537357    2.047966
     92          6           0      -16.087528    5.889532    2.259731
     93          1           0      -16.948887    7.207577    2.323850
     94          7           0      -14.442312   -0.672334   -0.899420
     95          6           0      -13.613643    0.348205   -0.975437
     96          6           0      -12.368067   -0.108510   -1.573045
     97          6           0      -12.465890   -1.493978   -1.901955
     98          6           0      -13.806292   -1.811396   -1.362203
     99          6           0      -11.197185    0.779779   -1.959866
    100          6           0      -11.501364   -2.411723   -2.645937
    101          8           0      -11.873309   -3.493187   -3.092167
    102          6           0      -10.091287   -1.970761   -2.828606
    103          7           0      -16.676770   -2.760171   -0.510143
    104          6           0      -15.714676   -3.538548   -0.991103
    105          6           0      -16.137665   -5.016059   -1.041514
    106          6           0      -17.498456   -4.947217   -0.353317
    107          6           0      -17.748210   -3.489784   -0.238224
    108          6           0      -16.147357   -5.717509   -2.407872
    109          6           0      -17.618261   -5.827344    0.865033
    110          6           0      -18.678548   -6.982910    0.784496
    111          7           0      -18.247491   -0.684576    0.607548
    112          6           0      -19.222283   -1.730717    0.731466
    113          6           0      -20.426793   -1.249386    1.371412
    114          6           0      -20.102981    0.124101    1.552191
    115          6           0      -18.814802    0.395157    1.073965
    116          6           0      -21.626213   -1.964346    1.885735
    117          6           0      -20.623365    1.275808    2.244787
    118          8           0      -21.574129    1.463582    3.018507
    119          6           0      -19.695796    2.428054    1.950160
    120          6           0      -20.406754    3.387508    0.970429
    121          8           0      -21.083134    3.088329   -0.025578
    122          8           0      -20.154711    4.660784    1.387307
    123          6           0      -20.773209    5.782677    0.612219
    124          1           0      -13.114908    2.346631   -0.755786
    125          1           0      -13.929741   -3.884154   -1.896861
    126          1           0      -19.731487   -3.845088    0.397971
    127          1           0      -17.480252    4.364788   -0.074866
    128          1           0      -14.653480    3.940678    0.854685
    129          1           0      -14.059238    5.089756   -0.962386
    130          1           0      -15.737296    5.547638   -1.133109
    131          1           0      -15.117925    4.169464   -2.078742
    132          1           0      -16.270092    3.862807    2.683663
    133          1           0      -17.875877    4.708450    2.353198
    134          1           0      -15.480524    6.052618    1.368605
    135          1           0      -15.532798    5.835323    3.195813
    136          1           0      -11.385547    1.821512   -1.700322
    137          1           0      -11.030553    0.716505   -3.034919
    138          1           0      -10.273919    0.469757   -1.472058
    139          1           0       -9.763175   -1.652571   -1.838665
    140          1           0       -9.802589   -1.169646   -3.508345
    141          1           0       -9.441134   -2.770649   -3.181338
    142          1           0      -15.444766   -5.577045   -0.415318
    143          1           0      -18.233217   -5.340175   -1.055810
    144          1           0      -15.767818   -6.716044   -2.192541
    145          1           0      -15.570188   -5.148072   -3.136231
    146          1           0      -17.120842   -5.735003   -2.897793
    147          1           0      -17.999507   -5.152398    1.630662
    148          1           0      -16.681045   -6.300554    1.156525
    149          1           0      -19.198155   -6.945517   -0.173325
    150          1           0      -19.409922   -6.803924    1.573231
    151          1           0      -18.299226   -7.982260    0.998315
    152          1           0      -21.464086   -3.041367    1.851872
    153          1           0      -22.406270   -1.776134    1.148945
    154          1           0      -21.760502   -1.586132    2.900185
    155          1           0      -19.528458    2.889715    2.923466
    156          1           0      -20.676595    5.706714   -0.471106
    157          1           0      -20.446743    6.775615    0.919637
    158          1           0      -21.844780    5.699673    0.792929
 ---------------------------------------------------------------------

 SCF Done:  E(RCAM-B3LYP) =  -4069.82014048     A.U. after   19 cycles

 Excitation energies and oscillator strengths:

 Excited State   1:      Singlet-A      1.6810 eV  737.55 nm  f=0.3827  <S**2>=0.000
     309 -> 316        0.17693
     312 -> 314        0.68617
     309 <- 316        0.10850
 This state for optimization and/or second-order correction.
 Total Energy, E(TD-HF/TD-DFT) =  -4069.75836414
 Copying the excited state density for this state as the 1-particle RhoCI density.

 Excited State   2:      Singlet-A      1.7216 eV  720.17 nm  f=0.4005  <S**2>=0.000
     310 -> 315       -0.17572
     311 -> 313        0.68347
     310 <- 315       -0.10315

 Excited State   3:      Singlet-A      2.2559 eV  549.59 nm  f=0.1012  <S**2>=0.000
     309 -> 314        0.63264
     312 -> 316       -0.30594

 Excited State   4:      Singlet-A      2.2690 eV  546.42 nm  f=0.1155  <S**2>=0.000
     310 -> 313        0.63901
     311 -> 315        0.28650

 Excited State   5:      Singlet-A      3.0587 eV  405.34 nm  f=0.0000  <S**2>=0.000
     312 -> 313        0.70708

 The electronic state is 1-A.
 Alpha  occ. eigenvalues --  -46.89190 -46.87973 -19.25625 -19.25074 -19.20153
 Alpha  occ. eigenvalues --  -19.19742 -19.19539 -19.19453 -19.19232 -19.17678
 Alpha  occ. eigenvalues --  -14.42247 -14.42070 -14.41732 -14.41476 -14.40089
 Alpha  occ. eigenvalues --  -14.39338 -14.39280 -14.39278 -10.39745 -10.39555
 Alpha  occ. eigenvalues --  -10.36097 -10.35697 -10.35577 -10.33344 -10.32181
 Alpha  occ. eigenvalues --  -10.31853 -10.31683 -10.31387 -10.30970 -10.30646
 Alpha  occ. eigenvalues --  -10.30639 -10.30491 -10.30385 -10.30312 -10.30055
 Alpha  occ. eigenvalues --  -10.30023 -10.29987 -10.29938 -10.29802 -10.29529
 Alpha  occ. eigenvalues --  -10.29441 -10.29353 -10.28833 -10.28806 -10.28717
 Alpha  occ. eigenvalues --  -10.28583 -10.28435 -10.28387 -10.28358 -10.28347
 Alpha  occ. eigenvalues --  -10.28272 -10.28100 -10.28066 -10.27991 -10.27963
 Alpha  occ. eigenvalues --  -10.27772 -10.27717 -10.27611 -10.27589 -10.27540
 Alpha  occ. eigenvalues --  -10.27494 -10.27131 -10.27027 -10.27026 -10.26949
 Alpha  occ. eigenvalues --  -10.26758 -10.26755 -10.26709 -10.26526 -10.26495
 Alpha  occ. eigenvalues --  -10.26260 -10.26246 -10.26228 -10.26182 -10.26174
 Alpha  occ. eigenvalues --  -10.26141 -10.26107 -10.25983 -10.25859 -10.25716
 Alpha  occ. eigenvalues --  -10.25664 -10.25620 -10.25586 -10.25427 -10.24604
 Alpha  occ. eigenvalues --  -10.24400  -3.17715  -3.16676  -1.92606  -1.92164
 Alpha  occ. eigenvalues --   -1.92028  -1.91580  -1.91107  -1.91003  -1.15560
 Alpha  occ. eigenvalues --   -1.15209  -1.13000  -1.10388  -1.10209  -1.07968
 Alpha  occ. eigenvalues --   -1.07506  -1.06539  -1.05731  -1.05235  -1.04386
 Alpha  occ. eigenvalues --   -1.03877  -1.03632  -1.02957  -1.02923  -1.02190
 Alpha  occ. eigenvalues --   -0.91924  -0.91271  -0.89921  -0.89084  -0.88730
 Alpha  occ. eigenvalues --   -0.88689  -0.88172  -0.88073  -0.87553  -0.87237
 Alpha  occ. eigenvalues --   -0.87157  -0.87003  -0.86951  -0.86357  -0.84233
 Alpha  occ. eigenvalues --   -0.84191  -0.83648  -0.83335  -0.82596  -0.82360
 Alpha  occ. eigenvalues --   -0.82167  -0.81916  -0.81109  -0.81052  -0.80418
 Alpha  occ. eigenvalues --   -0.80041  -0.78536  -0.78297  -0.77558  -0.77323
 Alpha  occ. eigenvalues --   -0.76787  -0.76741  -0.76099  -0.75902  -0.75352
 Alpha  occ. eigenvalues --   -0.74916  -0.72635  -0.72300  -0.71686  -0.71521
 Alpha  occ. eigenvalues --   -0.69445  -0.69279  -0.69113  -0.68550  -0.67808
 Alpha  occ. eigenvalues --   -0.67712  -0.67577  -0.66812  -0.65847  -0.65761
 Alpha  occ. eigenvalues --   -0.64890  -0.64668  -0.64463  -0.64291  -0.64150
 Alpha  occ. eigenvalues --   -0.63945  -0.62637  -0.61856  -0.60731  -0.60200
 Alpha  occ. eigenvalues --   -0.59659  -0.59648  -0.58929  -0.58882  -0.58640
 Alpha  occ. eigenvalues --   -0.58155  -0.57989  -0.57819  -0.57440  -0.57285
 Alpha  occ. eigenvalues --   -0.56311  -0.55858  -0.55661  -0.55577  -0.55401
 Alpha  occ. eigenvalues --   -0.55145  -0.54889  -0.54541  -0.54194  -0.54152
 Alpha  occ. eigenvalues --   -0.53743  -0.53621  -0.53433  -0.53402  -0.53019
 Alpha  occ. eigenvalues --   -0.52801  -0.52575  -0.52564  -0.52220  -0.52167
 Alpha  occ. eigenvalues --   -0.51825  -0.51685  -0.51678  -0.51438  -0.51292
 Alpha  occ. eigenvalues --   -0.51190  -0.51116  -0.50708  -0.50483  -0.50458
 Alpha  occ. eigenvalues --   -0.50228  -0.50123  -0.49970  -0.49791  -0.49694
 Alpha  occ. eigenvalues --   -0.49670  -0.49577  -0.49368  -0.49199  -0.49043
 Alpha  occ. eigenvalues --   -0.48970  -0.48657  -0.48571  -0.48368  -0.48168
 Alpha  occ. eigenvalues --   -0.48042  -0.47853  -0.47795  -0.47659  -0.47303
 Alpha  occ. eigenvalues --   -0.47015  -0.46847  -0.46789  -0.46647  -0.46385
 Alpha  occ. eigenvalues --   -0.46332  -0.46150  -0.46142  -0.45970  -0.45802
 Alpha  occ. eigenvalues --   -0.45559  -0.45250  -0.45005  -0.44986  -0.44699
 Alpha  occ. eigenvalues --   -0.44687  -0.44520  -0.44441  -0.44408  -0.44219
 Alpha  occ. eigenvalues --   -0.44131  -0.44011  -0.43865  -0.43782  -0.43595
 Alpha  occ. eigenvalues --   -0.43380  -0.43302  -0.42923  -0.42854  -0.42761
 Alpha  occ. eigenvalues --   -0.42716  -0.42210  -0.42020  -0.41990  -0.41936
 Alpha  occ. eigenvalues --   -0.41839  -0.41628  -0.41581  -0.41531  -0.41415
 Alpha  occ. eigenvalues --   -0.41239  -0.41098  -0.40841  -0.40551  -0.40429
 Alpha  occ. eigenvalues --   -0.40288  -0.39280  -0.39183  -0.39093  -0.38720
 Alpha  occ. eigenvalues --   -0.38269  -0.38119  -0.37871  -0.37732  -0.37054
 Alpha  occ. eigenvalues --   -0.37034  -0.36682  -0.36641  -0.36586  -0.36207
 Alpha  occ. eigenvalues --   -0.35966  -0.35959  -0.34516  -0.34337  -0.34289
 Alpha  occ. eigenvalues --   -0.34005  -0.33361  -0.32861  -0.31969  -0.31458
 Alpha  occ. eigenvalues --   -0.31275  -0.31110  -0.31067  -0.30593  -0.30078
 Alpha  occ. eigenvalues --   -0.29973  -0.29671  -0.29611  -0.24038  -0.23917
 Alpha  occ. eigenvalues --   -0.21109  -0.20832
 Alpha virt. eigenvalues --   -0.08555  -0.08518  -0.01775  -0.01434   0.00349
 Alpha virt. eigenvalues --    0.00572   0.01889   0.02366   0.02548   0.02734
 Alpha virt. eigenvalues --    0.04510   0.04896   0.05524   0.05676   0.06007

 Mulliken charges:
               1
     1  Mg  12.001346
     2  C    5.969221
     3  C    6.001427
     4  C    6.035123
     5  C    6.000959
     6  N    6.987618
     7  C    6.039821
     8  C    5.988944
     9  C    6.008748
    10  C    5.972087
    11  C    6.007742
    12  C    5.998091
    13  C    5.999843
    14  H    1.006027
    15  N    7.008422
    16  C    5.959132
    17  C    5.978025
    18  C    5.987142
    19  C    5.952386
    20  C    6.002780
    21  C    5.985889
    22  O    7.971503
    23  C    6.010909
    24  N    7.019112
    25  C    5.959166
    26  C    6.004426
    27  C    5.991678
    28  C    6.021650
    29  C    5.999203
    30  C    5.993552
    31  C    5.996148
    32  N    6.994732
    33  C    6.030599
    34  C    6.036467
    35  C    6.005496
    36  C    6.034321
    37  C    5.992828
    38  C    6.013524
    39  O    8.025211
    40  C    6.005050
    41  C    6.002785
    42  O    8.008400
    43  O    7.999982
    44  C    5.997458
    45  H    0.988054
    46  H    0.996490
    47  H    1.015238
    48  H    1.001221
    49  H    0.995302
    50  H    0.989353
    51  H    0.986880
    52  H    1.007712
    53  H    1.008342
    54  H    0.993010
    55  H    0.995390
    56  H    1.001373
    57  H    0.980736
    58  H    0.983063
    59  H    0.981423
    60  H    0.994105
    61  H    0.984642
    62  H    0.988459
    63  H    1.003407
    64  H    1.002214
    65  H    0.987753
    66  H    1.002861
    67  H    1.001389
    68  H    1.012727
    69  H    0.998490
    70  H    0.992819
    71  H    1.013582
    72  H    1.007928
    73  H    1.020410
    74  H    1.017695
    75  H    1.026129
    76  H    1.006006
    77  H    1.000825
    78  H    1.006397
    79  H    1.003605
    80  Mg  12.000073
    81  C    5.999300
    82  C    6.000962
    83  C    6.000249
    84  C    5.999514
    85  N    7.000027
    86  C    6.001136
    87  C    5.999727
    88  C    6.000345
    89  C    5.998790
    90  C    6.000054
    91  C    5.999823
    92  C    6.000007
    93  H    1.000085
    94  N    7.000235
    95  C    5.998383
    96  C    5.999387
    97  C    5.999377
    98  C    5.998915
    99  C    6.000199
   100  C    5.999519
   101  O    7.999153
   102  C    6.000333
   103  N    6.999897
   104  C    5.998866
   105  C    6.000403
   106  C    5.999569
   107  C    6.001173
   108  C    6.000079
   109  C    5.999974
   110  C    5.999973
   111  N    6.999852
   112  C    6.001507
   113  C    6.000883
   114  C    6.000386
   115  C    6.000975
   116  C    5.999906
   117  C    6.000499
   118  O    8.001267
   119  C    5.999991
   120  C    6.000189
   121  O    8.000082
   122  O    8.000078
   123  C    5.999920
   124  H    0.999797
   125  H    0.999660
   126  H    1.000476
   127  H    1.000021
   128  H    0.999954
   129  H    0.999971
   130  H    0.999684
   131  H    1.000017
   132  H    1.000148
   133  H    0.999865
   134  H    1.000166
   135  H    1.000115
   136  H    0.999247
   137  H    0.999215
   138  H    0.999187
   139  H    0.999829
   140  H    0.999486
   141  H    0.999280
   142  H    0.999972
   143  H    1.000025
   144  H    0.999822
   145  H    1.000141
   146  H    0.999656
   147  H    0.999837
   148  H    1.000419
   149  H    1.000064
   150  H    0.999961
   151  H    1.000230
   152  H    1.000658
   153  H    1.000656
   154  H    1.000521
   155  H    1.000387
   156  H    1.000139
   157  H    1.000233
   158  H    1.000101
 Sum of Mulliken charges = 624.00000

 Dipole moment (field-independent basis, Debye):
    X=             -5.9896    Y=              1.0025    Z=             -9.1203  Tot=             10.9572
 Quadrupole moment (field-independent basis, Debye-Ang):
   XX=           -178.3323   YY=              1.8612   ZZ=             -5.1712
   XY=             21.4830   XZ=           -161.0171   YZ=              4.1291

 Normal termination of Gaussian 16 at Tue Sep 21 23:36:08 2021.
