 Gaussian 16, Revision A.03,
 Gaussian 16:  ES64L-G16RevA.03 25-Dec-2016

 -----------------------------------
 #p cam-b3lyp/Def2SVP td=(nstates=5)
 -----------------------------------

 --------------------------------
 TDDFT excited states in gaussian
 --------------------------------
 Symbolic Z-matrix:
 Charge =  0 Multiplicity = 1

                         Standard orientation:
 ---------------------------------------------------------------------
 Center     Atomic      Atomic             Coordinates (Angstroms)
 Number     Number       Type             X           Y           Z
 ---------------------------------------------------------------------
      1         12           0        9.554041    0.588915   -0.043558
      2          6           0        7.882139   -1.808081   -1.884369
      3          6           0        7.799330    2.997937   -1.766326
      4          6           0       10.748801    2.930604    2.167380
      5          6           0       11.185101   -1.882739    1.711935
      6          7           0        7.891157    0.591831   -1.482458
      7          6           0        7.434272   -0.534276   -2.138374
      8          6           0        6.386635   -0.191809   -3.194302
      9          6           0        6.630718    1.353146   -3.372248
     10          6           0        7.439749    1.667743   -2.122413
     11          6           0        7.270652    1.840480   -4.750369
     12          6           0        4.914708   -0.603293   -2.871725
     13          6           0        4.153125   -1.261820   -4.002608
     14          1           0        3.047297   -0.369765   -4.544998
     15          7           0        9.276650    2.639466    0.146969
     16          6           0        8.559886    3.435988   -0.653962
     17          6           0        8.706393    4.827342   -0.262949
     18          6           0        9.522006    4.929430    0.851642
     19          6           0        9.860269    3.472308    1.152827
     20          6           0        7.921987    6.016623   -0.996699
     21          6           0       10.011689    6.244111    1.547569
     22          8           0        9.571687    7.351510    1.127239
     23          6           0       10.929832    6.221631    2.709089
     24          7           0       10.641496    0.520276    1.908703
     25          6           0       11.139989    1.585330    2.493119
     26          6           0       12.243127    1.254308    3.476454
     27          6           0       12.395266   -0.304654    3.468046
     28          6           0       11.411761   -0.620242    2.241593
     29          6           0       13.549128    2.110952    3.503413
     30          6           0       12.033758   -1.141493    4.729346
     31          6           0       12.621162   -2.537405    4.701491
     32          7           0        9.535973   -1.477338   -0.063417
     33          6           0       10.335076   -2.385009    0.669543
     34          6           0       10.075741   -3.706127    0.165708
     35          6           0        9.131752   -3.554212   -0.879053
     36          6           0        8.838377   -2.193790   -0.913112
     37          6           0       10.854685   -4.970803    0.495357
     38          6           0        8.441569   -4.271969   -1.831726
     39          8           0        8.293490   -5.435885   -2.087537
     40          6           0        7.446240   -3.169974   -2.470249
     41          6           0        6.105719   -3.451216   -1.793154
     42          8           0        5.783508   -3.087557   -0.678473
     43          8           0        5.359933   -4.206134   -2.684035
     44          6           0        4.071349   -4.683095   -2.192404
     45          1           0        7.431972    3.806667   -2.401255
     46          1           0       11.103103    3.727834    2.823679
     47          1           0       11.729787   -2.754140    2.081266
     48          1           0        6.698295   -0.662734   -4.126159
     49          1           0        5.684532    1.844423   -3.142456
     50          1           0        7.720204    2.789320   -4.457816
     51          1           0        6.540270    2.138278   -5.503082
     52          1           0        7.986088    1.169418   -5.225490
     53          1           0        4.446338    0.344886   -2.606959
     54          1           0        4.743552   -1.132916   -1.934773
     55          1           0        3.743366   -2.195043   -3.615549
     56          1           0        4.791720   -1.499165   -4.853698
     57          1           0        7.242951    5.704824   -1.791413
     58          1           0        8.625288    6.735220   -1.418841
     59          1           0        7.216983    6.530091   -0.344394
     60          1           0       11.863693    5.737553    2.425054
     61          1           0       10.435556    5.845480    3.604899
     62          1           0       11.259442    7.255840    2.800359
     63          1           0       11.977498    1.348160    4.529620
     64          1           0       13.325442   -0.630735    3.002103
     65          1           0       13.336041    2.997146    2.904032
     66          1           0       14.444882    1.559010    3.216338
     67          1           0       13.810883    2.496887    4.488729
     68          1           0       10.946377   -1.121307    4.800848
     69          1           0       12.393846   -0.537409    5.562061
     70          1           0       12.819322   -2.829414    5.733086
     71          1           0       13.558090   -2.638920    4.152522
     72          1           0       11.855750   -3.237021    4.365561
     73          1           0       10.618151   -5.816103   -0.150942
     74          1           0       10.665960   -5.209822    1.541146
     75          1           0       11.929095   -4.806220    0.412997
     76          1           0        7.473038   -3.193957   -3.560091
     77          1           0        4.232526   -5.389570   -1.377979
     78          1           0        3.467298   -5.114110   -2.990076
     79          1           0        3.522471   -3.852078   -1.750308
     80         12           0       -9.494218    0.428762    0.164623
     81          6           0       -6.827545   -1.850563    0.071894
     82          6           0       -7.549627    2.859794   -1.031270
     83          6           0      -12.048366    2.402263    0.399666
     84          6           0      -11.113705   -1.950500    2.356664
     85          7           0       -7.391030    0.468971   -0.301497
     86          6           0       -6.533303   -0.549648   -0.441251
     87          6           0       -5.165895   -0.081005   -0.867165
     88          6           0       -5.315318    1.492440   -0.815125
     89          6           0       -6.822825    1.632367   -0.728891
     90          6           0       -4.567071    2.275062    0.312343
     91          6           0       -4.852047   -0.551347   -2.378359
     92          6           0       -3.440524   -1.203312   -2.546560
     93          1           0       -3.289112   -1.935762   -3.987733
     94          7           0       -9.821363    2.235939   -0.472774
     95          6           0       -8.895871    3.121207   -0.998629
     96          6           0       -9.602338    4.246274   -1.546526
     97          6           0      -11.008275    4.169104   -1.180453
     98          6           0      -11.068901    2.834412   -0.470332
     99          6           0       -8.790318    5.381366   -2.233933
    100          6           0      -12.241975    5.039637   -1.390390
    101          8           0      -13.410001    4.754828   -1.069669
    102          6           0      -11.941428    6.280799   -2.153612
    103          7           0      -11.210830    0.246425    1.369686
    104          6           0      -12.106276    1.278812    1.237034
    105          6           0      -13.291640    1.100186    2.186339
    106          6           0      -13.158994   -0.399583    2.559834
    107          6           0      -11.726469   -0.730304    2.136515
    108          6           0      -13.227439    2.178231    3.339961
    109          6           0      -14.220229   -1.379403    1.900817
    110          6           0      -14.496380   -2.698616    2.639749
    111          7           0       -9.115481   -1.529716    1.031321
    112          6           0       -9.859961   -2.310503    1.862658
    113          6           0       -9.241730   -3.602529    2.059532
    114          6           0       -8.069189   -3.461546    1.294880
    115          6           0       -8.000394   -2.174296    0.743099
    116          6           0       -9.676374   -4.848266    2.865393
    117          6           0       -6.898764   -4.176795    0.868856
    118          8           0       -6.566605   -5.331528    0.930914
    119          6           0       -5.956061   -3.060923    0.177632
    120          6           0       -5.491864   -3.791521   -1.004663
    121          8           0       -6.066901   -3.955570   -2.110317
    122          8           0       -4.290588   -4.284667   -0.657391
    123          6           0       -3.573182   -5.110506   -1.629694
    124          1           0       -6.945391    3.635198   -1.507080
    125          1           0      -12.940155    3.032499    0.418810
    126          1           0      -11.690235   -2.667235    2.945187
    127          1           0       -4.338459   -0.451575   -0.261442
    128          1           0       -5.054629    2.028655   -1.727798
    129          1           0       -5.318042    2.657778    1.003459
    130          1           0       -4.073694    3.101773   -0.198463
    131          1           0       -3.845221    1.740756    0.929047
    132          1           0       -4.975726    0.210048   -3.149383
    133          1           0       -5.663644   -1.222448   -2.659710
    134          1           0       -3.266862   -1.945558   -1.767723
    135          1           0       -2.603987   -0.504942   -2.549434
    136          1           0       -8.709381    5.139965   -3.292885
    137          1           0       -7.727189    5.368463   -1.990621
    138          1           0       -9.046556    6.406384   -1.967035
    139          1           0      -11.556485    6.113949   -3.159013
    140          1           0      -11.240376    6.788329   -1.489889
    141          1           0      -12.792650    6.956052   -2.245006
    142          1           0      -14.175070    1.299588    1.579656
    143          1           0      -13.304479   -0.515188    3.633839
    144          1           0      -12.936575    1.708028    4.279242
    145          1           0      -14.132133    2.731864    3.589857
    146          1           0      -12.457281    2.944857    3.252329
    147          1           0      -13.717570   -1.691874    0.985102
    148          1           0      -15.201055   -0.971073    1.656256
    149          1           0      -14.162392   -3.566517    2.069673
    150          1           0      -15.517727   -2.938277    2.936285
    151          1           0      -13.832822   -2.686728    3.503278
    152          1           0      -10.339778   -4.476601    3.646331
    153          1           0       -8.813582   -5.358595    3.295519
    154          1           0      -10.235875   -5.478399    2.174104
    155          1           0       -5.093706   -2.865612    0.815293
    156          1           0       -2.703593   -4.554282   -1.979300
    157          1           0       -4.230090   -5.495062   -2.409153
    158          1           0       -3.145929   -5.962409   -1.100862
 ---------------------------------------------------------------------

 SCF Done:  E(RCAM-B3LYP) =  -4069.80243716     A.U. after   18 cycles

 Excitation energies and oscillator strengths:

 Excited State   1:      Singlet-A      1.7268 eV  717.99 nm  f=0.3500  <S**2>=0.000
     310 -> 315        0.19726
     312 -> 314        0.68060
     310 <- 315        0.11055
 This state for optimization and/or second-order correction.
 Total Energy, E(TD-HF/TD-DFT) =  -4069.73897800
 Copying the excited state density for this state as the 1-particle RhoCI density.

 Excited State   2:      Singlet-A      1.8634 eV  665.36 nm  f=0.3842  <S**2>=0.000
     309 -> 316        0.14282
     311 -> 313        0.68768

 Excited State   3:      Singlet-A      2.2494 eV  551.20 nm  f=0.0714  <S**2>=0.000
     310 -> 314        0.61436
     312 -> 315       -0.33387

 Excited State   4:      Singlet-A      2.2637 eV  547.70 nm  f=0.1233  <S**2>=0.000
     309 -> 313        0.64371
     311 -> 316       -0.24591
     311 -> 318        0.10290

 Excited State   5:      Singlet-A      2.9093 eV  426.16 nm  f=0.0000  <S**2>=0.000
     312 -> 313        0.70699

 The electronic state is 1-A.
 Alpha  occ. eigenvalues --  -46.89505 -46.87534 -19.24826 -19.24632 -19.20333
 Alpha  occ. eigenvalues --  -19.19987 -19.19639 -19.18991 -19.18386 -19.17812
 Alpha  occ. eigenvalues --  -14.42559 -14.42413 -14.42159 -14.41692 -14.40659
 Alpha  occ. eigenvalues --  -14.39421 -14.38589 -14.38366 -10.39200 -10.38527
 Alpha  occ. eigenvalues --  -10.37139 -10.35964 -10.34614 -10.33495 -10.33176
 Alpha  occ. eigenvalues --  -10.32512 -10.31830 -10.31672 -10.31265 -10.31188
 Alpha  occ. eigenvalues --  -10.31154 -10.30974 -10.30749 -10.30567 -10.30450
 Alpha  occ. eigenvalues --  -10.30238 -10.30076 -10.30004 -10.29914 -10.29904
 Alpha  occ. eigenvalues --  -10.29432 -10.29274 -10.29192 -10.28680 -10.28543
 Alpha  occ. eigenvalues --  -10.28506 -10.28489 -10.28449 -10.28430 -10.28328
 Alpha  occ. eigenvalues --  -10.28164 -10.28147 -10.27825 -10.27798 -10.27703
 Alpha  occ. eigenvalues --  -10.27701 -10.27678 -10.27651 -10.27644 -10.27572
 Alpha  occ. eigenvalues --  -10.27524 -10.27334 -10.27293 -10.27274 -10.27255
 Alpha  occ. eigenvalues --  -10.27051 -10.27048 -10.26999 -10.26932 -10.26886
 Alpha  occ. eigenvalues --  -10.26877 -10.26769 -10.26603 -10.26553 -10.26455
 Alpha  occ. eigenvalues --  -10.26399 -10.26220 -10.26096 -10.26037 -10.25868
 Alpha  occ. eigenvalues --  -10.25840 -10.25784 -10.25369 -10.25330 -10.24399
 Alpha  occ. eigenvalues --  -10.23200  -3.17943  -3.16377  -1.92827  -1.92405
 Alpha  occ. eigenvalues --   -1.92247  -1.91262  -1.90844  -1.90692  -1.15894
 Alpha  occ. eigenvalues --   -1.15574  -1.10727  -1.09893  -1.09361  -1.09255
 Alpha  occ. eigenvalues --   -1.08019  -1.05508  -1.05152  -1.04695  -1.04265
 Alpha  occ. eigenvalues --   -1.03941  -1.03554  -1.03297  -1.02651  -1.02374
 Alpha  occ. eigenvalues --   -0.92672  -0.91666  -0.89264  -0.89074  -0.88628
 Alpha  occ. eigenvalues --   -0.88221  -0.88071  -0.88012  -0.87410  -0.87160
 Alpha  occ. eigenvalues --   -0.86937  -0.86743  -0.86224  -0.85922  -0.84607
 Alpha  occ. eigenvalues --   -0.84495  -0.83789  -0.83727  -0.83323  -0.82447
 Alpha  occ. eigenvalues --   -0.82235  -0.82172  -0.81230  -0.80813  -0.80330
 Alpha  occ. eigenvalues --   -0.80264  -0.78185  -0.77744  -0.77284  -0.77258
 Alpha  occ. eigenvalues --   -0.76879  -0.76864  -0.75882  -0.75440  -0.75366
 Alpha  occ. eigenvalues --   -0.75243  -0.72749  -0.72492  -0.72093  -0.71800
 Alpha  occ. eigenvalues --   -0.69812  -0.69222  -0.69212  -0.68762  -0.68023
 Alpha  occ. eigenvalues --   -0.67878  -0.67472  -0.67182  -0.66014  -0.65737
 Alpha  occ. eigenvalues --   -0.65567  -0.65510  -0.64825  -0.64785  -0.64407
 Alpha  occ. eigenvalues --   -0.64149  -0.61812  -0.61731  -0.60202  -0.60073
 Alpha  occ. eigenvalues --   -0.59801  -0.59582  -0.59135  -0.59111  -0.58600
 Alpha  occ. eigenvalues --   -0.58567  -0.57947  -0.57939  -0.57495  -0.57112
 Alpha  occ. eigenvalues --   -0.56542  -0.56287  -0.55890  -0.55593  -0.55405
 Alpha  occ. eigenvalues --   -0.55149  -0.54327  -0.54280  -0.54030  -0.53885
 Alpha  occ. eigenvalues --   -0.53845  -0.53447  -0.53400  -0.53271  -0.53179
 Alpha  occ. eigenvalues --   -0.52817  -0.52737  -0.52522  -0.52187  -0.52105
 Alpha  occ. eigenvalues --   -0.51669  -0.51568  -0.51396  -0.51129  -0.50985
 Alpha  occ. eigenvalues --   -0.50917  -0.50700  -0.50640  -0.50349  -0.50271
 Alpha  occ. eigenvalues --   -0.50135  -0.50121  -0.49990  -0.49915  -0.49566
 Alpha  occ. eigenvalues --   -0.49385  -0.49126  -0.49014  -0.48885  -0.48817
 Alpha  occ. eigenvalues --   -0.48646  -0.48445  -0.48300  -0.48078  -0.47982
 Alpha  occ. eigenvalues --   -0.47677  -0.47477  -0.47383  -0.47282  -0.47226
 Alpha  occ. eigenvalues --   -0.46835  -0.46665  -0.46470  -0.46308  -0.46303
 Alpha  occ. eigenvalues --   -0.46235  -0.46063  -0.45875  -0.45679  -0.45485
 Alpha  occ. eigenvalues --   -0.45323  -0.45288  -0.45153  -0.45112  -0.44982
 Alpha  occ. eigenvalues --   -0.44845  -0.44784  -0.44388  -0.44053  -0.43997
 Alpha  occ. eigenvalues --   -0.43695  -0.43694  -0.43523  -0.43495  -0.43444
 Alpha  occ. eigenvalues --   -0.43191  -0.43060  -0.42842  -0.42823  -0.42814
 Alpha  occ. eigenvalues --   -0.42661  -0.42621  -0.42578  -0.42285  -0.42170
 Alpha  occ. eigenvalues --   -0.42141  -0.42042  -0.41877  -0.41726  -0.41309
 Alpha  occ. eigenvalues --   -0.41160  -0.40876  -0.40780  -0.40548  -0.40497
 Alpha  occ. eigenvalues --   -0.40284  -0.40248  -0.39976  -0.39562  -0.39358
 Alpha  occ. eigenvalues --   -0.39107  -0.38746  -0.38167  -0.37807  -0.37457
 Alpha  occ. eigenvalues --   -0.37345  -0.36962  -0.36591  -0.36434  -0.35463
 Alpha  occ. eigenvalues --   -0.35452  -0.35185  -0.34536  -0.34400  -0.33945
 Alpha  occ. eigenvalues --   -0.33897  -0.33182  -0.32932  -0.32551  -0.31990
 Alpha  occ. eigenvalues --   -0.31696  -0.31282  -0.30962  -0.30500  -0.30295
 Alpha  occ. eigenvalues --   -0.29755  -0.29568  -0.29195  -0.24172  -0.24148
 Alpha  occ. eigenvalues --   -0.21584  -0.21079
 Alpha virt. eigenvalues --   -0.08556  -0.08402  -0.02263  -0.01893  -0.00258
 Alpha virt. eigenvalues --    0.00008   0.01709   0.01896   0.02443   0.03182
 Alpha virt. eigenvalues --    0.04821   0.05045   0.05179   0.05713   0.06148

 Mulliken charges:
               1
     1  Mg   0.828961
     2  C   -0.030135
     3  C   -0.118528
     4  C   -0.095818
     5  C   -0.030318
     6  N   -0.261027
     7  C   -0.046274
     8  C   -0.037668
     9  C   -0.022527
    10  C    0.032026
    11  C    0.082879
    12  C    0.069889
    13  C   -0.052943
    14  H    0.007687
    15  N   -0.381607
    16  C    0.167535
    17  C   -0.137181
    18  C   -0.024637
    19  C    0.115312
    20  C    0.117134
    21  C    0.007340
    22  O   -0.226712
    23  C    0.070429
    24  N   -0.264370
    25  C    0.101486
    26  C   -0.027424
    27  C   -0.054069
    28  C    0.007684
    29  C    0.065009
    30  C    0.060277
    31  C    0.025553
    32  N   -0.347668
    33  C    0.034478
    34  C   -0.140109
    35  C    0.052450
    36  C    0.114877
    37  C    0.104336
    38  C   -0.012136
    39  O   -0.156858
    40  C   -0.046389
    41  C    0.232157
    42  O   -0.212108
    43  O   -0.335254
    44  C    0.185627
    45  H   -0.026308
    46  H   -0.042635
    47  H   -0.040832
    48  H   -0.000451
    49  H    0.005364
    50  H    0.004974
    51  H    0.021431
    52  H    0.032095
    53  H   -0.005028
    54  H    0.028610
    55  H    0.025715
    56  H    0.027825
    57  H   -0.003284
    58  H    0.041215
    59  H    0.035407
    60  H    0.040980
    61  H    0.068704
    62  H    0.028291
    63  H    0.010285
    64  H    0.006824
    65  H    0.011286
    66  H    0.019537
    67  H    0.007044
    68  H    0.016770
    69  H    0.001459
    70  H    0.007988
    71  H    0.022213
    72  H    0.031375
    73  H    0.034457
    74  H    0.016353
    75  H    0.019597
    76  H    0.025058
    77  H    0.038720
    78  H    0.041793
    79  H    0.025805
    80  Mg   0.852775
    81  C    0.059628
    82  C   -0.070810
    83  C   -0.057509
    84  C   -0.106716
    85  N   -0.271003
    86  C    0.000334
    87  C   -0.067225
    88  C   -0.030295
    89  C    0.007072
    90  C    0.073749
    91  C    0.057191
    92  C   -0.089398
    93  H    0.003566
    94  N   -0.473288
    95  C    0.175982
    96  C   -0.108148
    97  C   -0.095589
    98  C    0.154233
    99  C    0.089127
   100  C    0.047411
   101  O   -0.209070
   102  C    0.040344
   103  N   -0.291837
   104  C    0.056784
   105  C   -0.031481
   106  C   -0.009899
   107  C    0.037023
   108  C    0.062919
   109  C    0.033911
   110  C   -0.009108
   111  N   -0.270828
   112  C    0.124415
   113  C   -0.199646
   114  C    0.032819
   115  C    0.059068
   116  C    0.139558
   117  C    0.025983
   118  O   -0.148260
   119  C   -0.069336
   120  C    0.203313
   121  O   -0.256675
   122  O   -0.319544
   123  C    0.175487
   124  H   -0.039606
   125  H    0.000506
   126  H   -0.042858
   127  H    0.012283
   128  H    0.003218
   129  H    0.020791
   130  H    0.015637
   131  H    0.021002
   132  H    0.007431
   133  H    0.035312
   134  H    0.036426
   135  H    0.033703
   136  H    0.029832
   137  H    0.006161
   138  H    0.032644
   139  H    0.052509
   140  H    0.030725
   141  H    0.020649
   142  H    0.015843
   143  H    0.001399
   144  H   -0.000319
   145  H    0.021481
   146  H    0.019817
   147  H    0.012313
   148  H    0.017875
   149  H    0.013159
   150  H    0.020606
   151  H    0.010284
   152  H    0.013417
   153  H    0.043392
   154  H    0.041348
   155  H    0.043921
   156  H    0.031264
   157  H    0.059458
   158  H    0.031350
 Sum of Mulliken charges =  -0.00000

 Dipole moment (field-independent basis, Debye):
    X=              4.6018    Y=              7.2098    Z=              2.3764  Tot=              8.8772
 Quadrupole moment (field-independent basis, Debye-Ang):
   XX=           -458.8544   YY=           -556.8400   ZZ=           -488.3225
   XY=             11.4214   XZ=              9.2252   YZ=            -20.5933

 Normal termination of Gaussian 16 at Wed Sep  1 17:52:37 2021.
