 Gaussian 16, Revision A.03,
 Gaussian 16:  ES64L-G16RevA.03 25-Dec-2016

 -----------------------------------
 #p cam-b3lyp/Def2SVP td=(nstates=5)
 -----------------------------------

 --------------------------------
 TDDFT excited states in gaussian
 --------------------------------
 Symbolic Z-matrix:
 Charge =  0 Multiplicity = 1

                         Standard orientation:
 ---------------------------------------------------------------------
 Center     Atomic      Atomic             Coordinates (Angstroms)
 Number     Number       Type             X           Y           Z
 ---------------------------------------------------------------------
      1         12           0      -13.504492   -0.531706    0.184101
      2          6           0      -12.930052    2.911558   -0.632548
      3          6           0      -12.600193    0.211989    3.427663
      4          6           0      -13.428975   -3.750362    0.740664
      5          6           0      -14.160217   -1.049951   -3.179212
      6          7           0      -12.549412    1.354971    1.239354
      7          6           0      -12.559609    2.605474    0.683247
      8          6           0      -12.327459    3.666811    1.791882
      9          6           0      -12.157361    2.798237    3.107920
     10          6           0      -12.424488    1.331355    2.609052
     11          6           0      -10.768517    2.872470    3.871331
     12          6           0      -13.458107    4.718761    1.946301
     13          6           0      -13.063070    6.144319    2.100522
     14          1           0      -11.622013    6.605107    2.543490
     15          7           0      -13.057275   -1.682739    1.884284
     16          6           0      -12.835294   -1.214520    3.179079
     17          6           0      -12.591302   -2.367733    4.066582
     18          6           0      -12.951947   -3.535268    3.290170
     19          6           0      -13.155744   -3.026863    1.913774
     20          6           0      -12.148140   -2.302181    5.496801
     21          6           0      -13.079756   -5.023220    3.693286
     22          8           0      -13.684738   -5.894388    3.033470
     23          6           0      -12.598321   -5.408049    5.034256
     24          7           0      -13.695300   -2.098668   -1.038758
     25          6           0      -13.551173   -3.374015   -0.538289
     26          6           0      -13.981512   -4.439227   -1.584504
     27          6           0      -14.572851   -3.506601   -2.732294
     28          6           0      -14.136353   -2.118331   -2.297432
     29          6           0      -12.891093   -5.464312   -2.100699
     30          6           0      -16.075072   -3.559564   -2.961141
     31          6           0      -16.523014   -4.125568   -4.324980
     32          7           0      -13.735580    0.676115   -1.535381
     33          6           0      -13.974485    0.311514   -2.839270
     34          6           0      -13.917769    1.493444   -3.709384
     35          6           0      -13.568949    2.522788   -2.853143
     36          6           0      -13.466349    1.987880   -1.549593
     37          6           0      -14.103244    1.585020   -5.188073
     38          6           0      -13.332433    3.921612   -2.845524
     39          8           0      -13.454374    4.807305   -3.738945
     40          6           0      -12.918603    4.229853   -1.469115
     41          6           0      -11.609539    4.971960   -1.474746
     42          8           0      -10.557844    4.504853   -1.751116
     43          8           0      -11.795076    6.222714   -1.053249
     44          6           0      -10.773412    7.191138   -1.265055
     45          1           0      -12.316159    0.356586    4.472266
     46          1           0      -13.483333   -4.840863    0.786147
     47          1           0      -14.290947   -1.236824   -4.246365
     48          1           0      -11.401646    4.177353    1.524130
     49          1           0      -12.936432    3.055381    3.824943
     50          1           0      -10.080568    3.638785    3.515233
     51          1           0      -10.256203    1.928512    3.679753
     52          1           0      -10.929047    2.966903    4.945731
     53          1           0      -14.086686    4.539902    2.819436
     54          1           0      -14.130386    4.743718    1.089160
     55          1           0      -13.664223    6.609253    2.882488
     56          1           0      -13.279148    6.642124    1.155623
     57          1           0      -11.252093   -2.908913    5.625656
     58          1           0      -12.954771   -2.738519    6.085923
     59          1           0      -12.105068   -1.273787    5.856971
     60          1           0      -11.524177   -5.224531    5.061353
     61          1           0      -12.738737   -6.487212    5.090891
     62          1           0      -13.203040   -4.970919    5.828355
     63          1           0      -14.808103   -4.979534   -1.121972
     64          1           0      -14.084899   -3.805579   -3.659935
     65          1           0      -11.936337   -5.273404   -1.612011
     66          1           0      -12.822524   -5.505508   -3.188436
     67          1           0      -13.244236   -6.462922   -1.842973
     68          1           0      -16.635533   -2.651041   -2.740301
     69          1           0      -16.475591   -4.262337   -2.231287
     70          1           0      -17.320081   -3.593108   -4.843508
     71          1           0      -17.048143   -5.057879   -4.115554
     72          1           0      -15.732141   -4.251509   -5.063179
     73          1           0      -14.608707    0.712150   -5.602233
     74          1           0      -13.136648    1.533841   -5.689037
     75          1           0      -14.536164    2.565989   -5.383593
     76          1           0      -13.702468    4.866576   -1.059784
     77          1           0      -10.800686    7.432794   -2.328516
     78          1           0       -9.785850    6.757159   -1.107878
     79          1           0      -10.980008    8.109056   -0.714101
     80         12           0       12.553470   -0.747677   -0.141509
     81          6           0       15.155889    1.466858   -0.069466
     82          6           0       10.451376    1.561815    1.020281
     83          6           0       10.263186   -3.065444   -0.070144
     84          6           0       14.997324   -3.258421   -0.794421
     85          7           0       12.810649    1.279559    0.589414
     86          6           0       13.894537    2.026311    0.261447
     87          6           0       13.603991    3.500276    0.336840
     88          6           0       12.155666    3.485046    0.971595
     89          6           0       11.788846    2.017060    0.946358
     90          6           0       12.052453    4.156775    2.361951
     91          6           0       13.786039    4.303068   -1.091366
     92          6           0       14.571573    5.623355   -1.096472
     93          1           0       14.644951    6.407055    0.251611
     94          7           0       10.666065   -0.713357    0.215793
     95          6           0        9.912677    0.309074    0.698224
     96          6           0        8.554017   -0.075230    0.994167
     97          6           0        8.434584   -1.337734    0.496808
     98          6           0        9.847264   -1.790312    0.303559
     99          6           0        7.696572    0.929056    1.742341
    100          6           0        7.172066   -2.214409    0.378029
    101          8           0        7.174332   -3.354744   -0.023656
    102          6           0        5.916934   -1.538219    0.844923
    103          7           0       12.692433   -2.898841   -0.234498
    104          6           0       11.533043   -3.577892   -0.299823
    105          6           0       11.781930   -5.055625   -0.617801
    106          6           0       13.251258   -5.053181   -1.160794
    107          6           0       13.707078   -3.658879   -0.683928
    108          6           0       11.541888   -6.126331    0.530109
    109          6           0       13.419987   -5.153866   -2.723650
    110          6           0       12.820173   -4.152487   -3.675335
    111          7           0       14.644534   -0.952639   -0.483164
    112          6           0       15.529273   -2.023564   -0.645963
    113          6           0       16.918904   -1.563948   -0.764508
    114          6           0       16.819501   -0.180840   -0.551511
    115          6           0       15.425057    0.097691   -0.396105
    116          6           0       18.146453   -2.372237   -1.098154
    117          6           0       17.525586    1.012770   -0.442096
    118          8           0       18.715876    1.284021   -0.469101
    119          6           0       16.480873    2.156010   -0.363770
    120          6           0       16.996807    2.984102    0.750308
    121          8           0       16.851382    2.739453    1.950401
    122          8           0       17.765287    4.011915    0.285826
    123          6           0       18.606582    4.763707    1.222384
    124          1           0        9.758657    2.384106    1.212329
    125          1           0        9.542288   -3.883225   -0.120322
    126          1           0       15.625338   -4.119320   -1.036106
    127          1           0       14.231099    3.977346    1.090072
    128          1           0       11.464363    3.966362    0.280174
    129          1           0       11.998024    3.380377    3.124966
    130          1           0       11.129385    4.735390    2.397672
    131          1           0       12.951335    4.761974    2.480226
    132          1           0       12.767741    4.491302   -1.431785
    133          1           0       14.317063    3.682466   -1.812454
    134          1           0       14.087363    6.346463   -1.752254
    135          1           0       15.559291    5.462861   -1.528458
    136          1           0        8.060302    1.202243    2.733006
    137          1           0        6.704483    0.652077    2.098413
    138          1           0        7.639695    1.734356    1.009950
    139          1           0        5.761095   -0.602909    0.307849
    140          1           0        6.084533   -1.478947    1.920130
    141          1           0        4.959527   -2.027006    0.668048
    142          1           0       11.021911   -5.245984   -1.376422
    143          1           0       13.829347   -5.791579   -0.604760
    144          1           0       11.201635   -5.619486    1.432804
    145          1           0       12.484080   -6.575485    0.841922
    146          1           0       10.871225   -6.953293    0.291843
    147          1           0       13.006880   -6.150217   -2.882963
    148          1           0       14.467070   -5.162085   -3.024707
    149          1           0       12.149670   -3.487498   -3.129417
    150          1           0       12.213856   -4.656412   -4.427870
    151          1           0       13.515062   -3.469961   -4.164201
    152          1           0       18.799047   -2.511424   -0.237408
    153          1           0       18.697775   -1.888484   -1.904638
    154          1           0       17.734200   -3.353170   -1.335951
    155          1           0       16.374908    2.676282   -1.315887
    156          1           0       19.467106    5.217831    0.729669
    157          1           0       18.827869    4.191307    2.121913
    158          1           0       18.075417    5.594007    1.687391
 ---------------------------------------------------------------------

 SCF Done:  E(RCAM-B3LYP) =  -4069.80043828     A.U. after   19 cycles

 Excitation energies and oscillator strengths:

 Excited State   1:      Singlet-A      1.7200 eV  720.86 nm  f=0.4194  <S**2>=0.000
     309 -> 316        0.17631
     311 -> 313        0.68694
     309 <- 316        0.10595
 This state for optimization and/or second-order correction.
 Total Energy, E(TD-HF/TD-DFT) =  -4069.73723099
 Copying the excited state density for this state as the 1-particle RhoCI density.

 Excited State   2:      Singlet-A      1.7686 eV  701.04 nm  f=0.3785  <S**2>=0.000
     310 -> 315        0.19163
     312 -> 314        0.68172
     310 <- 315        0.10598

 Excited State   3:      Singlet-A      2.2103 eV  560.93 nm  f=0.1272  <S**2>=0.000
     309 -> 313        0.65015
     311 -> 316       -0.26632

 Excited State   4:      Singlet-A      2.2758 eV  544.79 nm  f=0.0581  <S**2>=0.000
     310 -> 314        0.61593
     312 -> 315       -0.33787

 Excited State   5:      Singlet-A      2.7971 eV  443.26 nm  f=0.0000  <S**2>=0.000
     312 -> 313        0.70709

 The electronic state is 1-A.
 Alpha  occ. eigenvalues --  -46.88990 -46.87937 -19.25095 -19.23897 -19.19907
 Alpha  occ. eigenvalues --  -19.19748 -19.19107 -19.18620 -19.18323 -19.17632
 Alpha  occ. eigenvalues --  -14.42137 -14.41698 -14.41690 -14.41040 -14.39980
 Alpha  occ. eigenvalues --  -14.39775 -14.39637 -14.38730 -10.39140 -10.38239
 Alpha  occ. eigenvalues --  -10.35936 -10.35032 -10.34790 -10.33528 -10.31782
 Alpha  occ. eigenvalues --  -10.31605 -10.31104 -10.31038 -10.30808 -10.30644
 Alpha  occ. eigenvalues --  -10.30627 -10.30566 -10.30432 -10.30238 -10.30224
 Alpha  occ. eigenvalues --  -10.30116 -10.29775 -10.29627 -10.29377 -10.29014
 Alpha  occ. eigenvalues --  -10.28945 -10.28905 -10.28837 -10.28829 -10.28697
 Alpha  occ. eigenvalues --  -10.28471 -10.28449 -10.28353 -10.28281 -10.28185
 Alpha  occ. eigenvalues --  -10.28044 -10.27829 -10.27808 -10.27791 -10.27743
 Alpha  occ. eigenvalues --  -10.27723 -10.27646 -10.27586 -10.27573 -10.27540
 Alpha  occ. eigenvalues --  -10.27471 -10.27309 -10.27258 -10.27221 -10.27132
 Alpha  occ. eigenvalues --  -10.27075 -10.26851 -10.26810 -10.26548 -10.26488
 Alpha  occ. eigenvalues --  -10.26475 -10.26273 -10.26243 -10.26023 -10.26022
 Alpha  occ. eigenvalues --  -10.26012 -10.25963 -10.25883 -10.25651 -10.25544
 Alpha  occ. eigenvalues --  -10.25510 -10.25271 -10.25260 -10.25193 -10.25035
 Alpha  occ. eigenvalues --  -10.24041  -3.17568  -3.16792  -1.92450  -1.92037
 Alpha  occ. eigenvalues --   -1.91867  -1.91657  -1.91261  -1.91125  -1.18714
 Alpha  occ. eigenvalues --   -1.14827  -1.11500  -1.09804  -1.08984  -1.08380
 Alpha  occ. eigenvalues --   -1.08165  -1.05905  -1.05568  -1.04910  -1.04679
 Alpha  occ. eigenvalues --   -1.04093  -1.03848  -1.02976  -1.02612  -1.01865
 Alpha  occ. eigenvalues --   -0.93654  -0.92321  -0.89607  -0.89203  -0.88630
 Alpha  occ. eigenvalues --   -0.88444  -0.88399  -0.88006  -0.87939  -0.87820
 Alpha  occ. eigenvalues --   -0.87448  -0.86960  -0.86538  -0.86368  -0.84639
 Alpha  occ. eigenvalues --   -0.84353  -0.83607  -0.83565  -0.82702  -0.82683
 Alpha  occ. eigenvalues --   -0.82583  -0.82137  -0.81798  -0.81044  -0.80587
 Alpha  occ. eigenvalues --   -0.80506  -0.79002  -0.78381  -0.77793  -0.77445
 Alpha  occ. eigenvalues --   -0.77241  -0.76964  -0.76439  -0.75685  -0.75283
 Alpha  occ. eigenvalues --   -0.75191  -0.73255  -0.72622  -0.71667  -0.71574
 Alpha  occ. eigenvalues --   -0.69623  -0.69476  -0.69051  -0.69007  -0.68131
 Alpha  occ. eigenvalues --   -0.67578  -0.67294  -0.66330  -0.65997  -0.65396
 Alpha  occ. eigenvalues --   -0.65004  -0.64954  -0.64930  -0.64726  -0.64557
 Alpha  occ. eigenvalues --   -0.63742  -0.63120  -0.61696  -0.61094  -0.60416
 Alpha  occ. eigenvalues --   -0.59943  -0.59416  -0.59299  -0.59264  -0.59224
 Alpha  occ. eigenvalues --   -0.58290  -0.57911  -0.57838  -0.57783  -0.57530
 Alpha  occ. eigenvalues --   -0.56583  -0.56282  -0.56190  -0.55298  -0.55270
 Alpha  occ. eigenvalues --   -0.55096  -0.54994  -0.54651  -0.54393  -0.53830
 Alpha  occ. eigenvalues --   -0.53617  -0.53515  -0.53336  -0.53189  -0.53096
 Alpha  occ. eigenvalues --   -0.52873  -0.52605  -0.52597  -0.52490  -0.52416
 Alpha  occ. eigenvalues --   -0.52276  -0.51738  -0.51653  -0.51609  -0.51567
 Alpha  occ. eigenvalues --   -0.51238  -0.51196  -0.50593  -0.50440  -0.50213
 Alpha  occ. eigenvalues --   -0.50156  -0.50115  -0.49960  -0.49477  -0.49336
 Alpha  occ. eigenvalues --   -0.49315  -0.49173  -0.49075  -0.48838  -0.48758
 Alpha  occ. eigenvalues --   -0.48658  -0.48553  -0.48411  -0.48317  -0.48044
 Alpha  occ. eigenvalues --   -0.47992  -0.47785  -0.47766  -0.47491  -0.47150
 Alpha  occ. eigenvalues --   -0.46994  -0.46854  -0.46778  -0.46637  -0.46493
 Alpha  occ. eigenvalues --   -0.46298  -0.46194  -0.46133  -0.45891  -0.45688
 Alpha  occ. eigenvalues --   -0.45462  -0.45360  -0.45231  -0.44867  -0.44809
 Alpha  occ. eigenvalues --   -0.44621  -0.44530  -0.44489  -0.44098  -0.43893
 Alpha  occ. eigenvalues --   -0.43811  -0.43724  -0.43512  -0.43437  -0.43152
 Alpha  occ. eigenvalues --   -0.43112  -0.42886  -0.42828  -0.42762  -0.42695
 Alpha  occ. eigenvalues --   -0.42415  -0.42238  -0.42120  -0.41949  -0.41826
 Alpha  occ. eigenvalues --   -0.41697  -0.41555  -0.41516  -0.41249  -0.41231
 Alpha  occ. eigenvalues --   -0.41045  -0.41041  -0.40729  -0.40503  -0.40344
 Alpha  occ. eigenvalues --   -0.40161  -0.39758  -0.39570  -0.39209  -0.39187
 Alpha  occ. eigenvalues --   -0.38448  -0.38259  -0.38175  -0.37989  -0.37031
 Alpha  occ. eigenvalues --   -0.36984  -0.36622  -0.36429  -0.36353  -0.36254
 Alpha  occ. eigenvalues --   -0.35927  -0.35137  -0.34772  -0.34338  -0.34207
 Alpha  occ. eigenvalues --   -0.33261  -0.32986  -0.32922  -0.32470  -0.31679
 Alpha  occ. eigenvalues --   -0.31521  -0.31336  -0.30834  -0.30696  -0.30678
 Alpha  occ. eigenvalues --   -0.30072  -0.29692  -0.29560  -0.24194  -0.23793
 Alpha  occ. eigenvalues --   -0.21385  -0.20588
 Alpha virt. eigenvalues --   -0.09016  -0.07807  -0.01732  -0.01552  -0.00269
 Alpha virt. eigenvalues --    0.00245   0.01852   0.02288   0.02298   0.03047
 Alpha virt. eigenvalues --    0.05041   0.05182   0.06034   0.06129   0.06191

 Mulliken charges:
               1
     1  Mg   0.831067
     2  C   -0.003550
     3  C   -0.022642
     4  C   -0.061337
     5  C   -0.094105
     6  N   -0.252774
     7  C   -0.054286
     8  C    0.021059
     9  C   -0.061000
    10  C    0.018163
    11  C    0.057414
    12  C    0.048929
    13  C   -0.081462
    14  H    0.000380
    15  N   -0.364197
    16  C    0.090971
    17  C   -0.170560
    18  C   -0.041420
    19  C    0.129237
    20  C    0.140593
    21  C    0.009649
    22  O   -0.229621
    23  C    0.054867
    24  N   -0.351638
    25  C    0.076878
    26  C   -0.074966
    27  C   -0.035794
    28  C    0.084591
    29  C    0.075242
    30  C    0.058287
    31  C   -0.010570
    32  N   -0.321548
    33  C    0.100450
    34  C   -0.161290
    35  C   -0.007653
    36  C    0.104611
    37  C    0.130292
    38  C    0.044961
    39  O   -0.216254
    40  C    0.039323
    41  C    0.154806
    42  O   -0.173809
    43  O   -0.300021
    44  C    0.179760
    45  H   -0.038507
    46  H   -0.005506
    47  H   -0.029120
    48  H    0.021416
    49  H    0.016386
    50  H    0.019090
    51  H    0.019230
    52  H    0.018347
    53  H    0.008994
    54  H    0.007863
    55  H    0.022303
    56  H    0.037215
    57  H    0.036323
    58  H    0.020042
    59  H    0.011588
    60  H    0.032235
    61  H    0.020596
    62  H    0.045084
    63  H    0.021469
    64  H    0.000803
    65  H    0.029637
    66  H    0.014150
    67  H    0.016566
    68  H    0.016429
    69  H   -0.002306
    70  H    0.007341
    71  H    0.010666
    72  H    0.017264
    73  H    0.008904
    74  H    0.034105
    75  H    0.049521
    76  H    0.040303
    77  H    0.029081
    78  H    0.038501
    79  H    0.042951
    80  Mg   0.850580
    81  C    0.012149
    82  C   -0.109470
    83  C   -0.070314
    84  C   -0.108756
    85  N   -0.257937
    86  C   -0.051867
    87  C   -0.000862
    88  C   -0.101389
    89  C    0.045275
    90  C    0.094735
    91  C    0.048933
    92  C   -0.072540
    93  H    0.012924
    94  N   -0.419486
    95  C    0.163767
    96  C   -0.108864
    97  C   -0.091162
    98  C    0.161809
    99  C    0.094043
   100  C    0.026250
   101  O   -0.168411
   102  C    0.036156
   103  N   -0.251364
   104  C    0.003058
   105  C   -0.036980
   106  C    0.001987
   107  C   -0.034649
   108  C    0.070319
   109  C    0.035393
   110  C    0.008524
   111  N   -0.312626
   112  C    0.155298
   113  C   -0.183131
   114  C    0.078794
   115  C    0.062712
   116  C    0.144281
   117  C   -0.022501
   118  O   -0.177614
   119  C    0.001683
   120  C    0.195338
   121  O   -0.239470
   122  O   -0.323689
   123  C    0.190532
   124  H   -0.033032
   125  H   -0.010522
   126  H   -0.035076
   127  H    0.021994
   128  H    0.005936
   129  H    0.023382
   130  H    0.016548
   131  H    0.024955
   132  H    0.009003
   133  H    0.018156
   134  H    0.025971
   135  H    0.040053
   136  H    0.037267
   137  H    0.007480
   138  H    0.045326
   139  H    0.040854
   140  H    0.049045
   141  H    0.021476
   142  H    0.008567
   143  H    0.002496
   144  H    0.016636
   145  H    0.005018
   146  H    0.028224
   147  H    0.006562
   148  H    0.007616
   149  H    0.009888
   150  H    0.017947
   151  H    0.021344
   152  H    0.036250
   153  H    0.041556
   154  H   -0.001570
   155  H    0.044065
   156  H    0.042879
   157  H    0.040247
   158  H    0.012002
 Sum of Mulliken charges =  -0.00000

 Dipole moment (field-independent basis, Debye):
    X=             -6.3375    Y=              1.4143    Z=              1.3711  Tot=              6.6366
 Quadrupole moment (field-independent basis, Debye-Ang):
   XX=           -626.2095   YY=           -496.7652   ZZ=           -492.9719
   XY=             -4.6168   XZ=            -50.8779   YZ=             28.9788

 Normal termination of Gaussian 16 at Thu Sep 16 04:57:57 2021.
