 Gaussian 16, Revision A.03,
 Gaussian 16:  ES64L-G16RevA.03 25-Dec-2016

 -----------------------------------
 #p cam-b3lyp/Def2SVP td=(nstates=5)
 -----------------------------------

 --------------------------------
 TDDFT excited states in gaussian
 --------------------------------
 Symbolic Z-matrix:
 Charge =  0 Multiplicity = 1

                         Standard orientation:
 ---------------------------------------------------------------------
 Center     Atomic      Atomic             Coordinates (Angstroms)
 Number     Number       Type             X           Y           Z
 ---------------------------------------------------------------------
      1         12           0      -23.796630    0.533421    0.173084
      2          6           0      -22.051984   -2.396920   -0.614690
      3          6           0      -20.736093    2.132942   -0.014846
      4          6           0      -25.409496    3.428472    0.572264
      5          6           0      -26.808901   -1.099871   -0.518990
      6          7           0      -21.561820   -0.132909   -0.497401
      7          6           0      -21.120414   -1.397263   -0.640391
      8          6           0      -19.636515   -1.493096   -0.902087
      9          6           0      -19.270328   -0.046398   -0.394640
     10          6           0      -20.564196    0.758658   -0.330399
     11          6           0      -18.668646   -0.122792    1.033975
     12          6           0      -19.350231   -1.898979   -2.353389
     13          6           0      -20.205917   -1.315072   -3.496776
     14          1           0      -19.435460   -0.747272   -4.682897
     15          7           0      -23.177835    2.480503    0.276609
     16          6           0      -21.872624    2.895395    0.296804
     17          6           0      -21.811397    4.243131    0.877306
     18          6           0      -23.176801    4.735622    0.921844
     19          6           0      -23.976567    3.515815    0.594924
     20          6           0      -20.467162    5.056732    1.006871
     21          6           0      -23.629407    6.163549    1.236868
     22          8           0      -22.841061    6.984639    1.615126
     23          6           0      -25.079364    6.535268    1.118870
     24          7           0      -25.866837    1.092441   -0.183690
     25          6           0      -26.348854    2.368052    0.163902
     26          6           0      -27.925620    2.491827    0.030563
     27          6           0      -28.333737    0.970552   -0.265676
     28          6           0      -26.910808    0.245484   -0.287567
     29          6           0      -28.790205    3.176740    1.203251
     30          6           0      -29.214735    0.684235   -1.566003
     31          6           0      -30.218401   -0.545730   -1.309401
     32          7           0      -24.397807   -1.385296   -0.396623
     33          6           0      -25.662648   -1.916089   -0.548375
     34          6           0      -25.553222   -3.348540   -0.796133
     35          6           0      -24.168415   -3.656584   -0.776861
     36          6           0      -23.491954   -2.395188   -0.605335
     37          6           0      -26.687741   -4.337133   -0.862722
     38          6           0      -23.086844   -4.677151   -0.967824
     39          8           0      -23.157111   -5.837068   -1.308053
     40          6           0      -21.726620   -3.873984   -0.807772
     41          6           0      -21.012547   -4.471169    0.373554
     42          8           0      -20.393482   -5.564109    0.341268
     43          8           0      -21.022494   -3.569363    1.427790
     44          6           0      -20.187417   -3.907168    2.531668
     45          1           0      -19.761257    2.624162    0.017180
     46          1           0      -26.045409    4.259765    0.884476
     47          1           0      -27.761690   -1.633420   -0.534096
     48          1           0      -19.146946   -2.173804   -0.205880
     49          1           0      -18.567835    0.539107   -0.986208
     50          1           0      -18.987896    0.788972    1.539402
     51          1           0      -17.592974   -0.286878    0.988032
     52          1           0      -19.057339   -0.861362    1.735773
     53          1           0      -19.554364   -2.968113   -2.402724
     54          1           0      -18.295676   -1.710297   -2.554785
     55          1           0      -20.791914   -0.482616   -3.108040
     56          1           0      -20.823044   -2.117560   -3.899814
     57          1           0      -20.099321    5.492611    0.077601
     58          1           0      -19.693439    4.415852    1.429765
     59          1           0      -20.465067    5.864467    1.737855
     60          1           0      -25.234869    7.609732    1.221399
     61          1           0      -25.712624    6.031108    1.849147
     62          1           0      -25.278894    6.314333    0.069975
     63          1           0      -27.978282    3.097420   -0.873413
     64          1           0      -28.872365    0.539616    0.577795
     65          1           0      -28.853637    4.239736    0.973551
     66          1           0      -28.334724    3.018620    2.180426
     67          1           0      -29.774167    2.707770    1.223414
     68          1           0      -28.596273    0.316741   -2.384798
     69          1           0      -29.730885    1.585602   -1.897422
     70          1           0      -30.012589   -1.367459   -1.995454
     71          1           0      -31.244325   -0.213830   -1.466143
     72          1           0      -30.169770   -1.079250   -0.360767
     73          1           0      -27.358218   -4.035847   -1.666863
     74          1           0      -27.241689   -4.321276    0.076134
     75          1           0      -26.346681   -5.345428   -1.096922
     76          1           0      -21.147836   -4.166650   -1.683535
     77          1           0      -20.197456   -3.089435    3.251937
     78          1           0      -19.197417   -4.218246    2.197705
     79          1           0      -20.604256   -4.719918    3.126405
     80         12           0       23.944151    0.488057   -0.312179
     81          6           0       22.253294   -2.260563    1.352175
     82          6           0       22.514637    2.464718    2.014663
     83          6           0       25.392133    2.898470   -1.827448
     84          6           0       25.027489   -1.786935   -2.799680
     85          7           0       22.502251    0.076330    1.573279
     86          6           0       22.059511   -1.093500    2.065553
     87          6           0       21.359959   -0.871001    3.420063
     88          6           0       21.113103    0.702027    3.267825
     89          6           0       22.126894    1.115846    2.285713
     90          6           0       19.683648    1.197880    3.127276
     91          6           0       22.309498   -1.315874    4.545841
     92          6           0       21.556167   -1.736641    5.842021
     93          1           0       19.977043   -1.978144    5.896406
     94          7           0       24.007884    2.469354    0.058068
     95          6           0       23.283235    3.148626    1.018595
     96          6           0       23.543629    4.575211    0.851622
     97          6           0       24.451024    4.714003   -0.227536
     98          6           0       24.638809    3.315981   -0.708754
     99          6           0       22.942995    5.626007    1.675038
    100          6           0       25.170656    6.036698   -0.818015
    101          8           0       26.052401    5.962773   -1.629472
    102          6           0       24.981691    7.415987   -0.161433
    103          7           0       24.826716    0.561904   -2.221110
    104          6           0       25.486991    1.675197   -2.529506
    105          6           0       26.340121    1.569832   -3.764958
    106          6           0       26.520089    0.032608   -3.805390
    107          6           0       25.257966   -0.410039   -2.987912
    108          6           0       25.642699    2.118835   -5.095492
    109          6           0       27.897090   -0.525389   -3.249711
    110          6           0       29.183986    0.344390   -3.349226
    111          7           0       23.632349   -1.542375   -0.751518
    112          6           0       24.150933   -2.348150   -1.710972
    113          6           0       23.853708   -3.688731   -1.479438
    114          6           0       23.089989   -3.667186   -0.347477
    115          6           0       22.975052   -2.367159    0.103720
    116          6           0       24.356013   -4.875044   -2.297800
    117          6           0       22.393265   -4.580259    0.571005
    118          8           0       22.094792   -5.763246    0.503969
    119          6           0       21.895443   -3.650178    1.761903
    120          6           0       20.478650   -3.907238    1.952154
    121          8           0       19.546565   -3.478116    1.264705
    122          8           0       20.379735   -4.908701    2.851105
    123          6           0       19.064162   -5.522959    2.857360
    124          1           0       21.908424    3.112067    2.651886
    125          1           0       25.839353    3.751317   -2.341245
    126          1           0       25.464767   -2.462419   -3.537649
    127          1           0       20.380418   -1.348401    3.449191
    128          1           0       21.419641    1.138336    4.217514
    129          1           0       19.361461    1.772136    3.995385
    130          1           0       19.005002    0.356231    2.990118
    131          1           0       19.507515    1.800516    2.236232
    132          1           0       22.889088   -0.441634    4.843126
    133          1           0       23.030684   -2.075531    4.244884
    134          1           0       21.831518   -1.109403    6.690484
    135          1           0       22.120914   -2.617358    6.147479
    136          1           0       22.633014    5.248802    2.649348
    137          1           0       22.088861    5.982583    1.099101
    138          1           0       23.610416    6.461802    1.886174
    139          1           0       25.393588    7.484678    0.845378
    140          1           0       23.919954    7.631282   -0.283673
    141          1           0       25.441810    8.186048   -0.781178
    142          1           0       27.209412    2.174719   -3.508100
    143          1           0       26.423855   -0.382714   -4.808262
    144          1           0       26.444790    2.714873   -5.530194
    145          1           0       24.775279    2.756067   -4.919844
    146          1           0       25.357592    1.363953   -5.827281
    147          1           0       28.081808   -1.500610   -3.697940
    148          1           0       27.682128   -0.551599   -2.181289
    149          1           0       29.262526    1.006162   -2.487017
    150          1           0       29.087148    0.821568   -4.325056
    151          1           0       30.086264   -0.261696   -3.423105
    152          1           0       25.318608   -4.546376   -2.690292
    153          1           0       23.735807   -5.091187   -3.167211
    154          1           0       24.451111   -5.732433   -1.631754
    155          1           0       22.468603   -3.946171    2.641426
    156          1           0       18.975642   -6.348860    3.562582
    157          1           0       18.626769   -5.751052    1.885231
    158          1           0       18.324107   -4.829262    3.257848
 ---------------------------------------------------------------------

 SCF Done:  E(RCAM-B3LYP) =  -4069.77907435     A.U. after   17 cycles

 Excitation energies and oscillator strengths:

 Excited State   1:      Singlet-A      1.7468 eV  709.78 nm  f=0.3554  <S**2>=0.000
     309 -> 315        0.19411
     311 -> 313        0.68068
     309 <- 315        0.10947
 This state for optimization and/or second-order correction.
 Total Energy, E(TD-HF/TD-DFT) =  -4069.71488090
 Copying the excited state density for this state as the 1-particle RhoCI density.

 Excited State   2:      Singlet-A      1.8346 eV  675.82 nm  f=0.3735  <S**2>=0.000
     310 -> 316       -0.18806
     312 -> 314        0.68157
     310 <- 316       -0.10395

 Excited State   3:      Singlet-A      2.2374 eV  554.14 nm  f=0.1090  <S**2>=0.000
     309 -> 313        0.63483
     311 -> 315       -0.29890

 Excited State   4:      Singlet-A      2.2402 eV  553.46 nm  f=0.1528  <S**2>=0.000
     310 -> 314        0.65478
     312 -> 316        0.25311

 Excited State   5:      Singlet-A      3.2632 eV  379.95 nm  f=0.0000  <S**2>=0.000
     312 -> 313        0.70710

 The electronic state is 1-A.
 Alpha  occ. eigenvalues --  -46.90394 -46.89352 -19.26036 -19.24880 -19.20517
 Alpha  occ. eigenvalues --  -19.20009 -19.19543 -19.19039 -19.18849 -19.18752
 Alpha  occ. eigenvalues --  -14.42259 -14.41810 -14.41472 -14.41120 -14.40522
 Alpha  occ. eigenvalues --  -14.39944 -14.39473 -14.38634 -10.39971 -10.38201
 Alpha  occ. eigenvalues --  -10.36970 -10.35785 -10.35305 -10.34806 -10.32830
 Alpha  occ. eigenvalues --  -10.31976 -10.31830 -10.31238 -10.31127 -10.30848
 Alpha  occ. eigenvalues --  -10.30785 -10.30724 -10.30611 -10.30586 -10.30515
 Alpha  occ. eigenvalues --  -10.30209 -10.29885 -10.29592 -10.29580 -10.29577
 Alpha  occ. eigenvalues --  -10.29548 -10.29418 -10.29263 -10.29194 -10.28956
 Alpha  occ. eigenvalues --  -10.28533 -10.28522 -10.28491 -10.28439 -10.28399
 Alpha  occ. eigenvalues --  -10.28390 -10.28064 -10.27993 -10.27957 -10.27907
 Alpha  occ. eigenvalues --  -10.27827 -10.27792 -10.27786 -10.27746 -10.27720
 Alpha  occ. eigenvalues --  -10.27696 -10.27515 -10.27497 -10.27473 -10.27359
 Alpha  occ. eigenvalues --  -10.27287 -10.27253 -10.27117 -10.27114 -10.26871
 Alpha  occ. eigenvalues --  -10.26491 -10.26427 -10.26294 -10.26260 -10.26220
 Alpha  occ. eigenvalues --  -10.26204 -10.26175 -10.26075 -10.25979 -10.25944
 Alpha  occ. eigenvalues --  -10.25885 -10.25530 -10.25459 -10.25359 -10.25212
 Alpha  occ. eigenvalues --  -10.23709  -3.18757  -3.17853  -1.93620  -1.93232
 Alpha  occ. eigenvalues --   -1.93047  -1.92754  -1.92326  -1.92138  -1.16472
 Alpha  occ. eigenvalues --   -1.16453  -1.12600  -1.11505  -1.10654  -1.09441
 Alpha  occ. eigenvalues --   -1.07046  -1.06621  -1.05773  -1.05192  -1.04784
 Alpha  occ. eigenvalues --   -1.04625  -1.03886  -1.03402  -1.02961  -1.01895
 Alpha  occ. eigenvalues --   -0.92510  -0.92333  -0.89159  -0.89016  -0.88735
 Alpha  occ. eigenvalues --   -0.88336  -0.88097  -0.87739  -0.87511  -0.87344
 Alpha  occ. eigenvalues --   -0.86893  -0.86047  -0.85665  -0.85577  -0.84849
 Alpha  occ. eigenvalues --   -0.84360  -0.83349  -0.83093  -0.82711  -0.82370
 Alpha  occ. eigenvalues --   -0.81931  -0.81881  -0.80806  -0.80718  -0.80366
 Alpha  occ. eigenvalues --   -0.80083  -0.78595  -0.77536  -0.77288  -0.76827
 Alpha  occ. eigenvalues --   -0.76705  -0.76625  -0.76419  -0.75700  -0.75322
 Alpha  occ. eigenvalues --   -0.75250  -0.72813  -0.72744  -0.72058  -0.71650
 Alpha  occ. eigenvalues --   -0.69932  -0.69650  -0.69402  -0.68750  -0.68218
 Alpha  occ. eigenvalues --   -0.67567  -0.67159  -0.66758  -0.65897  -0.65432
 Alpha  occ. eigenvalues --   -0.65059  -0.64893  -0.64837  -0.64656  -0.64628
 Alpha  occ. eigenvalues --   -0.63716  -0.63672  -0.61793  -0.60802  -0.60030
 Alpha  occ. eigenvalues --   -0.59494  -0.59273  -0.59230  -0.58956  -0.58395
 Alpha  occ. eigenvalues --   -0.58177  -0.57905  -0.57794  -0.57465  -0.57346
 Alpha  occ. eigenvalues --   -0.56527  -0.56293  -0.56091  -0.55490  -0.55464
 Alpha  occ. eigenvalues --   -0.55176  -0.55062  -0.54614  -0.54300  -0.54031
 Alpha  occ. eigenvalues --   -0.53775  -0.53663  -0.53596  -0.53214  -0.53063
 Alpha  occ. eigenvalues --   -0.52946  -0.52860  -0.52786  -0.52261  -0.51928
 Alpha  occ. eigenvalues --   -0.51664  -0.51637  -0.51441  -0.51280  -0.51147
 Alpha  occ. eigenvalues --   -0.51086  -0.50698  -0.50644  -0.50553  -0.50450
 Alpha  occ. eigenvalues --   -0.50047  -0.50024  -0.49940  -0.49717  -0.49698
 Alpha  occ. eigenvalues --   -0.49552  -0.49073  -0.48933  -0.48907  -0.48755
 Alpha  occ. eigenvalues --   -0.48692  -0.48599  -0.48376  -0.48284  -0.47892
 Alpha  occ. eigenvalues --   -0.47570  -0.47491  -0.47381  -0.47313  -0.47238
 Alpha  occ. eigenvalues --   -0.47035  -0.46949  -0.46722  -0.46672  -0.46316
 Alpha  occ. eigenvalues --   -0.46197  -0.46082  -0.45747  -0.45690  -0.45556
 Alpha  occ. eigenvalues --   -0.45424  -0.45325  -0.45205  -0.44922  -0.44882
 Alpha  occ. eigenvalues --   -0.44635  -0.44365  -0.44314  -0.44248  -0.44050
 Alpha  occ. eigenvalues --   -0.43955  -0.43888  -0.43856  -0.43793  -0.43637
 Alpha  occ. eigenvalues --   -0.43386  -0.43296  -0.43269  -0.43242  -0.42985
 Alpha  occ. eigenvalues --   -0.42952  -0.42783  -0.42646  -0.42466  -0.42245
 Alpha  occ. eigenvalues --   -0.42225  -0.42213  -0.42063  -0.42002  -0.41735
 Alpha  occ. eigenvalues --   -0.41403  -0.41343  -0.41235  -0.40392  -0.40374
 Alpha  occ. eigenvalues --   -0.39920  -0.39723  -0.39323  -0.39099  -0.38944
 Alpha  occ. eigenvalues --   -0.38593  -0.38241  -0.38122  -0.38071  -0.37438
 Alpha  occ. eigenvalues --   -0.37274  -0.37192  -0.36781  -0.36590  -0.36318
 Alpha  occ. eigenvalues --   -0.35910  -0.35638  -0.34688  -0.34393  -0.34160
 Alpha  occ. eigenvalues --   -0.33711  -0.33157  -0.32469  -0.31920  -0.31513
 Alpha  occ. eigenvalues --   -0.31373  -0.31207  -0.30902  -0.30609  -0.30597
 Alpha  occ. eigenvalues --   -0.30355  -0.29731  -0.29466  -0.24034  -0.23364
 Alpha  occ. eigenvalues --   -0.21394  -0.21355
 Alpha virt. eigenvalues --   -0.08635  -0.08245  -0.02079  -0.01068   0.00094
 Alpha virt. eigenvalues --    0.00577   0.00765   0.02008   0.02432   0.02754
 Alpha virt. eigenvalues --    0.04212   0.04436   0.05489   0.05730   0.05892

 Mulliken charges:
               1
     1  Mg   0.821377
     2  C    0.141382
     3  C   -0.072394
     4  C   -0.088192
     5  C   -0.079407
     6  N   -0.220257
     7  C   -0.143067
     8  C    0.066461
     9  C   -0.054789
    10  C   -0.010679
    11  C    0.063585
    12  C    0.064026
    13  C   -0.078569
    14  H    0.015508
    15  N   -0.372561
    16  C    0.163201
    17  C   -0.137169
    18  C   -0.058537
    19  C    0.190588
    20  C    0.093541
    21  C   -0.010353
    22  O   -0.168309
    23  C    0.051852
    24  N   -0.300582
    25  C   -0.021029
    26  C   -0.011931
    27  C   -0.040256
    28  C    0.045000
    29  C    0.055022
    30  C    0.036440
    31  C   -0.036871
    32  N   -0.352652
    33  C    0.125103
    34  C   -0.196512
    35  C    0.022509
    36  C    0.045477
    37  C    0.117935
    38  C    0.064008
    39  O   -0.137391
    40  C   -0.139041
    41  C    0.228301
    42  O   -0.237460
    43  O   -0.322924
    44  C    0.183476
    45  H   -0.018140
    46  H   -0.048451
    47  H   -0.045697
    48  H    0.002325
    49  H   -0.000443
    50  H    0.003813
    51  H    0.026714
    52  H    0.004887
    53  H    0.013121
    54  H    0.020370
    55  H    0.050666
    56  H    0.037475
    57  H    0.040180
    58  H    0.005487
    59  H    0.031836
    60  H    0.019324
    61  H    0.059872
    62  H    0.032471
    63  H    0.026032
    64  H    0.015638
    65  H    0.028242
    66  H    0.025953
    67  H    0.028339
    68  H    0.025557
    69  H    0.018994
    70  H    0.017230
    71  H    0.020680
    72  H    0.021743
    73  H    0.015712
    74  H    0.029793
    75  H    0.034208
    76  H    0.055848
    77  H    0.031220
    78  H    0.037722
    79  H    0.027420
    80  Mg   0.824248
    81  C    0.010053
    82  C   -0.058335
    83  C   -0.077475
    84  C   -0.071134
    85  N   -0.187777
    86  C   -0.104821
    87  C   -0.021626
    88  C   -0.035996
    89  C   -0.028549
    90  C    0.088094
    91  C    0.049004
    92  C   -0.037965
    93  H    0.035303
    94  N   -0.382881
    95  C    0.143320
    96  C   -0.138014
    97  C   -0.053141
    98  C    0.096479
    99  C    0.105626
   100  C    0.029679
   101  O   -0.167270
   102  C    0.040803
   103  N   -0.248095
   104  C    0.043863
   105  C   -0.049680
   106  C   -0.064492
   107  C    0.033755
   108  C    0.074637
   109  C    0.034637
   110  C    0.005246
   111  N   -0.317529
   112  C    0.075652
   113  C   -0.206281
   114  C    0.001046
   115  C    0.122211
   116  C    0.136336
   117  C    0.060783
   118  O   -0.161536
   119  C   -0.025060
   120  C    0.186378
   121  O   -0.243523
   122  O   -0.299427
   123  C    0.194937
   124  H   -0.035370
   125  H   -0.014032
   126  H   -0.022066
   127  H    0.018014
   128  H   -0.009361
   129  H    0.017768
   130  H    0.020699
   131  H    0.014763
   132  H    0.007784
   133  H    0.024754
   134  H    0.015694
   135  H    0.014657
   136  H    0.021418
   137  H    0.041741
   138  H    0.018424
   139  H    0.065182
   140  H    0.023183
   141  H    0.023996
   142  H    0.019501
   143  H   -0.009331
   144  H    0.020090
   145  H    0.023941
   146  H    0.021314
   147  H    0.012428
   148  H    0.003382
   149  H    0.029270
   150  H    0.014354
   151  H    0.015692
   152  H    0.005774
   153  H    0.029859
   154  H    0.032443
   155  H    0.043034
   156  H    0.030141
   157  H    0.042741
   158  H    0.006637
 Sum of Mulliken charges =  -0.00000

 Dipole moment (field-independent basis, Debye):
    X=             -1.3736    Y=              8.7901    Z=              5.2808  Tot=             10.3460
 Quadrupole moment (field-independent basis, Debye-Ang):
   XX=           -272.8943   YY=           -584.1362   ZZ=           -488.7198
   XY=             11.9613   XZ=              7.8032   YZ=             -7.5525

 Normal termination of Gaussian 16 at Thu Sep  2 01:39:43 2021.
