 Gaussian 16, Revision A.03,
 Gaussian 16:  ES64L-G16RevA.03 25-Dec-2016

 ----------------------------------------------------------
 #p cam-b3lyp/Def2SVP td=(nstates=5) density=(transition=1)
 ----------------------------------------------------------

 --------------------------------
 TDDFT excited states in gaussian
 --------------------------------
 Symbolic Z-matrix:
 Charge =  0 Multiplicity = 1

                         Standard orientation:
 ---------------------------------------------------------------------
 Center     Atomic      Atomic             Coordinates (Angstroms)
 Number     Number       Type             X           Y           Z
 ---------------------------------------------------------------------
      1         12           0       -8.885348   -1.002833    0.512287
      2          6           0      -10.192868    2.022441   -0.575134
      3          6           0       -7.529007    0.528990    3.193327
      4          6           0       -7.528618   -3.942641    1.361811
      5          6           0      -10.195268   -2.470860   -2.384433
      6          7           0       -8.932878    1.077536    1.187035
      7          6           0       -9.573022    2.102090    0.676390
      8          6           0       -9.334960    3.349942    1.645752
      9          6           0       -7.990859    2.932549    2.203993
     10          6           0       -8.150172    1.379498    2.248479
     11          6           0       -6.850301    3.476349    1.316795
     12          6           0      -10.594108    3.575858    2.588495
     13          6           0      -10.689677    4.977012    3.200055
     14          1           0       -9.504389    5.917203    3.064711
     15          7           0       -7.859680   -1.651816    2.131045
     16          6           0       -7.453306   -0.850098    3.195114
     17          6           0       -6.932261   -1.753160    4.264763
     18          6           0       -6.862714   -3.099802    3.705979
     19          6           0       -7.363532   -2.877790    2.323474
     20          6           0       -6.510542   -1.251477    5.625533
     21          6           0       -6.429739   -4.493029    4.358451
     22          8           0       -6.497207   -5.576822    3.768768
     23          6           0       -5.931764   -4.442530    5.787815
     24          7           0       -8.767852   -2.852637   -0.407646
     25          6           0       -8.148517   -3.905858    0.118560
     26          6           0       -8.139007   -5.140445   -0.834863
     27          6           0       -9.187607   -4.692720   -1.863219
     28          6           0       -9.467431   -3.262459   -1.523608
     29          6           0       -6.748868   -5.483168   -1.439632
     30          6           0      -10.459486   -5.621937   -2.103451
     31          6           0      -11.753397   -5.188095   -1.496976
     32          7           0       -9.792976   -0.367714   -1.260265
     33          6           0      -10.320119   -1.059011   -2.298600
     34          6           0      -10.936670   -0.226570   -3.269087
     35          6           0      -10.921133    1.048827   -2.621614
     36          6           0      -10.232245    0.853780   -1.446321
     37          6           0      -11.511493   -0.463720   -4.641513
     38          6           0      -11.301974    2.428642   -2.680584
     39          8           0      -11.894615    3.071340   -3.520227
     40          6           0      -10.998128    3.105815   -1.306182
     41          6           0      -10.260057    4.353248   -1.525916
     42          8           0       -9.161058    4.378902   -2.058757
     43          8           0      -11.009061    5.522007   -1.234753
     44          6           0      -10.356227    6.802352   -1.549930
     45          1           0       -7.051579    1.072202    4.010156
     46          1           0       -7.037604   -4.874920    1.645863
     47          1           0      -10.545757   -2.953554   -3.298724
     48          1           0       -9.286480    4.266887    1.059964
     49          1           0       -7.824432    3.223973    3.240742
     50          1           0       -6.373896    4.201432    1.977499
     51          1           0       -7.211156    3.964277    0.410404
     52          1           0       -6.156865    2.646566    1.181819
     53          1           0      -10.573826    2.866785    3.416567
     54          1           0      -11.457142    3.469510    1.930840
     55          1           0      -10.915889    4.838709    4.256868
     56          1           0      -11.566085    5.451839    2.759658
     57          1           0       -7.121021   -0.406265    5.945434
     58          1           0       -5.466288   -0.965965    5.748273
     59          1           0       -6.717603   -2.032184    6.357312
     60          1           0       -5.159762   -3.673945    5.758978
     61          1           0       -5.446406   -5.355208    6.132356
     62          1           0       -6.763615   -4.236596    6.461600
     63          1           0       -8.465671   -6.043232   -0.318985
     64          1           0       -8.638512   -4.564095   -2.795269
     65          1           0       -6.945928   -5.709972   -2.487687
     66          1           0       -6.193599   -6.295398   -0.973093
     67          1           0       -6.104626   -4.614673   -1.302369
     68          1           0      -10.194631   -6.643152   -1.829214
     69          1           0      -10.701435   -5.618783   -3.166010
     70          1           0      -12.418871   -4.912010   -2.315256
     71          1           0      -11.737559   -4.242301   -0.953980
     72          1           0      -12.269088   -5.961765   -0.928012
     73          1           0      -11.353564   -1.485766   -4.987671
     74          1           0      -11.138488    0.305324   -5.318553
     75          1           0      -12.597833   -0.429017   -4.726521
     76          1           0      -11.911210    3.338166   -0.758740
     77          1           0      -10.864076    7.686033   -1.164323
     78          1           0      -10.347476    6.810667   -2.640203
     79          1           0       -9.329498    6.694273   -1.202273
     80         12           0        9.321070   -0.336767   -0.158782
     81          6           0        7.379874    2.602233   -0.075536
     82          6           0       11.968998    1.432318    1.019992
     83          6           0       11.170176   -3.160973   -0.370003
     84          6           0        6.700521   -1.944339   -1.773395
     85          7           0        9.667526    1.757901    0.306683
     86          6           0        8.699653    2.763499    0.378519
     87          6           0        9.296644    3.983704    1.012770
     88          6           0       10.815253    3.719947    0.878485
     89          6           0       10.824218    2.177287    0.723213
     90          6           0       11.556790    4.373112   -0.330352
     91          6           0        8.851071    4.276128    2.494967
     92          6           0        8.450526    5.693847    2.752729
     93          1           0        9.001595    6.341837    4.036637
     94          7           0       11.218842   -0.791665    0.359177
     95          6           0       12.172467    0.065461    0.933180
     96          6           0       13.353975   -0.647258    1.216066
     97          6           0       13.158419   -2.052484    0.816786
     98          6           0       11.833078   -2.054564    0.266320
     99          6           0       14.643999   -0.051422    1.698912
    100          6           0       14.121098   -3.318205    0.826228
    101          8           0       13.726667   -4.400339    0.461389
    102          6           0       15.531714   -3.225703    1.390298
    103          7           0        9.012300   -2.248304   -1.062193
    104          6           0        9.953858   -3.226019   -1.017020
    105          6           0        9.430625   -4.532889   -1.784274
    106          6           0        7.877735   -4.238177   -1.968096
    107          6           0        7.838189   -2.698501   -1.581530
    108          6           0       10.121181   -4.860306   -3.137067
    109          6           0        6.942734   -5.113874   -1.060033
    110          6           0        5.907841   -5.794031   -1.853806
    111          7           0        7.445242    0.202809   -0.846323
    112          6           0        6.440115   -0.594697   -1.391377
    113          6           0        5.251526    0.188227   -1.593720
    114          6           0        5.584472    1.441464   -1.121580
    115          6           0        6.864346    1.414426   -0.664676
    116          6           0        3.934077   -0.421170   -2.140089
    117          6           0        5.103520    2.798825   -0.940521
    118          8           0        4.060953    3.278610   -1.327995
    119          6           0        6.293679    3.636620   -0.254898
    120          6           0        6.659296    4.758633   -1.138795
    121          8           0        7.045769    4.631250   -2.330228
    122          8           0        6.465978    5.923900   -0.456447
    123          6           0        6.421909    7.136714   -1.315608
    124          1           0       12.785578    2.073158    1.358965
    125          1           0       11.699990   -4.107968   -0.490908
    126          1           0        5.914483   -2.442239   -2.344085
    127          1           0        9.148879    4.899458    0.439075
    128          1           0       11.390809    4.038261    1.747857
    129          1           0       11.159927    5.347375   -0.618661
    130          1           0       11.496735    3.665278   -1.157477
    131          1           0       12.636838    4.473079   -0.225692
    132          1           0        9.694767    3.961193    3.108751
    133          1           0        8.045912    3.611816    2.810184
    134          1           0        7.364157    5.603788    2.759150
    135          1           0        8.838533    6.332748    1.959516
    136          1           0       14.896745   -0.252098    2.740274
    137          1           0       14.565980    1.034746    1.673824
    138          1           0       15.558453   -0.286449    1.154928
    139          1           0       15.906791   -4.248263    1.407289
    140          1           0       15.551836   -2.684587    2.336737
    141          1           0       16.113712   -2.510027    0.808882
    142          1           0        9.653747   -5.422510   -1.195074
    143          1           0        7.627521   -4.370198   -3.021796
    144          1           0       10.852741   -4.136175   -3.497116
    145          1           0        9.415906   -4.974684   -3.960613
    146          1           0       10.624969   -5.818220   -3.005132
    147          1           0        6.416795   -4.455144   -0.367969
    148          1           0        7.453783   -5.903987   -0.510280
    149          1           0        6.222079   -6.824483   -2.021783
    150          1           0        5.577587   -5.346455   -2.790533
    151          1           0        4.964629   -5.774715   -1.307729
    152          1           0        3.982681   -1.506474   -2.048314
    153          1           0        3.694718   -0.034067   -3.131580
    154          1           0        3.175855   -0.086675   -1.433033
    155          1           0        6.004987    4.016101    0.725610
    156          1           0        6.131404    8.006566   -0.726718
    157          1           0        5.582348    6.970273   -1.990892
    158          1           0        7.385663    7.197192   -1.821973
 ---------------------------------------------------------------------

 SCF Done:  E(RCAM-B3LYP) =  -4069.84184184     A.U. after   18 cycles

 Excitation energies and oscillator strengths:

 Excited State   1:      Singlet-A      1.7347 eV  714.74 nm  f=0.5327  <S**2>=0.000
     310 -> 316       -0.17253
     311 -> 313       -0.16346
     312 -> 314        0.66669
     310 <- 316       -0.10381
 This state for optimization and/or second-order correction.
 Total Energy, E(TD-HF/TD-DFT) =  -4069.77809387
 Copying the excited state density for this state as the 1-particle RhoCI density.

 Excited State   2:      Singlet-A      1.7441 eV  710.89 nm  f=0.2620  <S**2>=0.000
     309 -> 315       -0.17334
     311 -> 313        0.66484
     312 -> 314        0.16365
     309 <- 315       -0.10390

 Excited State   3:      Singlet-A      2.2017 eV  563.14 nm  f=0.1124  <S**2>=0.000
     309 -> 313        0.64749
     311 -> 315        0.24720

 Excited State   4:      Singlet-A      2.2151 eV  559.71 nm  f=0.1878  <S**2>=0.000
     310 -> 314        0.64837
     312 -> 316        0.25493

 Excited State   5:      Singlet-A      2.8335 eV  437.57 nm  f=0.0000  <S**2>=0.000
     312 -> 313        0.70697

 The electronic state is 1-A.
 Alpha  occ. eigenvalues --  -46.87658 -46.87200 -19.25672 -19.23794 -19.20396
 Alpha  occ. eigenvalues --  -19.19906 -19.19524 -19.19362 -19.19049 -19.17795
 Alpha  occ. eigenvalues --  -14.42082 -14.41904 -14.41521 -14.41356 -14.40006
 Alpha  occ. eigenvalues --  -14.39308 -14.38573 -14.38526 -10.39441 -10.38751
 Alpha  occ. eigenvalues --  -10.37154 -10.36361 -10.35051 -10.33999 -10.32185
 Alpha  occ. eigenvalues --  -10.31216 -10.31071 -10.31037 -10.30944 -10.30892
 Alpha  occ. eigenvalues --  -10.30646 -10.30638 -10.30637 -10.30492 -10.30455
 Alpha  occ. eigenvalues --  -10.30346 -10.30210 -10.29937 -10.29752 -10.29115
 Alpha  occ. eigenvalues --  -10.28957 -10.28917 -10.28717 -10.28714 -10.28571
 Alpha  occ. eigenvalues --  -10.28155 -10.28081 -10.28012 -10.27989 -10.27920
 Alpha  occ. eigenvalues --  -10.27882 -10.27849 -10.27833 -10.27793 -10.27782
 Alpha  occ. eigenvalues --  -10.27657 -10.27626 -10.27519 -10.27499 -10.27425
 Alpha  occ. eigenvalues --  -10.27419 -10.27240 -10.27188 -10.27154 -10.27091
 Alpha  occ. eigenvalues --  -10.26968 -10.26958 -10.26747 -10.26674 -10.26542
 Alpha  occ. eigenvalues --  -10.26369 -10.26252 -10.26120 -10.26105 -10.25811
 Alpha  occ. eigenvalues --  -10.25792 -10.25729 -10.25663 -10.25657 -10.25506
 Alpha  occ. eigenvalues --  -10.25478 -10.25346 -10.24666 -10.24446 -10.24371
 Alpha  occ. eigenvalues --  -10.24077  -3.16423  -3.15929  -1.91334  -1.90842
 Alpha  occ. eigenvalues --   -1.90833  -1.90770  -1.90373  -1.90253  -1.15769
 Alpha  occ. eigenvalues --   -1.14376  -1.11727  -1.10404  -1.10335  -1.09468
 Alpha  occ. eigenvalues --   -1.06621  -1.06344  -1.05476  -1.04963  -1.04619
 Alpha  occ. eigenvalues --   -1.04046  -1.03361  -1.03059  -1.02572  -1.01445
 Alpha  occ. eigenvalues --   -0.92599  -0.92022  -0.89238  -0.89114  -0.88679
 Alpha  occ. eigenvalues --   -0.88462  -0.88184  -0.88047  -0.87197  -0.87047
 Alpha  occ. eigenvalues --   -0.87023  -0.86434  -0.86158  -0.85841  -0.84338
 Alpha  occ. eigenvalues --   -0.84222  -0.83845  -0.83574  -0.82927  -0.82660
 Alpha  occ. eigenvalues --   -0.82479  -0.82131  -0.81211  -0.80851  -0.80681
 Alpha  occ. eigenvalues --   -0.79961  -0.78491  -0.78253  -0.77340  -0.77149
 Alpha  occ. eigenvalues --   -0.76792  -0.76552  -0.75751  -0.75736  -0.74966
 Alpha  occ. eigenvalues --   -0.74900  -0.72898  -0.72714  -0.71070  -0.70947
 Alpha  occ. eigenvalues --   -0.69166  -0.68646  -0.68630  -0.68132  -0.67825
 Alpha  occ. eigenvalues --   -0.67621  -0.66567  -0.66521  -0.65536  -0.65197
 Alpha  occ. eigenvalues --   -0.64949  -0.64591  -0.64567  -0.64084  -0.64059
 Alpha  occ. eigenvalues --   -0.63895  -0.61960  -0.61137  -0.60541  -0.60342
 Alpha  occ. eigenvalues --   -0.60138  -0.59478  -0.59268  -0.59024  -0.58225
 Alpha  occ. eigenvalues --   -0.57908  -0.57873  -0.57706  -0.57639  -0.57514
 Alpha  occ. eigenvalues --   -0.56179  -0.55706  -0.55698  -0.55567  -0.55520
 Alpha  occ. eigenvalues --   -0.55340  -0.55006  -0.54687  -0.53884  -0.53857
 Alpha  occ. eigenvalues --   -0.53579  -0.53574  -0.53461  -0.53276  -0.52888
 Alpha  occ. eigenvalues --   -0.52647  -0.52607  -0.52566  -0.52248  -0.52027
 Alpha  occ. eigenvalues --   -0.51904  -0.51841  -0.51684  -0.51576  -0.51101
 Alpha  occ. eigenvalues --   -0.51045  -0.50905  -0.50636  -0.50597  -0.50479
 Alpha  occ. eigenvalues --   -0.50242  -0.50131  -0.49822  -0.49765  -0.49463
 Alpha  occ. eigenvalues --   -0.49424  -0.49413  -0.49129  -0.49122  -0.48913
 Alpha  occ. eigenvalues --   -0.48729  -0.48705  -0.48453  -0.48397  -0.47968
 Alpha  occ. eigenvalues --   -0.47691  -0.47653  -0.47275  -0.47266  -0.46806
 Alpha  occ. eigenvalues --   -0.46771  -0.46660  -0.46475  -0.46352  -0.46186
 Alpha  occ. eigenvalues --   -0.46166  -0.45912  -0.45865  -0.45799  -0.45690
 Alpha  occ. eigenvalues --   -0.45468  -0.45427  -0.45098  -0.44825  -0.44760
 Alpha  occ. eigenvalues --   -0.44689  -0.44542  -0.44472  -0.44354  -0.44223
 Alpha  occ. eigenvalues --   -0.43914  -0.43853  -0.43417  -0.43369  -0.43347
 Alpha  occ. eigenvalues --   -0.43224  -0.43123  -0.42934  -0.42891  -0.42875
 Alpha  occ. eigenvalues --   -0.42633  -0.42376  -0.42300  -0.41958  -0.41955
 Alpha  occ. eigenvalues --   -0.41897  -0.41669  -0.41312  -0.41243  -0.40970
 Alpha  occ. eigenvalues --   -0.40923  -0.40862  -0.40496  -0.40434  -0.40109
 Alpha  occ. eigenvalues --   -0.40095  -0.39884  -0.39176  -0.39070  -0.38867
 Alpha  occ. eigenvalues --   -0.38372  -0.38085  -0.37954  -0.37879  -0.37847
 Alpha  occ. eigenvalues --   -0.37472  -0.36772  -0.36517  -0.36351  -0.36045
 Alpha  occ. eigenvalues --   -0.36012  -0.35503  -0.34331  -0.34265  -0.34150
 Alpha  occ. eigenvalues --   -0.33813  -0.33173  -0.33145  -0.32112  -0.31782
 Alpha  occ. eigenvalues --   -0.31291  -0.31052  -0.30870  -0.30401  -0.30074
 Alpha  occ. eigenvalues --   -0.30001  -0.29580  -0.29453  -0.23988  -0.23789
 Alpha  occ. eigenvalues --   -0.21546  -0.21286
 Alpha virt. eigenvalues --   -0.09030  -0.08731  -0.01289  -0.01148   0.00077
 Alpha virt. eigenvalues --    0.00721   0.02579   0.02776   0.03416   0.03607
 Alpha virt. eigenvalues --    0.04496   0.04916   0.05361   0.05448   0.06114

 Mulliken charges:
               1
     1  Mg  11.997360
     2  C    6.024314
     3  C    5.984129
     4  C    5.974315
     5  C    6.009488
     6  N    7.012476
     7  C    5.965449
     8  C    6.000613
     9  C    5.996785
    10  C    6.029431
    11  C    6.003390
    12  C    6.003171
    13  C    6.000086
    14  H    0.996572
    15  N    6.990525
    16  C    6.048970
    17  C    6.015953
    18  C    6.024176
    19  C    6.031650
    20  C    5.994566
    21  C    6.013259
    22  O    8.028662
    23  C    5.994785
    24  N    6.993883
    25  C    6.035210
    26  C    5.989912
    27  C    6.009169
    28  C    5.972463
    29  C    5.999274
    30  C    6.001027
    31  C    6.002527
    32  N    6.997379
    33  C    5.965046
    34  C    5.968853
    35  C    5.994809
    36  C    5.973573
    37  C    6.005565
    38  C    5.987151
    39  O    7.969405
    40  C    5.997800
    41  C    5.993837
    42  O    7.995626
    43  O    7.998400
    44  C    6.001449
    45  H    1.011488
    46  H    1.003203
    47  H    0.987931
    48  H    1.003048
    49  H    0.998943
    50  H    1.003142
    51  H    1.015345
    52  H    0.997289
    53  H    0.987278
    54  H    1.008323
    55  H    0.995972
    56  H    1.003466
    57  H    1.016780
    58  H    1.021727
    59  H    1.015541
    60  H    1.004255
    61  H    1.014780
    62  H    1.008274
    63  H    0.998957
    64  H    0.998449
    65  H    1.011292
    66  H    0.997128
    67  H    0.998727
    68  H    0.989017
    69  H    1.000655
    70  H    1.002132
    71  H    1.002016
    72  H    0.989914
    73  H    0.980978
    74  H    0.981953
    75  H    0.976846
    76  H    0.992854
    77  H    0.995044
    78  H    1.000599
    79  H    0.994172
    80  Mg  11.999668
    81  C    6.007812
    82  C    5.999707
    83  C    5.992071
    84  C    6.000383
    85  N    7.004054
    86  C    5.990603
    87  C    6.003113
    88  C    5.998394
    89  C    6.005441
    90  C    5.998993
    91  C    6.000993
    92  C    6.000378
    93  H    0.998350
    94  N    6.998770
    95  C    6.007957
    96  C    6.005399
    97  C    6.004273
    98  C    6.008428
    99  C    5.998190
   100  C    6.003214
   101  O    8.006347
   102  C    5.999451
   103  N    6.996892
   104  C    6.008902
   105  C    5.998075
   106  C    6.001664
   107  C    5.994854
   108  C    5.999777
   109  C    6.001048
   110  C    6.000390
   111  N    7.000336
   112  C    5.991639
   113  C    5.991271
   114  C    6.000774
   115  C    5.991055
   116  C    6.000691
   117  C    5.995947
   118  O    7.993739
   119  C    5.998817
   120  C    5.999105
   121  O    7.999744
   122  O    7.999271
   123  C    6.000059
   124  H    1.004061
   125  H    1.000964
   126  H    0.996806
   127  H    0.999661
   128  H    1.000407
   129  H    1.004033
   130  H    1.000806
   131  H    0.999832
   132  H    0.996541
   133  H    1.000216
   134  H    1.000884
   135  H    0.999947
   136  H    1.005668
   137  H    1.004429
   138  H    1.005370
   139  H    1.003554
   140  H    1.001049
   141  H    1.001694
   142  H    0.999488
   143  H    0.999775
   144  H    0.999451
   145  H    1.002622
   146  H    0.999814
   147  H    1.000035
   148  H    0.996823
   149  H    0.998482
   150  H    1.001024
   151  H    0.999031
   152  H    0.995428
   153  H    0.995715
   154  H    0.994274
   155  H    0.997633
   156  H    0.998987
   157  H    1.000591
   158  H    0.998866
 Sum of Mulliken charges = 624.00000

 Dipole moment (field-independent basis, Debye):
    X=              7.9942    Y=             -3.2667    Z=              9.3474  Tot=             12.7261
 Quadrupole moment (field-independent basis, Debye-Ang):
   XX=            -49.6753   YY=              3.0815   ZZ=              8.4155
   XY=             15.2926   XZ=            -68.4765   YZ=            -11.3741

 Normal termination of Gaussian 16 at Thu Sep 23 13:22:38 2021.
