 Gaussian 16, Revision A.03,
 Gaussian 16:  ES64L-G16RevA.03 25-Dec-2016

 ----------------------------------------------------------
 #p cam-b3lyp/Def2SVP td=(nstates=5) density=(transition=1)
 ----------------------------------------------------------

 --------------------------------
 TDDFT excited states in gaussian
 --------------------------------
 Symbolic Z-matrix:
 Charge =  0 Multiplicity = 1

                         Standard orientation:
 ---------------------------------------------------------------------
 Center     Atomic      Atomic             Coordinates (Angstroms)
 Number     Number       Type             X           Y           Z
 ---------------------------------------------------------------------
      1         12           0      -17.330681   -0.660421    0.274894
      2          6           0      -17.389610    2.596046   -0.957778
      3          6           0      -16.592438    0.563525    3.404080
      4          6           0      -17.038156   -3.880019    1.250067
      5          6           0      -17.702204   -1.820160   -3.084672
      6          7           0      -16.928938    1.330698    1.053063
      7          6           0      -17.032153    2.519975    0.400074
      8          6           0      -16.853096    3.703390    1.359840
      9          6           0      -16.455577    2.959426    2.710704
     10          6           0      -16.695271    1.490236    2.347512
     11          6           0      -15.003892    3.212868    3.098959
     12          6           0      -18.142342    4.550101    1.654072
     13          6           0      -17.950145    5.998095    2.023251
     14          1           0      -16.625171    6.472607    2.423268
     15          7           0      -16.973882   -1.510980    2.066139
     16          6           0      -16.679121   -0.815850    3.256050
     17          6           0      -16.663386   -1.802241    4.304299
     18          6           0      -16.838730   -3.093057    3.744540
     19          6           0      -16.958812   -2.873736    2.282086
     20          6           0      -16.267110   -1.487967    5.731041
     21          6           0      -16.938871   -4.419232    4.373599
     22          8           0      -16.891130   -5.457747    3.749441
     23          6           0      -16.950827   -4.558270    5.939177
     24          7           0      -17.531032   -2.653327   -0.732533
     25          6           0      -17.341199   -3.776140   -0.106464
     26          6           0      -17.438563   -4.992599   -1.075633
     27          6           0      -17.721113   -4.374765   -2.432989
     28          6           0      -17.604533   -2.836736   -2.134158
     29          6           0      -16.138235   -5.917377   -0.944673
     30          6           0      -19.070541   -4.822021   -3.033736
     31          6           0      -19.042080   -6.019915   -4.055074
     32          7           0      -17.758480    0.115872   -1.546143
     33          6           0      -17.881498   -0.463119   -2.833630
     34          6           0      -18.143178    0.519969   -3.814637
     35          6           0      -17.866548    1.757780   -3.092502
     36          6           0      -17.679913    1.402571   -1.725961
     37          6           0      -18.236300    0.284384   -5.311118
     38          6           0      -17.745819    3.149412   -3.326986
     39          8           0      -17.894610    3.830267   -4.333946
     40          6           0      -17.495250    3.798307   -1.811365
     41          6           0      -16.264553    4.645843   -1.947868
     42          8           0      -15.160461    4.223359   -2.306950
     43          8           0      -16.527852    6.033683   -1.749292
     44          6           0      -15.348195    6.944852   -1.881363
     45          1           0      -16.357963    1.021717    4.367915
     46          1           0      -16.746416   -4.869804    1.606363
     47          1           0      -17.870148   -2.119714   -4.120919
     48          1           0      -16.027953    4.293972    0.961157
     49          1           0      -17.055346    3.277960    3.563197
     50          1           0      -14.586634    4.050766    2.541113
     51          1           0      -14.385143    2.318058    3.026108
     52          1           0      -14.880922    3.612991    4.105404
     53          1           0      -18.695259    4.039383    2.441686
     54          1           0      -18.792087    4.433238    0.786458
     55          1           0      -18.552503    6.178801    2.913265
     56          1           0      -18.274476    6.622820    1.190968
     57          1           0      -15.325047   -1.949662    6.026576
     58          1           0      -17.086934   -1.793292    6.382592
     59          1           0      -16.085968   -0.437601    5.958549
     60          1           0      -15.906985   -4.500573    6.248755
     61          1           0      -17.245611   -5.568519    6.223402
     62          1           0      -17.498800   -3.736694    6.398913
     63          1           0      -18.291938   -5.546313   -0.683714
     64          1           0      -16.899968   -4.535785   -3.129786
     65          1           0      -15.651594   -6.034070   -1.912905
     66          1           0      -16.362339   -6.947586   -0.667295
     67          1           0      -15.489162   -5.375438   -0.255611
     68          1           0      -19.474109   -3.948049   -3.546227
     69          1           0      -19.726660   -5.043041   -2.191726
     70          1           0      -18.830601   -5.606071   -5.041662
     71          1           0      -19.893049   -6.700137   -4.095280
     72          1           0      -18.127195   -6.521358   -3.741225
     73          1           0      -19.276781   -0.008005   -5.450137
     74          1           0      -17.586214   -0.530586   -5.627208
     75          1           0      -17.831308    1.068325   -5.952344
     76          1           0      -18.382433    4.362553   -1.521249
     77          1           0      -14.937349    6.925829   -2.890149
     78          1           0      -14.504521    6.802964   -1.205426
     79          1           0      -15.854776    7.898109   -1.730452
     80         12           0       17.465846   -0.591143    0.086272
     81          6           0       15.569184    2.335673    0.585590
     82          6           0       20.300810    1.269650    0.262695
     83          6           0       19.232072   -3.412754   -0.512816
     84          6           0       14.516705   -2.320619   -0.522020
     85          7           0       17.883793    1.532484    0.285902
     86          6           0       16.959915    2.535187    0.592822
     87          6           0       17.691893    3.799447    0.929615
     88          6           0       19.099493    3.535618    0.344099
     89          6           0       19.101001    1.986008    0.292181
     90          6           0       19.409495    4.108282   -1.074965
     91          6           0       17.722834    4.190576    2.455071
     92          6           0       17.384700    5.620389    2.734543
     93          1           0       18.290909    6.358204    3.737739
     94          7           0       19.442007   -0.998683    0.012428
     95          6           0       20.503680   -0.098777    0.203644
     96          6           0       21.733177   -0.783710    0.147453
     97          6           0       21.460686   -2.214139   -0.080469
     98          6           0       20.030351   -2.261507   -0.187445
     99          6           0       23.092960   -0.148848    0.163662
    100          6           0       22.411945   -3.470786   -0.292206
    101          8           0       21.952629   -4.577643   -0.445814
    102          6           0       23.925089   -3.331797   -0.204758
    103          7           0       16.942275   -2.561973   -0.551822
    104          6           0       17.876882   -3.528963   -0.741394
    105          6           0       17.175829   -4.888411   -1.221797
    106          6           0       15.635685   -4.615765   -0.928992
    107          6           0       15.677304   -3.053401   -0.648123
    108          6           0       17.418846   -5.304177   -2.699023
    109          6           0       15.054152   -5.432197    0.279689
    110          6           0       13.842041   -6.171123   -0.105627
    111          7           0       15.455398   -0.110663   -0.012841
    112          6           0       14.352232   -0.949391   -0.164301
    113          6           0       13.139231   -0.188921   -0.034028
    114          6           0       13.569003    1.095662    0.229627
    115          6           0       14.927772    1.107293    0.264008
    116          6           0       11.733964   -0.841833   -0.100994
    117          6           0       13.132209    2.459536    0.465396
    118          8           0       12.008329    2.905679    0.393811
    119          6           0       14.453854    3.349161    0.689633
    120          6           0       14.495507    4.409785   -0.333697
    121          8           0       14.494634    4.202963   -1.575600
    122          8           0       14.493312    5.618103    0.299375
    123          6           0       14.151119    6.768711   -0.578135
    124          1           0       21.164862    1.936856    0.287788
    125          1           0       19.723014   -4.362829   -0.732939
    126          1           0       13.605601   -2.860986   -0.785346
    127          1           0       17.348157    4.672746    0.373953
    128          1           0       19.908597    3.916180    0.967735
    129          1           0       18.916548    5.058173   -1.285970
    130          1           0       19.113635    3.344931   -1.795056
    131          1           0       20.465267    4.221275   -1.319969
    132          1           0       18.723942    3.923331    2.792857
    133          1           0       17.074166    3.544994    3.047868
    134          1           0       16.357281    5.524882    3.086165
    135          1           0       17.488848    6.205412    1.820851
    136          1           0       23.662991   -0.276030    1.084246
    137          1           0       22.981895    0.932570    0.095263
    138          1           0       23.798260   -0.415578   -0.622970
    139          1           0       24.314070   -4.348646   -0.240994
    140          1           0       24.224683   -2.726787    0.651492
    141          1           0       24.277446   -2.654531   -0.983290
    142          1           0       17.595270   -5.734150   -0.676672
    143          1           0       15.073140   -4.821322   -1.840919
    144          1           0       17.982030   -4.602414   -3.315087
    145          1           0       16.495348   -5.478866   -3.251614
    146          1           0       17.964171   -6.247907   -2.670697
    147          1           0       14.752652   -4.730410    1.058202
    148          1           0       15.732102   -6.179760    0.691042
    149          1           0       14.115795   -7.208904   -0.297625
    150          1           0       13.224382   -5.790872   -0.918497
    151          1           0       13.115866   -6.119609    0.705692
    152          1           0       11.837853   -1.917969    0.039748
    153          1           0       11.187190   -0.525165   -0.990352
    154          1           0       11.225213   -0.463784    0.784988
    155          1           0       14.475091    3.793529    1.685038
    156          1           0       14.035412    7.675346    0.015541
    157          1           0       13.147685    6.551521   -0.944906
    158          1           0       14.907042    6.799646   -1.363315
 ---------------------------------------------------------------------

 SCF Done:  E(RCAM-B3LYP) =  -4069.86286334     A.U. after   19 cycles

 Excitation energies and oscillator strengths:

 Excited State   1:      Singlet-A      1.7264 eV  718.16 nm  f=0.3747  <S**2>=0.000
     309 -> 315        0.17540
     312 -> 313        0.68638
     309 <- 315        0.10552
 This state for optimization and/or second-order correction.
 Total Energy, E(TD-HF/TD-DFT) =  -4069.79941877
 Copying the excited state density for this state as the 1-particle RhoCI density.

 Excited State   2:      Singlet-A      1.7437 eV  711.02 nm  f=0.3943  <S**2>=0.000
     310 -> 316        0.17836
     311 -> 314        0.68458
     310 <- 316        0.10694

 Excited State   3:      Singlet-A      2.2018 eV  563.10 nm  f=0.1545  <S**2>=0.000
     310 -> 314        0.65394
     311 -> 316       -0.24977

 Excited State   4:      Singlet-A      2.2226 eV  557.84 nm  f=0.1497  <S**2>=0.000
     309 -> 313        0.65058
     312 -> 315       -0.26121

 Excited State   5:      Singlet-A      3.1285 eV  396.31 nm  f=0.0000  <S**2>=0.000
     311 -> 313        0.70710

 The electronic state is 1-A.
 Alpha  occ. eigenvalues --  -46.87952 -46.87182 -19.25662 -19.24111 -19.19888
 Alpha  occ. eigenvalues --  -19.19516 -19.19413 -19.19239 -19.19039 -19.18185
 Alpha  occ. eigenvalues --  -14.42652 -14.42064 -14.41616 -14.41504 -14.40135
 Alpha  occ. eigenvalues --  -14.39317 -14.39290 -14.38556 -10.39431 -10.39027
 Alpha  occ. eigenvalues --  -10.36343 -10.35439 -10.35040 -10.34303 -10.32180
 Alpha  occ. eigenvalues --  -10.31665 -10.31574 -10.31148 -10.31123 -10.31050
 Alpha  occ. eigenvalues --  -10.30817 -10.30776 -10.30659 -10.30630 -10.30622
 Alpha  occ. eigenvalues --  -10.30621 -10.30438 -10.29921 -10.29666 -10.29099
 Alpha  occ. eigenvalues --  -10.28942 -10.28865 -10.28833 -10.28673 -10.28453
 Alpha  occ. eigenvalues --  -10.28138 -10.28069 -10.28063 -10.28013 -10.27902
 Alpha  occ. eigenvalues --  -10.27899 -10.27865 -10.27814 -10.27768 -10.27760
 Alpha  occ. eigenvalues --  -10.27736 -10.27733 -10.27724 -10.27643 -10.27613
 Alpha  occ. eigenvalues --  -10.27581 -10.27470 -10.27442 -10.27411 -10.27221
 Alpha  occ. eigenvalues --  -10.26951 -10.26847 -10.26776 -10.26728 -10.26506
 Alpha  occ. eigenvalues --  -10.26353 -10.26335 -10.26315 -10.26294 -10.26122
 Alpha  occ. eigenvalues --  -10.26087 -10.25960 -10.25827 -10.25814 -10.25794
 Alpha  occ. eigenvalues --  -10.25774 -10.25714 -10.25336 -10.24657 -10.24498
 Alpha  occ. eigenvalues --  -10.24357  -3.16648  -3.15910  -1.91559  -1.91096
 Alpha  occ. eigenvalues --   -1.90966  -1.90815  -1.90354  -1.90235  -1.15759
 Alpha  occ. eigenvalues --   -1.13408  -1.11709  -1.11095  -1.10325  -1.08591
 Alpha  occ. eigenvalues --   -1.06336  -1.05787  -1.05162  -1.04944  -1.03920
 Alpha  occ. eigenvalues --   -1.03348  -1.03344  -1.02555  -1.02392  -1.01428
 Alpha  occ. eigenvalues --   -0.92582  -0.92071  -0.89263  -0.89211  -0.88946
 Alpha  occ. eigenvalues --   -0.88664  -0.88379  -0.88032  -0.87737  -0.87457
 Alpha  occ. eigenvalues --   -0.87031  -0.86417  -0.86237  -0.85828  -0.84315
 Alpha  occ. eigenvalues --   -0.84301  -0.83832  -0.82959  -0.82909  -0.82175
 Alpha  occ. eigenvalues --   -0.82113  -0.81467  -0.81195  -0.80666  -0.80364
 Alpha  occ. eigenvalues --   -0.79997  -0.78762  -0.78237  -0.77325  -0.77242
 Alpha  occ. eigenvalues --   -0.76835  -0.76778  -0.75833  -0.75736  -0.75033
 Alpha  occ. eigenvalues --   -0.74885  -0.73094  -0.72884  -0.71590  -0.70931
 Alpha  occ. eigenvalues --   -0.69539  -0.68949  -0.68611  -0.68118  -0.67957
 Alpha  occ. eigenvalues --   -0.67594  -0.67262  -0.66547  -0.65759  -0.65518
 Alpha  occ. eigenvalues --   -0.65226  -0.65181  -0.64924  -0.64582  -0.64573
 Alpha  occ. eigenvalues --   -0.64044  -0.61947  -0.61365  -0.60323  -0.60323
 Alpha  occ. eigenvalues --   -0.60119  -0.59613  -0.59291  -0.59251  -0.58504
 Alpha  occ. eigenvalues --   -0.58210  -0.57753  -0.57692  -0.57623  -0.57325
 Alpha  occ. eigenvalues --   -0.56234  -0.56162  -0.55683  -0.55508  -0.54995
 Alpha  occ. eigenvalues --   -0.54947  -0.54600  -0.53977  -0.53844  -0.53560
 Alpha  occ. eigenvalues --   -0.53438  -0.53367  -0.53206  -0.52877  -0.52628
 Alpha  occ. eigenvalues --   -0.52586  -0.52464  -0.52344  -0.52228  -0.52025
 Alpha  occ. eigenvalues --   -0.51888  -0.51825  -0.51565  -0.51558  -0.51031
 Alpha  occ. eigenvalues --   -0.50991  -0.50896  -0.50534  -0.50462  -0.50111
 Alpha  occ. eigenvalues --   -0.50111  -0.49845  -0.49805  -0.49582  -0.49486
 Alpha  occ. eigenvalues --   -0.49454  -0.49412  -0.49260  -0.49110  -0.49054
 Alpha  occ. eigenvalues --   -0.48719  -0.48542  -0.48355  -0.48119  -0.47952
 Alpha  occ. eigenvalues --   -0.47678  -0.47628  -0.47472  -0.47259  -0.47189
 Alpha  occ. eigenvalues --   -0.47114  -0.46906  -0.46789  -0.46681  -0.46648
 Alpha  occ. eigenvalues --   -0.46460  -0.46148  -0.45849  -0.45776  -0.45746
 Alpha  occ. eigenvalues --   -0.45408  -0.45085  -0.45045  -0.45022  -0.44747
 Alpha  occ. eigenvalues --   -0.44677  -0.44661  -0.44509  -0.44457  -0.44337
 Alpha  occ. eigenvalues --   -0.44228  -0.44064  -0.43866  -0.43401  -0.43357
 Alpha  occ. eigenvalues --   -0.43346  -0.42993  -0.42921  -0.42876  -0.42856
 Alpha  occ. eigenvalues --   -0.42616  -0.42588  -0.42450  -0.42282  -0.41971
 Alpha  occ. eigenvalues --   -0.41941  -0.41881  -0.41810  -0.41469  -0.41277
 Alpha  occ. eigenvalues --   -0.41226  -0.40951  -0.40792  -0.40483  -0.40235
 Alpha  occ. eigenvalues --   -0.40075  -0.39837  -0.39404  -0.39156  -0.38844
 Alpha  occ. eigenvalues --   -0.38599  -0.38356  -0.37850  -0.37831  -0.37752
 Alpha  occ. eigenvalues --   -0.37204  -0.36959  -0.36759  -0.36333  -0.36135
 Alpha  occ. eigenvalues --   -0.35991  -0.35750  -0.34347  -0.34247  -0.34141
 Alpha  occ. eigenvalues --   -0.33823  -0.33484  -0.33156  -0.31764  -0.31634
 Alpha  occ. eigenvalues --   -0.31274  -0.31049  -0.30859  -0.30483  -0.29986
 Alpha  occ. eigenvalues --   -0.29748  -0.29563  -0.29456  -0.24161  -0.23970
 Alpha  occ. eigenvalues --   -0.21530  -0.21519
 Alpha virt. eigenvalues --   -0.09030  -0.09013  -0.01627  -0.01270   0.00238
 Alpha virt. eigenvalues --    0.00737   0.02425   0.02792   0.03445   0.03770
 Alpha virt. eigenvalues --    0.04507   0.04740   0.05238   0.05401   0.06132

 Mulliken charges:
               1
     1  Mg  11.998349
     2  C    6.032336
     3  C    5.991471
     4  C    5.973607
     5  C    6.002873
     6  N    7.016089
     7  C    5.961753
     8  C    6.012477
     9  C    5.986972
    10  C    6.028602
    11  C    5.995131
    12  C    6.002207
    13  C    6.000392
    14  H    0.995330
    15  N    6.986159
    16  C    6.042787
    17  C    6.018854
    18  C    6.019716
    19  C    6.034578
    20  C    5.994114
    21  C    6.008972
    22  O    8.030639
    23  C    5.997441
    24  N    6.991321
    25  C    6.031897
    26  C    5.997543
    27  C    6.004177
    28  C    5.977774
    29  C    5.997487
    30  C    6.004060
    31  C    5.999093
    32  N    7.001957
    33  C    5.962444
    34  C    5.975013
    35  C    5.991535
    36  C    5.967591
    37  C    6.001704
    38  C    5.987067
    39  O    7.966977
    40  C    5.990617
    41  C    5.995941
    42  O    7.996521
    43  O    7.997795
    44  C    6.002012
    45  H    1.014316
    46  H    1.001447
    47  H    0.986977
    48  H    1.002673
    49  H    1.003606
    50  H    1.015909
    51  H    0.998012
    52  H    1.003964
    53  H    0.989354
    54  H    1.008252
    55  H    0.996452
    56  H    1.004494
    57  H    1.019580
    58  H    1.018250
    59  H    1.017732
    60  H    1.008545
    61  H    1.014740
    62  H    1.004573
    63  H    0.996655
    64  H    1.000600
    65  H    1.008635
    66  H    0.999685
    67  H    0.994077
    68  H    1.006485
    69  H    0.989277
    70  H    1.002169
    71  H    0.994952
    72  H    0.993653
    73  H    0.983725
    74  H    0.981787
    75  H    0.985486
    76  H    0.993612
    77  H    0.999644
    78  H    0.993445
    79  H    0.995862
    80  Mg  11.999980
    81  C    6.000574
    82  C    6.000052
    83  C    5.999472
    84  C    5.999954
    85  N    7.000261
    86  C    5.999396
    87  C    6.000180
    88  C    5.999904
    89  C    6.000238
    90  C    5.999928
    91  C    6.000069
    92  C    6.000025
    93  H    0.999892
    94  N    6.999962
    95  C    6.000318
    96  C    6.000372
    97  C    6.000172
    98  C    6.000496
    99  C    5.999843
   100  C    6.000196
   101  O    8.000333
   102  C    5.999961
   103  N    6.999830
   104  C    6.000528
   105  C    5.999876
   106  C    6.000077
   107  C    5.999777
   108  C    5.999988
   109  C    6.000074
   110  C    6.000036
   111  N    6.999980
   112  C    5.999632
   113  C    5.999517
   114  C    6.000092
   115  C    5.999457
   116  C    6.000080
   117  C    5.999723
   118  O    7.999671
   119  C    5.999927
   120  C    5.999958
   121  O    8.000030
   122  O    7.999933
   123  C    5.999996
   124  H    1.000241
   125  H    1.000068
   126  H    0.999805
   127  H    1.000002
   128  H    1.000026
   129  H    1.000247
   130  H    1.000066
   131  H    1.000013
   132  H    0.999801
   133  H    0.999985
   134  H    1.000027
   135  H    1.000030
   136  H    1.000302
   137  H    1.000262
   138  H    1.000322
   139  H    1.000183
   140  H    1.000045
   141  H    1.000117
   142  H    0.999949
   143  H    1.000001
   144  H    1.000009
   145  H    1.000155
   146  H    0.999982
   147  H    0.999983
   148  H    0.999801
   149  H    0.999901
   150  H    1.000071
   151  H    0.999887
   152  H    0.999715
   153  H    0.999787
   154  H    0.999637
   155  H    0.999846
   156  H    0.999939
   157  H    1.000053
   158  H    0.999979
 Sum of Mulliken charges = 624.00000

 Dipole moment (field-independent basis, Debye):
    X=              1.8636    Y=             -3.6436    Z=              9.8857  Tot=             10.6993
 Quadrupole moment (field-independent basis, Debye-Ang):
   XX=            -54.5832   YY=              2.0414   ZZ=              5.7396
   XY=             60.7915   XZ=           -170.7714   YZ=             -8.2924

 Normal termination of Gaussian 16 at Thu Sep 23 05:20:56 2021.
