 Gaussian 16, Revision A.03,
 Gaussian 16:  ES64L-G16RevA.03 25-Dec-2016

 -----------------------------------
 #p cam-b3lyp/Def2SVP td=(nstates=5)
 -----------------------------------

 --------------------------------
 TDDFT excited states in gaussian
 --------------------------------
 Symbolic Z-matrix:
 Charge =  0 Multiplicity = 1

                         Standard orientation:
 ---------------------------------------------------------------------
 Center     Atomic      Atomic             Coordinates (Angstroms)
 Number     Number       Type             X           Y           Z
 ---------------------------------------------------------------------
      1         12           0       11.576571    0.026155    0.626147
      2          6           0        8.355678   -1.095769   -0.419235
      3          6           0       12.806614   -2.469813   -1.181927
      4          6           0       14.595433    1.543759    0.695788
      5          6           0        9.929915    3.035087    1.593124
      6          7           0       10.711010   -1.603703   -0.507878
      7          6           0        9.363564   -1.948534   -0.749737
      8          6           0        9.206068   -3.240812   -1.611460
      9          6           0       10.690195   -3.672637   -1.781451
     10          6           0       11.471737   -2.568758   -1.038077
     11          6           0       10.818826   -5.105306   -1.237731
     12          6           0        8.454352   -3.110497   -3.006014
     13          6           0        7.123796   -3.842276   -3.138839
     14          1           0        6.979762   -4.849126   -4.298312
     15          7           0       13.433204   -0.411437   -0.027782
     16          6           0       13.738801   -1.536463   -0.793413
     17          6           0       15.129149   -1.642853   -0.981195
     18          6           0       15.731841   -0.582721   -0.329516
     19          6           0       14.639487    0.247639    0.135924
     20          6           0       15.939300   -2.757824   -1.741049
     21          6           0       17.230629   -0.415569   -0.240138
     22          8           0       18.021310   -1.229860   -0.614184
     23          6           0       17.733782    0.897730    0.538173
     24          7           0       12.189445    2.024881    1.007722
     25          6           0       13.512700    2.372815    1.007798
     26          6           0       13.577882    3.937838    1.239657
     27          6           0       12.168886    4.401833    1.644947
     28          6           0       11.350242    3.079536    1.388140
     29          6           0       14.702698    4.400570    2.121504
     30          6           0       11.693951    5.483509    0.682729
     31          6           0       10.621059    6.420069    1.171337
     32          7           0        9.527766    0.747352    0.837021
     33          6           0        9.040469    1.959946    1.262898
     34          6           0        7.622811    1.943257    1.271581
     35          6           0        7.229491    0.719847    0.679312
     36          6           0        8.460987    0.096665    0.330828
     37          6           0        6.712108    3.041261    1.650738
     38          6           0        6.152094   -0.163676    0.213466
     39          8           0        4.928257   -0.019300    0.335528
     40          6           0        6.820084   -1.400396   -0.501351
     41          6           0        6.603716   -2.578874    0.294916
     42          8           0        7.248021   -2.773607    1.352708
     43          8           0        5.619829   -3.286243   -0.294518
     44          6           0        5.324122   -4.654286    0.212469
     45          1           0       13.246023   -3.302125   -1.736297
     46          1           0       15.596094    1.975780    0.764498
     47          1           0        9.367645    3.882681    1.989656
     48          1           0        8.675979   -4.001680   -1.038669
     49          1           0       11.033711   -3.652800   -2.815270
     50          1           0       11.883461   -5.335489   -1.208856
     51          1           0       10.322277   -5.882114   -1.819048
     52          1           0       10.422774   -5.202595   -0.226276
     53          1           0        9.103423   -3.643797   -3.700597
     54          1           0        8.368254   -2.061137   -3.288233
     55          1           0        6.344326   -3.083463   -3.215682
     56          1           0        6.948539   -4.430996   -2.237707
     57          1           0       16.564111   -2.226716   -2.459418
     58          1           0       15.284074   -3.447815   -2.272512
     59          1           0       16.504536   -3.446627   -1.113280
     60          1           0       18.816437    0.797981    0.609702
     61          1           0       17.203807    0.834372    1.488846
     62          1           0       17.377002    1.694284   -0.114681
     63          1           0       13.806107    4.324301    0.245723
     64          1           0       12.047181    4.776748    2.661132
     65          1           0       14.387076    5.312797    2.627055
     66          1           0       15.549019    4.575033    1.456823
     67          1           0       15.075482    3.644386    2.811401
     68          1           0       11.355287    5.086170   -0.274543
     69          1           0       12.513428    6.111691    0.333580
     70          1           0       10.440032    6.336436    2.242787
     71          1           0        9.700796    6.175839    0.640316
     72          1           0       10.813590    7.437853    0.832140
     73          1           0        7.162951    3.700989    2.392766
     74          1           0        5.826554    2.555262    2.060969
     75          1           0        6.544514    3.606548    0.733683
     76          1           0        6.552511   -1.520722   -1.551137
     77          1           0        4.247309   -4.690003    0.040927
     78          1           0        5.615993   -4.816144    1.249700
     79          1           0        5.681983   -5.421308   -0.475172
     80         12           0      -10.661566    0.811951    0.097972
     81          6           0      -11.512235   -2.593040    0.422758
     82          6           0       -7.501196   -0.181656   -0.421116
     83          6           0      -10.094937    3.934924   -0.680866
     84          6           0      -14.176193    1.446977   -0.022873
     85          7           0       -9.655822   -1.180938   -0.029022
     86          6           0      -10.136481   -2.425164    0.204668
     87          6           0       -9.077885   -3.507664    0.144965
     88          6           0       -7.772086   -2.615577    0.144117
     89          6           0       -8.291894   -1.219949   -0.132017
     90          6           0       -6.922320   -2.674893    1.480051
     91          6           0       -9.053204   -4.593850   -1.017136
     92          6           0       -9.874312   -4.406639   -2.320534
     93          1           0       -9.273098   -4.976641   -3.659343
     94          7           0       -8.931832    1.746051   -0.350259
     95          6           0       -7.764371    1.180580   -0.626471
     96          6           0       -6.818432    2.230634   -1.093110
     97          6           0       -7.578835    3.509207   -1.002602
     98          6           0       -8.938905    3.079094   -0.676809
     99          6           0       -5.357333    1.989867   -1.361652
    100          6           0       -7.041827    4.878055   -1.329588
    101          8           0       -5.855237    4.989782   -1.627634
    102          6           0       -7.890502    6.201498   -1.387739
    103          7           0      -11.998477    2.510766   -0.423381
    104          6           0      -11.414735    3.654838   -0.520675
    105          6           0      -12.554174    4.766251   -0.595342
    106          6           0      -13.806892    3.888327   -0.628815
    107          6           0      -13.306408    2.483373   -0.353957
    108          6           0      -12.599259    5.866290    0.478273
    109          6           0      -14.506084    3.811757   -2.083455
    110          6           0      -15.900551    4.452326   -2.209101
    111          7           0      -12.489089   -0.271685    0.111340
    112          6           0      -13.803755    0.106858    0.181227
    113          6           0      -14.661255   -1.045812    0.560833
    114          6           0      -13.814866   -2.190427    0.547289
    115          6           0      -12.488439   -1.601066    0.373583
    116          6           0      -16.199489   -1.057039    0.705153
    117          6           0      -13.703812   -3.605134    0.675728
    118          8           0      -14.522954   -4.537829    0.739009
    119          6           0      -12.188521   -3.930885    0.677839
    120          6           0      -11.887109   -4.626216    2.008621
    121          8           0      -11.650479   -5.769320    2.296624
    122          8           0      -11.706025   -3.631042    2.975241
    123          6           0      -11.283907   -4.062160    4.344110
    124          1           0       -6.482288   -0.534512   -0.594764
    125          1           0       -9.848229    4.975109   -0.907040
    126          1           0      -15.215060    1.700809    0.196346
    127          1           0       -9.136955   -4.000852    1.115042
    128          1           0       -7.104129   -2.958409   -0.646207
    129          1           0       -7.415127   -3.295456    2.227727
    130          1           0       -7.030748   -1.655431    1.848619
    131          1           0       -5.902018   -2.984114    1.252441
    132          1           0       -9.342332   -5.542052   -0.563719
    133          1           0       -8.019027   -4.757742   -1.321876
    134          1           0      -10.000207   -3.329865   -2.433938
    135          1           0      -10.809259   -4.965914   -2.336046
    136          1           0       -4.775115    2.908576   -1.429888
    137          1           0       -5.311296    1.326212   -2.225914
    138          1           0       -5.047858    1.349387   -0.535094
    139          1           0       -8.522094    6.503205   -0.551326
    140          1           0       -8.612318    6.101386   -2.198339
    141          1           0       -7.268495    7.079423   -1.559866
    142          1           0      -12.464505    5.367584   -1.499400
    143          1           0      -14.639123    4.132531    0.032298
    144          1           0      -11.784180    5.767285    1.195351
    145          1           0      -13.565972    5.898887    0.981888
    146          1           0      -12.455178    6.869835    0.077964
    147          1           0      -14.649882    2.782084   -2.407992
    148          1           0      -13.806340    4.293851   -2.766472
    149          1           0      -16.578078    3.968791   -2.913279
    150          1           0      -15.718853    5.451668   -2.604481
    151          1           0      -16.291274    4.398568   -1.192885
    152          1           0      -16.707225   -0.180088    0.304914
    153          1           0      -16.361140   -1.095682    1.782128
    154          1           0      -16.570946   -1.997413    0.298697
    155          1           0      -11.964207   -4.607446   -0.146150
    156          1           0      -11.600743   -5.041064    4.703253
    157          1           0      -11.784397   -3.344026    4.993372
    158          1           0      -10.231203   -3.977812    4.614692
 ---------------------------------------------------------------------

 SCF Done:  E(RCAM-B3LYP) =  -4069.79412159     A.U. after   18 cycles

 Excitation energies and oscillator strengths:

 Excited State   1:      Singlet-A      1.7213 eV  720.27 nm  f=0.4626  <S**2>=0.000
     310 -> 316        0.16941
     312 -> 314        0.68155
     310 <- 316        0.10294
 This state for optimization and/or second-order correction.
 Total Energy, E(TD-HF/TD-DFT) =  -4069.73086325
 Copying the excited state density for this state as the 1-particle RhoCI density.

 Excited State   2:      Singlet-A      1.7690 eV  700.86 nm  f=0.3540  <S**2>=0.000
     309 -> 315        0.18376
     311 -> 313        0.67780
     309 <- 315        0.10552

 Excited State   3:      Singlet-A      2.2584 eV  549.00 nm  f=0.1134  <S**2>=0.000
     310 -> 314        0.63670
     312 -> 316       -0.28968

 Excited State   4:      Singlet-A      2.2835 eV  542.95 nm  f=0.1005  <S**2>=0.000
     309 -> 313        0.63650
     311 -> 315       -0.29645

 Excited State   5:      Singlet-A      2.9486 eV  420.48 nm  f=0.0000  <S**2>=0.000
     312 -> 313        0.70698

 The electronic state is 1-A.
 Alpha  occ. eigenvalues --  -46.89967 -46.88497 -19.26520 -19.24516 -19.20336
 Alpha  occ. eigenvalues --  -19.19652 -19.19645 -19.19374 -19.18720 -19.18474
 Alpha  occ. eigenvalues --  -14.42519 -14.42214 -14.42167 -14.41743 -14.40337
 Alpha  occ. eigenvalues --  -14.40058 -14.39491 -14.38454 -10.39799 -10.39512
 Alpha  occ. eigenvalues --  -10.35600 -10.35483 -10.35465 -10.35377 -10.32868
 Alpha  occ. eigenvalues --  -10.31788 -10.31621 -10.31479 -10.31414 -10.31021
 Alpha  occ. eigenvalues --  -10.30974 -10.30920 -10.30673 -10.30638 -10.30588
 Alpha  occ. eigenvalues --  -10.30462 -10.30072 -10.30005 -10.29996 -10.29764
 Alpha  occ. eigenvalues --  -10.29601 -10.29330 -10.29004 -10.28881 -10.28698
 Alpha  occ. eigenvalues --  -10.28671 -10.28644 -10.28330 -10.28198 -10.28127
 Alpha  occ. eigenvalues --  -10.28010 -10.27947 -10.27908 -10.27826 -10.27760
 Alpha  occ. eigenvalues --  -10.27723 -10.27603 -10.27540 -10.27479 -10.27297
 Alpha  occ. eigenvalues --  -10.27275 -10.27172 -10.27133 -10.27101 -10.27098
 Alpha  occ. eigenvalues --  -10.27072 -10.26991 -10.26907 -10.26823 -10.26734
 Alpha  occ. eigenvalues --  -10.26459 -10.26458 -10.26434 -10.26348 -10.26302
 Alpha  occ. eigenvalues --  -10.26244 -10.26233 -10.26098 -10.25984 -10.25830
 Alpha  occ. eigenvalues --  -10.25731 -10.25724 -10.25404 -10.25204 -10.25138
 Alpha  occ. eigenvalues --  -10.24820  -3.18445  -3.17094  -1.93334  -1.92900
 Alpha  occ. eigenvalues --   -1.92749  -1.91972  -1.91530  -1.91421  -1.16654
 Alpha  occ. eigenvalues --   -1.15978  -1.11969  -1.09443  -1.09240  -1.08653
 Alpha  occ. eigenvalues --   -1.07402  -1.07198  -1.06650  -1.04723  -1.04104
 Alpha  occ. eigenvalues --   -1.03910  -1.03201  -1.03166  -1.02821  -1.01731
 Alpha  occ. eigenvalues --   -0.93489  -0.92202  -0.89713  -0.89647  -0.89337
 Alpha  occ. eigenvalues --   -0.88730  -0.88696  -0.88516  -0.88208  -0.87318
 Alpha  occ. eigenvalues --   -0.86806  -0.86629  -0.86486  -0.85284  -0.84806
 Alpha  occ. eigenvalues --   -0.84794  -0.84231  -0.83876  -0.83284  -0.82810
 Alpha  occ. eigenvalues --   -0.81903  -0.81696  -0.81124  -0.80716  -0.80443
 Alpha  occ. eigenvalues --   -0.80299  -0.78422  -0.77715  -0.77622  -0.77365
 Alpha  occ. eigenvalues --   -0.76920  -0.76672  -0.76604  -0.76250  -0.75261
 Alpha  occ. eigenvalues --   -0.75116  -0.73218  -0.72735  -0.72298  -0.71710
 Alpha  occ. eigenvalues --   -0.69468  -0.69247  -0.69177  -0.68615  -0.68597
 Alpha  occ. eigenvalues --   -0.67744  -0.67423  -0.67230  -0.66767  -0.65686
 Alpha  occ. eigenvalues --   -0.65594  -0.65589  -0.65422  -0.64984  -0.64781
 Alpha  occ. eigenvalues --   -0.64557  -0.63078  -0.62236  -0.60509  -0.60132
 Alpha  occ. eigenvalues --   -0.60096  -0.59622  -0.59420  -0.59370  -0.58513
 Alpha  occ. eigenvalues --   -0.58455  -0.58199  -0.57982  -0.57226  -0.57131
 Alpha  occ. eigenvalues --   -0.56401  -0.56263  -0.56039  -0.55781  -0.55599
 Alpha  occ. eigenvalues --   -0.54979  -0.54961  -0.54694  -0.54445  -0.54269
 Alpha  occ. eigenvalues --   -0.53863  -0.53804  -0.53525  -0.53158  -0.52929
 Alpha  occ. eigenvalues --   -0.52863  -0.52738  -0.52466  -0.52391  -0.51920
 Alpha  occ. eigenvalues --   -0.51675  -0.51668  -0.51469  -0.51446  -0.51222
 Alpha  occ. eigenvalues --   -0.51153  -0.50998  -0.50556  -0.50531  -0.50337
 Alpha  occ. eigenvalues --   -0.50145  -0.49956  -0.49915  -0.49855  -0.49694
 Alpha  occ. eigenvalues --   -0.49386  -0.49162  -0.48927  -0.48912  -0.48779
 Alpha  occ. eigenvalues --   -0.48471  -0.48411  -0.48407  -0.48243  -0.48197
 Alpha  occ. eigenvalues --   -0.48051  -0.47805  -0.47534  -0.47502  -0.47471
 Alpha  occ. eigenvalues --   -0.47324  -0.47128  -0.46942  -0.46837  -0.46550
 Alpha  occ. eigenvalues --   -0.46406  -0.46282  -0.46151  -0.46072  -0.45997
 Alpha  occ. eigenvalues --   -0.45807  -0.45601  -0.45440  -0.45295  -0.45265
 Alpha  occ. eigenvalues --   -0.45142  -0.44911  -0.44777  -0.44719  -0.44308
 Alpha  occ. eigenvalues --   -0.44114  -0.44110  -0.43819  -0.43701  -0.43483
 Alpha  occ. eigenvalues --   -0.43457  -0.43278  -0.43198  -0.43067  -0.43033
 Alpha  occ. eigenvalues --   -0.42781  -0.42559  -0.42549  -0.42290  -0.42169
 Alpha  occ. eigenvalues --   -0.41960  -0.41919  -0.41909  -0.41648  -0.41625
 Alpha  occ. eigenvalues --   -0.41370  -0.41165  -0.40829  -0.40594  -0.40574
 Alpha  occ. eigenvalues --   -0.40194  -0.40094  -0.39885  -0.39154  -0.39145
 Alpha  occ. eigenvalues --   -0.38763  -0.38375  -0.38207  -0.38104  -0.37592
 Alpha  occ. eigenvalues --   -0.37566  -0.37218  -0.36803  -0.36694  -0.36582
 Alpha  occ. eigenvalues --   -0.36239  -0.35990  -0.34929  -0.34342  -0.34171
 Alpha  occ. eigenvalues --   -0.34150  -0.33548  -0.32917  -0.31815  -0.31776
 Alpha  occ. eigenvalues --   -0.31323  -0.30950  -0.30880  -0.30841  -0.30743
 Alpha  occ. eigenvalues --   -0.30539  -0.29152  -0.28912  -0.24393  -0.24257
 Alpha  occ. eigenvalues --   -0.21428  -0.21236
 Alpha virt. eigenvalues --   -0.08811  -0.08738  -0.01933  -0.01684  -0.00518
 Alpha virt. eigenvalues --    0.00582   0.01289   0.01979   0.02193   0.02750
 Alpha virt. eigenvalues --    0.04383   0.04556   0.04760   0.05049   0.05535

 Mulliken charges:
               1
     1  Mg   0.849581
     2  C   -0.035780
     3  C   -0.127596
     4  C   -0.088487
     5  C   -0.059112
     6  N   -0.306907
     7  C   -0.024949
     8  C   -0.013016
     9  C   -0.067151
    10  C    0.093600
    11  C    0.060711
    12  C    0.056367
    13  C   -0.082555
    14  H    0.016204
    15  N   -0.421921
    16  C    0.201561
    17  C   -0.158760
    18  C   -0.012291
    19  C    0.124699
    20  C    0.150612
    21  C   -0.040010
    22  O   -0.163519
    23  C    0.032930
    24  N   -0.321032
    25  C    0.081209
    26  C   -0.032026
    27  C   -0.024581
    28  C    0.083658
    29  C    0.078935
    30  C   -0.005260
    31  C    0.032782
    32  N   -0.303182
    33  C    0.079970
    34  C   -0.204878
    35  C    0.040369
    36  C    0.083685
    37  C    0.124840
    38  C    0.054454
    39  O   -0.186576
    40  C   -0.001793
    41  C    0.227609
    42  O   -0.252797
    43  O   -0.319975
    44  C    0.163933
    45  H   -0.039066
    46  H   -0.061748
    47  H   -0.037063
    48  H    0.007555
    49  H    0.019338
    50  H    0.005380
    51  H    0.019835
    52  H    0.021058
    53  H    0.017063
    54  H    0.023467
    55  H    0.047112
    56  H    0.015574
    57  H    0.039277
    58  H   -0.011741
    59  H    0.038915
    60  H    0.030920
    61  H    0.046590
    62  H    0.048762
    63  H    0.020589
    64  H    0.012651
    65  H    0.018345
    66  H    0.010015
    67  H    0.016773
    68  H    0.005725
    69  H   -0.002435
    70  H    0.015864
    71  H    0.009045
    72  H    0.008793
    73  H    0.009117
    74  H    0.043172
    75  H    0.037941
    76  H    0.028304
    77  H    0.043398
    78  H    0.067861
    79  H    0.040056
    80  Mg   0.823330
    81  C   -0.024893
    82  C   -0.081933
    83  C   -0.031380
    84  C   -0.095778
    85  N   -0.272450
    86  C   -0.080981
    87  C    0.045165
    88  C   -0.108164
    89  C    0.036470
    90  C    0.079856
    91  C    0.047789
    92  C   -0.094540
    93  H    0.009685
    94  N   -0.388653
    95  C    0.149231
    96  C   -0.157690
    97  C   -0.043812
    98  C    0.147902
    99  C    0.134835
   100  C    0.013515
   101  O   -0.208813
   102  C    0.034146
   103  N   -0.199515
   104  C    0.025780
   105  C   -0.006795
   106  C   -0.076310
   107  C    0.051438
   108  C    0.059955
   109  C   -0.001550
   110  C    0.015475
   111  N   -0.315824
   112  C    0.113957
   113  C   -0.179848
   114  C    0.031367
   115  C    0.134849
   116  C    0.119670
   117  C    0.021260
   118  O   -0.183067
   119  C   -0.017347
   120  C    0.214350
   121  O   -0.176130
   122  O   -0.370269
   123  C    0.173529
   124  H   -0.035840
   125  H   -0.077802
   126  H   -0.024509
   127  H    0.012869
   128  H    0.011139
   129  H    0.013661
   130  H    0.017247
   131  H    0.033416
   132  H    0.019686
   133  H    0.021061
   134  H    0.051591
   135  H    0.052365
   136  H    0.054233
   137  H    0.017540
   138  H    0.017008
   139  H    0.036610
   140  H    0.036507
   141  H    0.025216
   142  H    0.009674
   143  H    0.000897
   144  H    0.012107
   145  H    0.014605
   146  H    0.005162
   147  H    0.019486
   148  H    0.001001
   149  H    0.020800
   150  H    0.015748
   151  H    0.009251
   152  H    0.020980
   153  H    0.031139
   154  H    0.046088
   155  H    0.038280
   156  H    0.048493
   157  H    0.026380
   158  H    0.030100
 Sum of Mulliken charges =  -0.00000

 Dipole moment (field-independent basis, Debye):
    X=              0.6161    Y=              3.8431    Z=              0.9458  Tot=              4.0055
 Quadrupole moment (field-independent basis, Debye-Ang):
   XX=           -514.5997   YY=           -497.3110   ZZ=           -505.1415
   XY=            -63.4811   XZ=            -10.5430   YZ=             15.2993

 Normal termination of Gaussian 16 at Wed Sep 15 14:57:08 2021.
