 Gaussian 16, Revision A.03,
 Gaussian 16:  ES64L-G16RevA.03 25-Dec-2016

 ----------------------------------------------------------
 #p cam-b3lyp/Def2SVP td=(nstates=5) density=(transition=1)
 ----------------------------------------------------------

 --------------------------------
 TDDFT excited states in gaussian
 --------------------------------
 Symbolic Z-matrix:
 Charge =  0 Multiplicity = 1

                         Standard orientation:
 ---------------------------------------------------------------------
 Center     Atomic      Atomic             Coordinates (Angstroms)
 Number     Number       Type             X           Y           Z
 ---------------------------------------------------------------------
      1         12           0       26.279420    0.544214   -0.083718
      2          6           0       24.698405   -1.967356   -1.711330
      3          6           0       27.074137   -1.632661    2.503632
      4          6           0       27.855318    3.058022    1.546861
      5          6           0       25.074346    2.810210   -2.406670
      6          7           0       25.997644   -1.519832    0.222663
      7          6           0       25.292625   -2.393335   -0.539786
      8          6           0       25.452339   -3.818613   -0.078837
      9          6           0       25.971403   -3.661075    1.400779
     10          6           0       26.408781   -2.160009    1.365275
     11          6           0       25.044024   -4.063233    2.622663
     12          6           0       26.527833   -4.606558   -0.954173
     13          6           0       26.302644   -6.147198   -0.930637
     14          1           0       25.624903   -6.851002    0.256996
     15          7           0       27.275749    0.755021    1.827111
     16          6           0       27.491969   -0.317150    2.732038
     17          6           0       28.230118    0.156466    3.863904
     18          6           0       28.465875    1.556457    3.620188
     19          6           0       27.857029    1.815000    2.266539
     20          6           0       28.710942   -0.700429    4.982058
     21          6           0       29.194620    2.578504    4.485481
     22          8           0       29.263596    3.822232    4.259286
     23          6           0       29.897535    2.116823    5.750773
     24          7           0       26.390739    2.632998   -0.336079
     25          6           0       27.270615    3.458351    0.365907
     26          6           0       27.513894    4.850144   -0.286013
     27          6           0       26.593152    4.665935   -1.618709
     28          6           0       26.000933    3.310170   -1.492706
     29          6           0       27.030316    5.944377    0.674325
     30          6           0       27.317407    4.910467   -2.909672
     31          6           0       26.671548    5.958725   -3.769893
     32          7           0       25.076732    0.570693   -1.627488
     33          6           0       24.663187    1.536208   -2.536900
     34          6           0       23.817746    0.956694   -3.513803
     35          6           0       23.736551   -0.434669   -3.237823
     36          6           0       24.600971   -0.655102   -2.144788
     37          6           0       23.146643    1.598237   -4.667042
     38          6           0       23.076809   -1.672411   -3.591617
     39          8           0       22.228164   -1.994674   -4.399954
     40          6           0       23.777393   -2.728092   -2.611183
     41          6           0       22.816989   -3.729542   -2.078346
     42          8           0       21.707795   -3.512113   -1.662142
     43          8           0       23.280888   -4.988017   -2.125763
     44          6           0       22.342676   -6.011458   -1.583231
     45          1           0       27.117578   -2.346877    3.328687
     46          1           0       28.250027    3.881612    2.145351
     47          1           0       24.747127    3.435228   -3.240089
     48          1           0       24.496555   -4.331433    0.027518
     49          1           0       26.903763   -4.216789    1.495420
     50          1           0       24.143821   -4.517314    2.208319
     51          1           0       24.756106   -3.277358    3.319150
     52          1           0       25.619610   -4.762565    3.229373
     53          1           0       27.486987   -4.302526   -0.534654
     54          1           0       26.439036   -4.241179   -1.977337
     55          1           0       27.316241   -6.528471   -1.055896
     56          1           0       25.807275   -6.394050   -1.869294
     57          1           0       29.634405   -1.249043    4.796484
     58          1           0       27.881739   -1.370322    5.206103
     59          1           0       28.760979   -0.174239    5.934864
     60          1           0       29.126519    2.073066    6.519856
     61          1           0       30.598762    2.916757    5.987166
     62          1           0       30.369349    1.137783    5.665415
     63          1           0       28.594375    4.944997   -0.394676
     64          1           0       25.785414    5.397676   -1.581894
     65          1           0       26.483441    5.600136    1.552369
     66          1           0       26.510207    6.711311    0.100880
     67          1           0       27.933508    6.385760    1.096656
     68          1           0       27.349405    4.034522   -3.557724
     69          1           0       28.364985    5.190446   -2.798086
     70          1           0       27.375868    6.704340   -4.137690
     71          1           0       25.898630    6.499318   -3.224225
     72          1           0       26.144836    5.386195   -4.533928
     73          1           0       22.860383    2.642071   -4.534937
     74          1           0       22.154674    1.145641   -4.657722
     75          1           0       23.743034    1.460825   -5.569068
     76          1           0       24.377278   -3.226492   -3.373207
     77          1           0       21.542988   -6.248619   -2.286350
     78          1           0       22.007031   -5.763874   -0.576045
     79          1           0       22.896927   -6.940744   -1.449312
     80         12           0      -26.582390    0.519031    0.146794
     81          6           0      -24.190549   -1.884691    1.154574
     82          6           0      -27.791618   -1.746607   -1.897182
     83          6           0      -28.007811    3.055606   -1.423552
     84          6           0      -24.600675    2.872918    1.924543
     85          7           0      -26.074491   -1.671148   -0.130023
     86          6           0      -25.189316   -2.438222    0.393767
     87          6           0      -25.465164   -3.915223    0.044670
     88          6           0      -26.325029   -3.810506   -1.315917
     89          6           0      -26.720190   -2.281650   -1.175828
     90          6           0      -25.561602   -4.131961   -2.661291
     91          6           0      -26.358684   -4.618769    1.194248
     92          6           0      -26.175544   -6.135750    1.523425
     93          1           0      -25.691230   -7.050249    0.338526
     94          7           0      -27.909383    0.623690   -1.316445
     95          6           0      -28.334638   -0.494504   -2.017837
     96          6           0      -29.352435   -0.053411   -3.035569
     97          6           0      -29.432542    1.390378   -2.854125
     98          6           0      -28.453646    1.827256   -1.854952
     99          6           0      -29.993947   -1.045099   -3.987636
    100          6           0      -30.366048    2.345899   -3.564262
    101          8           0      -30.368371    3.574810   -3.407505
    102          6           0      -31.377267    1.794121   -4.485380
    103          7           0      -26.403823    2.739533    0.318935
    104          6           0      -27.092888    3.511071   -0.502227
    105          6           0      -27.053342    5.020909    0.005001
    106          6           0      -25.873869    4.913570    1.116040
    107          6           0      -25.632783    3.406831    1.151878
    108          6           0      -26.820268    6.066679   -1.135012
    109          6           0      -26.155311    5.486184    2.543958
    110          6           0      -25.387353    6.717387    2.951161
    111          7           0      -24.870849    0.526380    1.504040
    112          6           0      -24.224729    1.582182    2.115759
    113          6           0      -23.071105    1.125636    2.771417
    114          6           0      -23.000356   -0.225535    2.382671
    115          6           0      -24.071105   -0.569847    1.592069
    116          6           0      -22.134597    1.883360    3.570172
    117          6           0      -22.227104   -1.382422    2.619033
    118          8           0      -21.242214   -1.679168    3.348495
    119          6           0      -22.823655   -2.454178    1.599969
    120          6           0      -22.903413   -3.789299    2.244511
    121          8           0      -23.580474   -4.119736    3.215863
    122          8           0      -22.120873   -4.686096    1.450803
    123          6           0      -22.039289   -6.081363    1.901307
    124          1           0      -28.246164   -2.568200   -2.455466
    125          1           0      -28.533445    3.878740   -1.910713
    126          1           0      -24.043979    3.590749    2.531662
    127          1           0      -24.522455   -4.342299   -0.296404
    128          1           0      -27.100052   -4.575648   -1.287233
    129          1           0      -24.481982   -4.170497   -2.517860
    130          1           0      -25.712044   -3.349875   -3.405270
    131          1           0      -25.935385   -5.102426   -2.987576
    132          1           0      -27.420709   -4.442703    1.022641
    133          1           0      -26.207668   -4.064653    2.120878
    134          1           0      -27.080302   -6.615991    1.897475
    135          1           0      -25.306742   -6.207493    2.178927
    136          1           0      -31.070923   -0.895742   -4.072547
    137          1           0      -29.813040   -2.083904   -3.711401
    138          1           0      -29.464028   -1.023397   -4.939585
    139          1           0      -30.909160    1.219333   -5.285000
    140          1           0      -31.967560    2.604189   -4.913791
    141          1           0      -32.127320    1.147580   -4.029846
    142          1           0      -27.951971    5.303642    0.553176
    143          1           0      -24.914859    5.264157    0.731772
    144          1           0      -26.622629    5.560252   -2.079943
    145          1           0      -26.029053    6.672298   -0.692617
    146          1           0      -27.692216    6.719415   -1.143322
    147          1           0      -25.898708    4.705849    3.260772
    148          1           0      -27.223143    5.676500    2.653575
    149          1           0      -24.900320    7.023513    2.026266
    150          1           0      -24.613228    6.407323    3.654038
    151          1           0      -26.024374    7.534068    3.288511
    152          1           0      -22.721975    2.422674    4.312815
    153          1           0      -21.670404    2.738866    3.079440
    154          1           0      -21.444799    1.202920    4.069797
    155          1           0      -22.165801   -2.497060    0.731343
    156          1           0      -21.349878   -6.649150    1.275914
    157          1           0      -22.992978   -6.566852    1.693405
    158          1           0      -21.655313   -6.106010    2.920592
 ---------------------------------------------------------------------

 SCF Done:  E(RCAM-B3LYP) =  -4069.78122719     A.U. after   19 cycles

 Excitation energies and oscillator strengths:

 Excited State   1:      Singlet-A      1.6462 eV  753.16 nm  f=0.3912  <S**2>=0.000
     309 -> 316       -0.17001
     312 -> 313        0.68912
     309 <- 316       -0.10749
 This state for optimization and/or second-order correction.
 Total Energy, E(TD-HF/TD-DFT) =  -4069.72073127
 Copying the excited state density for this state as the 1-particle RhoCI density.

 Excited State   2:      Singlet-A      1.7997 eV  688.92 nm  f=0.3657  <S**2>=0.000
     310 -> 315        0.21210
     311 -> 314        0.67498
     310 <- 315        0.10953

 Excited State   3:      Singlet-A      2.2245 eV  557.36 nm  f=0.0772  <S**2>=0.000
     310 -> 314        0.62918
     311 -> 315       -0.30789

 Excited State   4:      Singlet-A      2.2270 eV  556.73 nm  f=0.1165  <S**2>=0.000
     309 -> 313        0.63806
     312 -> 316        0.29151

 Excited State   5:      Singlet-A      3.1981 eV  387.68 nm  f=0.0000  <S**2>=0.000
     312 -> 314        0.70710

 The electronic state is 1-A.
 Alpha  occ. eigenvalues --  -46.89391 -46.87132 -19.25151 -19.23941 -19.20218
 Alpha  occ. eigenvalues --  -19.19207 -19.18997 -19.18743 -19.18479 -19.18451
 Alpha  occ. eigenvalues --  -14.42838 -14.42151 -14.41721 -14.41669 -14.39971
 Alpha  occ. eigenvalues --  -14.39509 -14.38742 -14.38566 -10.39292 -10.38575
 Alpha  occ. eigenvalues --  -10.35208 -10.35130 -10.35124 -10.34486 -10.32027
 Alpha  occ. eigenvalues --  -10.31522 -10.31338 -10.31087 -10.30964 -10.30936
 Alpha  occ. eigenvalues --  -10.30750 -10.30713 -10.30707 -10.30618 -10.30466
 Alpha  occ. eigenvalues --  -10.30308 -10.30247 -10.30097 -10.29838 -10.29331
 Alpha  occ. eigenvalues --  -10.29329 -10.28931 -10.28838 -10.28728 -10.28661
 Alpha  occ. eigenvalues --  -10.28644 -10.28570 -10.28391 -10.28384 -10.28306
 Alpha  occ. eigenvalues --  -10.28231 -10.28128 -10.28016 -10.28011 -10.27850
 Alpha  occ. eigenvalues --  -10.27841 -10.27836 -10.27780 -10.27636 -10.27594
 Alpha  occ. eigenvalues --  -10.27539 -10.27518 -10.27497 -10.27490 -10.27467
 Alpha  occ. eigenvalues --  -10.27459 -10.27184 -10.26973 -10.26797 -10.26381
 Alpha  occ. eigenvalues --  -10.26374 -10.26228 -10.26026 -10.25982 -10.25907
 Alpha  occ. eigenvalues --  -10.25826 -10.25823 -10.25810 -10.25743 -10.25591
 Alpha  occ. eigenvalues --  -10.25460 -10.25404 -10.25368 -10.25222 -10.25106
 Alpha  occ. eigenvalues --  -10.24640  -3.17844  -3.15991  -1.92748  -1.92311
 Alpha  occ. eigenvalues --   -1.92130  -1.90881  -1.90425  -1.90336  -1.17292
 Alpha  occ. eigenvalues --   -1.13965  -1.10124  -1.09420  -1.07392  -1.07286
 Alpha  occ. eigenvalues --   -1.07240  -1.06725  -1.05781  -1.05210  -1.04509
 Alpha  occ. eigenvalues --   -1.03554  -1.03487  -1.02702  -1.01468  -1.01395
 Alpha  occ. eigenvalues --   -0.93358  -0.92956  -0.89702  -0.89497  -0.88795
 Alpha  occ. eigenvalues --   -0.88609  -0.88572  -0.87897  -0.87665  -0.87551
 Alpha  occ. eigenvalues --   -0.87375  -0.87210  -0.86908  -0.86400  -0.84317
 Alpha  occ. eigenvalues --   -0.84273  -0.83972  -0.83804  -0.82723  -0.82465
 Alpha  occ. eigenvalues --   -0.82058  -0.81646  -0.81509  -0.81043  -0.80667
 Alpha  occ. eigenvalues --   -0.80493  -0.78968  -0.78345  -0.77765  -0.77712
 Alpha  occ. eigenvalues --   -0.77346  -0.76968  -0.76515  -0.75888  -0.75235
 Alpha  occ. eigenvalues --   -0.75204  -0.73222  -0.72871  -0.72254  -0.71835
 Alpha  occ. eigenvalues --   -0.69079  -0.68930  -0.68676  -0.68594  -0.68179
 Alpha  occ. eigenvalues --   -0.67925  -0.67226  -0.66689  -0.65923  -0.65849
 Alpha  occ. eigenvalues --   -0.65660  -0.65594  -0.65342  -0.64763  -0.64599
 Alpha  occ. eigenvalues --   -0.64066  -0.62325  -0.61255  -0.60535  -0.60310
 Alpha  occ. eigenvalues --   -0.60145  -0.59921  -0.59287  -0.58955  -0.58361
 Alpha  occ. eigenvalues --   -0.58346  -0.57988  -0.57740  -0.57698  -0.57337
 Alpha  occ. eigenvalues --   -0.56994  -0.56076  -0.55766  -0.55487  -0.55478
 Alpha  occ. eigenvalues --   -0.55173  -0.54964  -0.54446  -0.53931  -0.53793
 Alpha  occ. eigenvalues --   -0.53530  -0.53332  -0.53219  -0.52987  -0.52964
 Alpha  occ. eigenvalues --   -0.52879  -0.52605  -0.52543  -0.52472  -0.52421
 Alpha  occ. eigenvalues --   -0.52240  -0.52134  -0.51963  -0.51554  -0.51298
 Alpha  occ. eigenvalues --   -0.51139  -0.51109  -0.50916  -0.50548  -0.50346
 Alpha  occ. eigenvalues --   -0.50301  -0.50086  -0.49967  -0.49865  -0.49598
 Alpha  occ. eigenvalues --   -0.49559  -0.49200  -0.48994  -0.48863  -0.48786
 Alpha  occ. eigenvalues --   -0.48665  -0.48380  -0.48374  -0.48213  -0.48043
 Alpha  occ. eigenvalues --   -0.47984  -0.47808  -0.47754  -0.47614  -0.47312
 Alpha  occ. eigenvalues --   -0.47311  -0.47202  -0.47030  -0.46791  -0.46696
 Alpha  occ. eigenvalues --   -0.46589  -0.46344  -0.46299  -0.46102  -0.45909
 Alpha  occ. eigenvalues --   -0.45585  -0.45339  -0.45183  -0.44911  -0.44898
 Alpha  occ. eigenvalues --   -0.44760  -0.44534  -0.44226  -0.44038  -0.43928
 Alpha  occ. eigenvalues --   -0.43911  -0.43879  -0.43557  -0.43499  -0.43335
 Alpha  occ. eigenvalues --   -0.43273  -0.43162  -0.42987  -0.42605  -0.42397
 Alpha  occ. eigenvalues --   -0.42335  -0.42031  -0.41937  -0.41934  -0.41687
 Alpha  occ. eigenvalues --   -0.41579  -0.41401  -0.41171  -0.41057  -0.40967
 Alpha  occ. eigenvalues --   -0.40879  -0.40754  -0.40646  -0.40482  -0.40420
 Alpha  occ. eigenvalues --   -0.40377  -0.40288  -0.40053  -0.40037  -0.39029
 Alpha  occ. eigenvalues --   -0.38487  -0.38237  -0.37957  -0.37829  -0.37605
 Alpha  occ. eigenvalues --   -0.37398  -0.37183  -0.37018  -0.36600  -0.36446
 Alpha  occ. eigenvalues --   -0.36106  -0.35637  -0.34582  -0.34475  -0.34120
 Alpha  occ. eigenvalues --   -0.33901  -0.33548  -0.33329  -0.31793  -0.31522
 Alpha  occ. eigenvalues --   -0.31293  -0.30720  -0.30699  -0.30502  -0.30245
 Alpha  occ. eigenvalues --   -0.29935  -0.29563  -0.29292  -0.24301  -0.24159
 Alpha  occ. eigenvalues --   -0.21670  -0.21022
 Alpha virt. eigenvalues --   -0.08951  -0.08611  -0.02647  -0.01605  -0.00234
 Alpha virt. eigenvalues --    0.00125   0.02178   0.02260   0.02326   0.03175
 Alpha virt. eigenvalues --    0.04582   0.04781   0.05481   0.05510   0.05609

 Mulliken charges:
               1
     1  Mg  12.004668
     2  C    5.973734
     3  C    6.009394
     4  C    6.035927
     5  C    6.009616
     6  N    6.986797
     7  C    6.036157
     8  C    5.987007
     9  C    6.010822
    10  C    5.963698
    11  C    6.005255
    12  C    5.997012
    13  C    5.999798
    14  H    1.006819
    15  N    7.007057
    16  C    5.950845
    17  C    5.987659
    18  C    5.974955
    19  C    5.963633
    20  C    6.004827
    21  C    5.986912
    22  O    7.961329
    23  C    6.005833
    24  N    7.021032
    25  C    5.961825
    26  C    6.010886
    27  C    5.987022
    28  C    6.018911
    29  C    6.000296
    30  C    5.993141
    31  C    5.999658
    32  N    6.994710
    33  C    6.025636
    34  C    6.035940
    35  C    6.001936
    36  C    6.035671
    37  C    5.995003
    38  C    6.012821
    39  O    8.025315
    40  C    6.004330
    41  C    6.002919
    42  O    8.002447
    43  O    8.002095
    44  C    5.997826
    45  H    0.984356
    46  H    1.002279
    47  H    1.015979
    48  H    0.999758
    49  H    0.995935
    50  H    0.983461
    51  H    1.000674
    52  H    0.996406
    53  H    1.012910
    54  H    0.992180
    55  H    1.002749
    56  H    0.995445
    57  H    0.979574
    58  H    0.985461
    59  H    0.984125
    60  H    0.989133
    61  H    0.984194
    62  H    0.992664
    63  H    1.003323
    64  H    1.004552
    65  H    1.004922
    66  H    0.990998
    67  H    1.004919
    68  H    0.997698
    69  H    1.013764
    70  H    1.007727
    71  H    1.004240
    72  H    0.995327
    73  H    1.019246
    74  H    1.017710
    75  H    1.023848
    76  H    1.003952
    77  H    1.000615
    78  H    1.005443
    79  H    1.005258
    80  Mg  12.000013
    81  C    6.000081
    82  C    6.000051
    83  C    5.999956
    84  C    5.999941
    85  N    7.000043
    86  C    5.999951
    87  C    6.000003
    88  C    6.000009
    89  C    5.999949
    90  C    5.999992
    91  C    5.999997
    92  C    6.000000
    93  H    0.999983
    94  N    6.999991
    95  C    5.999968
    96  C    6.000025
    97  C    5.999973
    98  C    6.000043
    99  C    6.000000
   100  C    6.000009
   101  O    8.000008
   102  C    5.999999
   103  N    6.999970
   104  C    6.000012
   105  C    6.000012
   106  C    5.999981
   107  C    6.000038
   108  C    5.999992
   109  C    6.000008
   110  C    6.000000
   111  N    7.000002
   112  C    6.000032
   113  C    5.999983
   114  C    6.000003
   115  C    5.999965
   116  C    5.999994
   117  C    5.999991
   118  O    7.999989
   119  C    5.999994
   120  C    5.999997
   121  O    8.000020
   122  O    7.999985
   123  C    6.000004
   124  H    1.000000
   125  H    1.000009
   126  H    1.000001
   127  H    0.999981
   128  H    1.000014
   129  H    0.999978
   130  H    0.999984
   131  H    1.000007
   132  H    1.000012
   133  H    1.000016
   134  H    1.000024
   135  H    1.000006
   136  H    1.000024
   137  H    1.000015
   138  H    0.999989
   139  H    0.999988
   140  H    1.000013
   141  H    1.000021
   142  H    1.000024
   143  H    0.999980
   144  H    0.999978
   145  H    0.999997
   146  H    1.000015
   147  H    1.000015
   148  H    1.000020
   149  H    0.999978
   150  H    1.000003
   151  H    1.000017
   152  H    1.000020
   153  H    0.999968
   154  H    0.999997
   155  H    0.999960
   156  H    0.999972
   157  H    1.000008
   158  H    1.000012
 Sum of Mulliken charges = 624.00000

 Dipole moment (field-independent basis, Debye):
    X=             -5.6355    Y=              0.6517    Z=             -9.6506  Tot=             11.1945
 Quadrupole moment (field-independent basis, Debye-Ang):
   XX=           -293.3512   YY=              3.3066   ZZ=             -5.3385
   XY=             13.5979   XZ=           -254.2617   YZ=             -7.8059

 Normal termination of Gaussian 16 at Wed Sep 22 20:38:01 2021.
