 Gaussian 16, Revision A.03,
 Gaussian 16:  ES64L-G16RevA.03 25-Dec-2016

 -----------------------------------
 #p cam-b3lyp/Def2SVP td=(nstates=5)
 -----------------------------------

 --------------------------------
 TDDFT excited states in gaussian
 --------------------------------
 Symbolic Z-matrix:
 Charge =  0 Multiplicity = 1

                         Standard orientation:
 ---------------------------------------------------------------------
 Center     Atomic      Atomic             Coordinates (Angstroms)
 Number     Number       Type             X           Y           Z
 ---------------------------------------------------------------------
      1         12           0       26.835717   -0.713811    0.251862
      2          6           0       27.454924    2.306824   -1.175670
      3          6           0       25.943215    0.660230    3.288064
      4          6           0       26.469523   -3.869154    1.529783
      5          6           0       28.165622   -2.285606   -2.723318
      6          7           0       26.921676    1.236442    1.008416
      7          6           0       26.960698    2.393546    0.160198
      8          6           0       26.498023    3.594443    0.883744
      9          6           0       26.434857    3.052445    2.381894
     10          6           0       26.433004    1.544112    2.270012
     11          6           0       27.664821    3.556377    3.290425
     12          6           0       25.229770    4.272776    0.280440
     13          6           0       25.293934    5.762204    0.171096
     14          1           0       25.973861    6.518917    1.379388
     15          7           0       26.211237   -1.495892    2.130942
     16          6           0       25.917581   -0.720749    3.213201
     17          6           0       25.531006   -1.591018    4.270286
     18          6           0       25.579560   -2.954970    3.781922
     19          6           0       26.043329   -2.847400    2.358121
     20          6           0       25.230891   -1.072915    5.693843
     21          6           0       25.235184   -4.275312    4.397102
     22          8           0       25.409452   -5.407972    3.933666
     23          6           0       24.513178   -4.193741    5.795129
     24          7           0       27.362490   -2.842464   -0.457859
     25          6           0       27.014343   -3.912202    0.212935
     26          6           0       27.125653   -5.185855   -0.622561
     27          6           0       27.669985   -4.657082   -1.980316
     28          6           0       27.761843   -3.156003   -1.713233
     29          6           0       28.080328   -6.308366    0.032756
     30          6           0       26.621697   -5.011752   -3.125096
     31          6           0       25.221933   -4.349931   -3.159300
     32          7           0       27.800917   -0.130687   -1.525653
     33          6           0       28.213115   -0.870753   -2.617719
     34          6           0       28.570958    0.103439   -3.668760
     35          6           0       28.302940    1.361522   -3.219391
     36          6           0       27.826460    1.152362   -1.874448
     37          6           0       29.266383   -0.254541   -4.936838
     38          6           0       28.314463    2.793493   -3.517437
     39          8           0       28.665868    3.404196   -4.512922
     40          6           0       27.764444    3.442661   -2.172292
     41          6           0       28.845830    4.285153   -1.622315
     42          8           0       30.008318    3.948906   -1.336780
     43          8           0       28.271525    5.534967   -1.508340
     44          6           0       29.100127    6.522057   -0.803842
     45          1           0       25.603586    1.057014    4.246903
     46          1           0       26.218781   -4.841134    1.961230
     47          1           0       28.496501   -2.742073   -3.657856
     48          1           0       27.314740    4.308263    0.769100
     49          1           0       25.490873    3.380683    2.815866
     50          1           0       28.223138    4.382752    2.850552
     51          1           0       28.390728    2.743382    3.289385
     52          1           0       27.207572    3.715278    4.266157
     53          1           0       24.359989    4.034407    0.892684
     54          1           0       25.176948    3.833261   -0.715520
     55          1           0       24.310820    6.230636    0.146308
     56          1           0       25.736141    6.252666   -0.696193
     57          1           0       24.263114   -0.590217    5.829402
     58          1           0       26.082033   -0.419702    5.885401
     59          1           0       25.138772   -1.873668    6.427293
     60          1           0       25.241240   -3.900959    6.551678
     61          1           0       23.939103   -5.110264    5.929994
     62          1           0       23.688255   -3.481406    5.819666
     63          1           0       26.124364   -5.589518   -0.770922
     64          1           0       28.628661   -5.090543   -2.265337
     65          1           0       27.411799   -7.082474    0.411192
     66          1           0       28.638447   -5.885316    0.868627
     67          1           0       28.790897   -6.845969   -0.593780
     68          1           0       26.431293   -6.076054   -3.262379
     69          1           0       27.136388   -4.618095   -4.002187
     70          1           0       25.260273   -3.768422   -4.080533
     71          1           0       25.018249   -3.750038   -2.273201
     72          1           0       24.397865   -5.061342   -3.212695
     73          1           0       28.873513    0.481686   -5.637392
     74          1           0       29.064030   -1.276415   -5.258202
     75          1           0       30.301820    0.068935   -4.838716
     76          1           0       26.988079    4.081126   -2.593031
     77          1           0       28.520739    7.436816   -0.932159
     78          1           0       30.014998    6.613629   -1.389277
     79          1           0       29.403464    6.251519    0.207752
     80         12           0      -27.566844   -0.282219   -0.359080
     81          6           0      -25.633157    2.594639   -0.124533
     82          6           0      -28.819783    0.444122    2.751501
     83          6           0      -29.296073   -3.267951   -0.459429
     84          6           0      -25.854819   -1.254886   -3.235444
     85          7           0      -27.317063    1.390862    1.077452
     86          6           0      -26.577187    2.503770    0.935149
     87          6           0      -26.789804    3.570202    2.034761
     88          6           0      -27.649369    2.748928    3.088574
     89          6           0      -27.940440    1.388116    2.291860
     90          6           0      -26.818943    2.586522    4.411444
     91          6           0      -27.568754    4.807113    1.349532
     92          6           0      -26.919720    6.213283    1.510898
     93          1           0      -25.912938    6.319601    2.712908
     94          7           0      -28.819818   -1.342834    0.953093
     95          6           0      -29.282155   -0.807187    2.172940
     96          6           0      -30.337220   -1.656946    2.682520
     97          6           0      -30.456753   -2.748092    1.812559
     98          6           0      -29.549277   -2.456753    0.641585
     99          6           0      -30.890152   -1.473906    4.103062
    100          6           0      -31.365405   -3.996791    1.964203
    101          8           0      -31.433384   -4.936855    1.150407
    102          6           0      -32.318139   -4.058629    3.170482
    103          7           0      -27.480070   -2.026785   -1.649018
    104          6           0      -28.385606   -3.116427   -1.469266
    105          6           0      -28.049086   -4.260536   -2.448340
    106          6           0      -27.138455   -3.479526   -3.506524
    107          6           0      -26.834846   -2.145586   -2.775199
    108          6           0      -27.420596   -5.413853   -1.683753
    109          6           0      -27.921980   -3.207494   -4.859350
    110          6           0      -29.326323   -2.521700   -4.969325
    111          7           0      -26.021750    0.423687   -1.428411
    112          6           0      -25.396330   -0.068360   -2.578136
    113          6           0      -24.372498    0.842068   -2.976917
    114          6           0      -24.448530    1.904640   -2.094632
    115          6           0      -25.395618    1.576939   -1.093144
    116          6           0      -23.366166    0.663718   -4.095332
    117          6           0      -23.894315    3.163428   -1.788157
    118          8           0      -22.964297    3.687373   -2.313546
    119          6           0      -24.567341    3.603147   -0.422458
    120          6           0      -23.468300    3.591879    0.603781
    121          8           0      -23.346588    2.739267    1.458377
    122          8           0      -22.678947    4.644024    0.356936
    123          6           0      -21.370832    4.516673    0.951278
    124          1           0      -29.285258    0.706675    3.703537
    125          1           0      -29.659068   -4.291831   -0.354410
    126          1           0      -25.301006   -1.550836   -4.129428
    127          1           0      -25.876488    3.974741    2.470577
    128          1           0      -28.619276    3.185271    3.328400
    129          1           0      -26.853422    1.593524    4.860254
    130          1           0      -27.332721    3.331251    5.018659
    131          1           0      -25.820738    2.970933    4.203241
    132          1           0      -28.604596    4.757635    1.684560
    133          1           0      -27.622846    4.586470    0.283186
    134          1           0      -27.804219    6.830280    1.665502
    135          1           0      -26.395593    6.582574    0.629909
    136          1           0      -30.748557   -2.421116    4.624105
    137          1           0      -31.968276   -1.315801    4.052471
    138          1           0      -30.385296   -0.641969    4.593106
    139          1           0      -31.701006   -4.255023    4.048200
    140          1           0      -32.913820   -4.959694    3.025341
    141          1           0      -33.014383   -3.221395    3.128236
    142          1           0      -28.995490   -4.487433   -2.940060
    143          1           0      -26.297990   -4.105763   -3.803580
    144          1           0      -27.754979   -5.473770   -0.647911
    145          1           0      -26.334383   -5.326000   -1.682173
    146          1           0      -27.716658   -6.370012   -2.114781
    147          1           0      -27.965188   -4.147910   -5.408850
    148          1           0      -27.275796   -2.488257   -5.362649
    149          1           0      -30.090340   -3.294145   -4.880387
    150          1           0      -29.349465   -2.072504   -5.962885
    151          1           0      -29.499511   -1.671823   -4.308388
    152          1           0      -23.845437    0.553136   -5.068213
    153          1           0      -22.855196   -0.263598   -3.837107
    154          1           0      -22.728538    1.524976   -4.299630
    155          1           0      -25.009804    4.598134   -0.370944
    156          1           0      -20.579439    5.011218    0.388542
    157          1           0      -20.999147    3.560056    1.318207
    158          1           0      -21.283490    5.014709    1.917146
 ---------------------------------------------------------------------

 SCF Done:  E(RCAM-B3LYP) =  -4069.80955535     A.U. after   19 cycles

 Excitation energies and oscillator strengths:

 Excited State   1:      Singlet-A      1.6991 eV  729.70 nm  f=0.3731  <S**2>=0.000
     309 -> 315        0.18620
     312 -> 314        0.68405
     309 <- 315        0.10902
 This state for optimization and/or second-order correction.
 Total Energy, E(TD-HF/TD-DFT) =  -4069.74711420
 Copying the excited state density for this state as the 1-particle RhoCI density.

 Excited State   2:      Singlet-A      1.7042 eV  727.50 nm  f=0.3982  <S**2>=0.000
     310 -> 316        0.17575
     311 -> 313        0.68641
     310 <- 316        0.10653

 Excited State   3:      Singlet-A      2.2267 eV  556.81 nm  f=0.1270  <S**2>=0.000
     310 -> 313        0.64629
     311 -> 316       -0.27558

 Excited State   4:      Singlet-A      2.2666 eV  547.01 nm  f=0.0454  <S**2>=0.000
     309 -> 314        0.60928
     312 -> 315       -0.34928

 Excited State   5:      Singlet-A      3.2070 eV  386.60 nm  f=0.0000  <S**2>=0.000
     312 -> 313        0.70711

 The electronic state is 1-A.
 Alpha  occ. eigenvalues --  -46.89269 -46.88083 -19.26161 -19.25669 -19.20274
 Alpha  occ. eigenvalues --  -19.20073 -19.19571 -19.19516 -19.19366 -19.18617
 Alpha  occ. eigenvalues --  -14.42310 -14.42249 -14.42210 -14.41438 -14.39560
 Alpha  occ. eigenvalues --  -14.39519 -14.39500 -14.39064 -10.39537 -10.39331
 Alpha  occ. eigenvalues --  -10.35723 -10.35425 -10.35125 -10.34834 -10.31999
 Alpha  occ. eigenvalues --  -10.31850 -10.31791 -10.31604 -10.31362 -10.30887
 Alpha  occ. eigenvalues --  -10.30670 -10.30353 -10.30353 -10.30194 -10.30160
 Alpha  occ. eigenvalues --  -10.29912 -10.29905 -10.29833 -10.29666 -10.29641
 Alpha  occ. eigenvalues --  -10.29607 -10.29253 -10.29103 -10.28888 -10.28835
 Alpha  occ. eigenvalues --  -10.28524 -10.28403 -10.28351 -10.28350 -10.28147
 Alpha  occ. eigenvalues --  -10.28147 -10.28144 -10.27905 -10.27858 -10.27857
 Alpha  occ. eigenvalues --  -10.27774 -10.27669 -10.27665 -10.27602 -10.27599
 Alpha  occ. eigenvalues --  -10.27575 -10.27511 -10.27432 -10.27395 -10.27368
 Alpha  occ. eigenvalues --  -10.27070 -10.27014 -10.26736 -10.26719 -10.26690
 Alpha  occ. eigenvalues --  -10.26605 -10.26533 -10.26508 -10.26259 -10.26245
 Alpha  occ. eigenvalues --  -10.25865 -10.25859 -10.25820 -10.25791 -10.25612
 Alpha  occ. eigenvalues --  -10.25587 -10.25508 -10.25263 -10.25208 -10.24748
 Alpha  occ. eigenvalues --  -10.24686  -3.17672  -3.16685  -1.92575  -1.92117
 Alpha  occ. eigenvalues --   -1.91974  -1.91586  -1.91119  -1.91007  -1.18166
 Alpha  occ. eigenvalues --   -1.15980  -1.12021  -1.10215  -1.09623  -1.09089
 Alpha  occ. eigenvalues --   -1.08336  -1.07489  -1.05145  -1.04158  -1.03795
 Alpha  occ. eigenvalues --   -1.03323  -1.02911  -1.02714  -1.01732  -1.01167
 Alpha  occ. eigenvalues --   -0.92804  -0.92395  -0.89118  -0.88812  -0.88538
 Alpha  occ. eigenvalues --   -0.88136  -0.88024  -0.87758  -0.87296  -0.87082
 Alpha  occ. eigenvalues --   -0.86927  -0.86503  -0.86267  -0.86021  -0.84667
 Alpha  occ. eigenvalues --   -0.83937  -0.83403  -0.83392  -0.82436  -0.82290
 Alpha  occ. eigenvalues --   -0.81556  -0.81227  -0.81203  -0.80912  -0.79984
 Alpha  occ. eigenvalues --   -0.79940  -0.78103  -0.77718  -0.77376  -0.77220
 Alpha  occ. eigenvalues --   -0.77114  -0.76739  -0.75864  -0.75822  -0.74995
 Alpha  occ. eigenvalues --   -0.74962  -0.72963  -0.72485  -0.72196  -0.71187
 Alpha  occ. eigenvalues --   -0.69886  -0.69281  -0.68895  -0.68650  -0.68370
 Alpha  occ. eigenvalues --   -0.67976  -0.67451  -0.66373  -0.65858  -0.65253
 Alpha  occ. eigenvalues --   -0.65019  -0.64723  -0.64553  -0.64483  -0.64410
 Alpha  occ. eigenvalues --   -0.63942  -0.62555  -0.62390  -0.60319  -0.60003
 Alpha  occ. eigenvalues --   -0.59438  -0.59406  -0.58964  -0.58935  -0.58796
 Alpha  occ. eigenvalues --   -0.58424  -0.58004  -0.57992  -0.57502  -0.57258
 Alpha  occ. eigenvalues --   -0.56270  -0.55943  -0.55685  -0.55556  -0.55084
 Alpha  occ. eigenvalues --   -0.54908  -0.54897  -0.54439  -0.54390  -0.53973
 Alpha  occ. eigenvalues --   -0.53559  -0.53373  -0.53210  -0.53172  -0.53128
 Alpha  occ. eigenvalues --   -0.52592  -0.52413  -0.52304  -0.52212  -0.52147
 Alpha  occ. eigenvalues --   -0.51997  -0.51961  -0.51861  -0.51740  -0.51521
 Alpha  occ. eigenvalues --   -0.51073  -0.50959  -0.50908  -0.50621  -0.49910
 Alpha  occ. eigenvalues --   -0.49874  -0.49817  -0.49671  -0.49514  -0.49353
 Alpha  occ. eigenvalues --   -0.49169  -0.48936  -0.48847  -0.48602  -0.48598
 Alpha  occ. eigenvalues --   -0.48537  -0.48492  -0.48334  -0.48138  -0.47951
 Alpha  occ. eigenvalues --   -0.47741  -0.47716  -0.47482  -0.47401  -0.47257
 Alpha  occ. eigenvalues --   -0.47136  -0.46863  -0.46763  -0.46658  -0.46271
 Alpha  occ. eigenvalues --   -0.46174  -0.46157  -0.45894  -0.45730  -0.45635
 Alpha  occ. eigenvalues --   -0.45578  -0.45206  -0.45187  -0.44939  -0.44790
 Alpha  occ. eigenvalues --   -0.44636  -0.44553  -0.44551  -0.44328  -0.43927
 Alpha  occ. eigenvalues --   -0.43759  -0.43606  -0.43480  -0.43416  -0.43236
 Alpha  occ. eigenvalues --   -0.43057  -0.43017  -0.43005  -0.42926  -0.42787
 Alpha  occ. eigenvalues --   -0.42657  -0.42384  -0.42325  -0.42155  -0.42122
 Alpha  occ. eigenvalues --   -0.41954  -0.41928  -0.41752  -0.41706  -0.41554
 Alpha  occ. eigenvalues --   -0.41320  -0.40809  -0.40760  -0.40679  -0.40557
 Alpha  occ. eigenvalues --   -0.40280  -0.39809  -0.39564  -0.39534  -0.39152
 Alpha  occ. eigenvalues --   -0.37888  -0.37683  -0.37511  -0.37463  -0.37162
 Alpha  occ. eigenvalues --   -0.37098  -0.37067  -0.36740  -0.36467  -0.36412
 Alpha  occ. eigenvalues --   -0.36277  -0.36119  -0.34808  -0.34685  -0.34226
 Alpha  occ. eigenvalues --   -0.34098  -0.33496  -0.32669  -0.31649  -0.31237
 Alpha  occ. eigenvalues --   -0.31128  -0.31000  -0.30964  -0.30447  -0.30395
 Alpha  occ. eigenvalues --   -0.30272  -0.29898  -0.29588  -0.24427  -0.23770
 Alpha  occ. eigenvalues --   -0.20979  -0.20972
 Alpha virt. eigenvalues --   -0.08552  -0.08503  -0.02372  -0.01343  -0.00259
 Alpha virt. eigenvalues --    0.00557   0.01933   0.02156   0.02478   0.02560
 Alpha virt. eigenvalues --    0.04529   0.04717   0.04923   0.05424   0.06123

 Mulliken charges:
               1
     1  Mg   0.798403
     2  C    0.018716
     3  C   -0.098330
     4  C   -0.026576
     5  C   -0.072671
     6  N   -0.371568
     7  C   -0.042099
     8  C   -0.004774
     9  C   -0.083356
    10  C    0.109754
    11  C    0.079495
    12  C    0.115794
    13  C   -0.087224
    14  H   -0.012880
    15  N   -0.377606
    16  C    0.154389
    17  C   -0.133051
    18  C   -0.038224
    19  C    0.104466
    20  C    0.104468
    21  C    0.019108
    22  O   -0.205629
    23  C    0.005663
    24  N   -0.192987
    25  C   -0.005879
    26  C   -0.021526
    27  C    0.004524
    28  C    0.005363
    29  C    0.043643
    30  C   -0.019979
    31  C   -0.000267
    32  N   -0.317240
    33  C    0.124300
    34  C   -0.222842
    35  C    0.035508
    36  C    0.083042
    37  C    0.127711
    38  C    0.060055
    39  O   -0.156784
    40  C   -0.043861
    41  C    0.209646
    42  O   -0.230300
    43  O   -0.341668
    44  C    0.182865
    45  H   -0.025409
    46  H   -0.002699
    47  H   -0.021286
    48  H    0.011631
    49  H    0.000554
    50  H    0.022065
    51  H    0.023898
    52  H    0.028382
    53  H    0.014418
    54  H    0.017225
    55  H    0.020358
    56  H    0.040256
    57  H    0.031539
    58  H    0.040605
    59  H   -0.006179
    60  H    0.059090
    61  H    0.025853
    62  H    0.020793
    63  H    0.023732
    64  H    0.011273
    65  H    0.021395
    66  H    0.027445
    67  H    0.019034
    68  H    0.016329
    69  H   -0.003150
    70  H    0.022477
    71  H    0.020501
    72  H    0.015725
    73  H    0.023481
    74  H    0.018840
    75  H    0.042589
    76  H    0.039244
    77  H    0.040909
    78  H    0.037734
    79  H    0.041753
    80  Mg   0.826395
    81  C   -0.012266
    82  C   -0.055190
    83  C   -0.055288
    84  C   -0.101741
    85  N   -0.262903
    86  C   -0.021602
    87  C   -0.037417
    88  C   -0.073716
    89  C    0.047845
    90  C    0.074575
    91  C    0.036462
    92  C   -0.072629
    93  H    0.021602
    94  N   -0.381549
    95  C    0.116831
    96  C   -0.159366
    97  C   -0.046565
    98  C    0.112349
    99  C    0.135762
   100  C    0.005265
   101  O   -0.221299
   102  C    0.048245
   103  N   -0.269130
   104  C    0.003981
   105  C   -0.013073
   106  C   -0.018892
   107  C    0.072158
   108  C    0.091482
   109  C   -0.014725
   110  C    0.000584
   111  N   -0.397786
   112  C    0.133571
   113  C   -0.171123
   114  C    0.038088
   115  C    0.109008
   116  C    0.123564
   117  C    0.021064
   118  O   -0.126758
   119  C   -0.026005
   120  C    0.175995
   121  O   -0.208518
   122  O   -0.277519
   123  C    0.182037
   124  H   -0.037509
   125  H    0.007435
   126  H   -0.023669
   127  H    0.021948
   128  H    0.013748
   129  H    0.030041
   130  H    0.010719
   131  H    0.027814
   132  H    0.008565
   133  H    0.018915
   134  H    0.034152
   135  H    0.048644
   136  H    0.023681
   137  H    0.016896
   138  H    0.018130
   139  H    0.040357
   140  H    0.017720
   141  H    0.042667
   142  H    0.008209
   143  H    0.001956
   144  H    0.024898
   145  H    0.013001
   146  H    0.014158
   147  H    0.012840
   148  H   -0.002238
   149  H    0.027140
   150  H    0.014295
   151  H    0.022604
   152  H    0.015017
   153  H    0.034275
   154  H    0.032733
   155  H    0.026015
   156  H    0.038643
   157  H    0.037251
   158  H    0.007148
 Sum of Mulliken charges =  -0.00000

 Dipole moment (field-independent basis, Debye):
    X=             -4.8217    Y=              2.5976    Z=              3.2404  Tot=              6.3637
 Quadrupole moment (field-independent basis, Debye-Ang):
   XX=           -649.5662   YY=           -511.2977   ZZ=           -491.9657
   XY=            -64.1708   XZ=             48.4100   YZ=             49.1671

 Normal termination of Gaussian 16 at Tue Sep 14 16:43:56 2021.
