 Gaussian 16, Revision A.03,
 Gaussian 16:  ES64L-G16RevA.03 25-Dec-2016

 ----------------------------------------------------------
 #p cam-b3lyp/Def2SVP td=(nstates=5) density=(transition=1)
 ----------------------------------------------------------

 --------------------------------
 TDDFT excited states in gaussian
 --------------------------------
 Symbolic Z-matrix:
 Charge =  0 Multiplicity = 1

                         Standard orientation:
 ---------------------------------------------------------------------
 Center     Atomic      Atomic             Coordinates (Angstroms)
 Number     Number       Type             X           Y           Z
 ---------------------------------------------------------------------
      1         12           0       -9.183836   -0.371473   -0.147919
      2          6           0       -7.513483    2.475249    0.936512
      3          6           0      -11.096712    1.748452   -2.116801
      4          6           0      -11.158766   -3.053897   -0.833841
      5          6           0       -7.277917   -2.277833    2.017528
      6          7           0       -9.321504    1.866490   -0.496902
      7          6           0       -8.506579    2.857551    0.028749
      8          6           0       -8.920573    4.319079   -0.403014
      9          6           0      -10.286578    4.007411   -1.128664
     10          6           0      -10.278000    2.437868   -1.235008
     11          6           0      -11.621273    4.459582   -0.528966
     12          6           0       -7.822151    4.969437   -1.263905
     13          6           0       -7.006831    6.062731   -0.625063
     14          1           0       -6.596734    7.239781   -1.527803
     15          7           0      -10.765937   -0.704817   -1.445789
     16          6           0      -11.315543    0.290996   -2.191420
     17          6           0      -12.413234   -0.344070   -2.946509
     18          6           0      -12.528617   -1.681615   -2.536814
     19          6           0      -11.493394   -1.894223   -1.601425
     20          6           0      -13.111263    0.381337   -4.024435
     21          6           0      -13.529191   -2.729930   -2.926461
     22          8           0      -13.450843   -3.936082   -2.562221
     23          6           0      -14.689351   -2.469482   -3.719343
     24          7           0       -9.168598   -2.344830    0.418192
     25          6           0      -10.062382   -3.276751   -0.012177
     26          6           0       -9.842132   -4.619515    0.564995
     27          6           0       -8.556283   -4.409924    1.442770
     28          6           0       -8.369871   -2.943396    1.331591
     29          6           0      -10.935365   -5.400149    1.352386
     30          6           0       -7.296904   -5.331335    1.053664
     31          6           0       -6.284051   -4.957149   -0.068946
     32          7           0       -7.730709   -0.046536    1.238849
     33          6           0       -7.019533   -0.914030    2.016936
     34          6           0       -5.958836   -0.247157    2.636140
     35          6           0       -6.196362    1.136982    2.283269
     36          6           0       -7.266863    1.185927    1.412740
     37          6           0       -4.828552   -0.847678    3.469965
     38          6           0       -5.605584    2.438553    2.407304
     39          8           0       -4.585289    2.868020    2.906204
     40          6           0       -6.611488    3.411662    1.698191
     41          6           0       -7.336731    4.207343    2.708425
     42          8           0       -8.556311    4.135122    2.976123
     43          8           0       -6.562398    5.067493    3.405285
     44          6           0       -7.205817    6.098964    4.288675
     45          1           0      -11.736072    2.426946   -2.684293
     46          1           0      -11.775442   -3.942646   -0.984394
     47          1           0       -6.528488   -2.830956    2.588374
     48          1           0       -9.302075    4.902414    0.435660
     49          1           0      -10.182805    4.422327   -2.131201
     50          1           0      -12.186874    3.596510   -0.177020
     51          1           0      -12.224130    4.808400   -1.366115
     52          1           0      -11.552359    5.203381    0.265583
     53          1           0       -8.354933    5.440882   -2.090560
     54          1           0       -7.208276    4.174358   -1.687114
     55          1           0       -6.091706    5.606949   -0.246112
     56          1           0       -7.445515    6.520120    0.261869
     57          1           0      -12.893924   -0.187843   -4.927338
     58          1           0      -12.878747    1.431170   -4.207619
     59          1           0      -14.186516    0.347214   -3.849216
     60          1           0      -15.110447   -1.549565   -3.314570
     61          1           0      -15.309208   -3.361164   -3.803698
     62          1           0      -14.414729   -2.169882   -4.730772
     63          1           0       -9.612518   -5.163328   -0.350862
     64          1           0       -8.800273   -4.597331    2.487788
     65          1           0      -11.251005   -6.302698    0.828977
     66          1           0      -11.838213   -4.800418    1.472543
     67          1           0      -10.639776   -5.650875    2.371078
     68          1           0       -7.784541   -6.245550    0.714586
     69          1           0       -6.847205   -5.474378    2.036332
     70          1           0       -6.386812   -3.951163   -0.474982
     71          1           0       -6.153150   -5.694553   -0.861417
     72          1           0       -5.318717   -5.025868    0.430841
     73          1           0       -4.776459   -0.404356    4.464927
     74          1           0       -3.889374   -0.590427    2.980473
     75          1           0       -4.837239   -1.936381    3.528663
     76          1           0       -6.019676    4.164714    1.177550
     77          1           0       -6.324701    6.728303    4.414628
     78          1           0       -7.601971    5.719284    5.229911
     79          1           0       -8.016855    6.589714    3.749748
     80         12           0        8.592897   -0.914219   -0.569315
     81          6           0       11.107516    1.564507   -0.681054
     82          6           0        6.265511    1.416720   -0.412960
     83          6           0        6.411306   -3.346992    0.428235
     84          6           0       11.301957   -3.275393    0.303064
     85          7           0        8.730944    1.257361   -0.494685
     86          6           0        9.795951    2.029684   -0.792280
     87          6           0        9.314309    3.465712   -1.077622
     88          6           0        7.821342    3.410864   -1.019444
     89          6           0        7.547865    1.942418   -0.573873
     90          6           0        7.192757    4.590579   -0.170661
     91          6           0        9.863206    4.198941   -2.347049
     92          6           0        8.976947    5.203006   -3.201686
     93          1           0        9.601965    6.532700   -3.648546
     94          7           0        6.560752   -0.970554   -0.308039
     95          6           0        5.753600    0.144440   -0.289182
     96          6           0        4.398825   -0.301552   -0.128656
     97          6           0        4.374497   -1.720026    0.167688
     98          6           0        5.815082   -2.057249    0.157068
     99          6           0        3.329856    0.714824   -0.123039
    100          6           0        3.185623   -2.691102    0.372696
    101          8           0        3.383798   -3.827099    0.653295
    102          6           0        1.802524   -2.285542   -0.020643
    103          7           0        8.865276   -3.005992    0.306469
    104          6           0        7.756086   -3.760769    0.473274
    105          6           0        8.100109   -5.222597    0.903609
    106          6           0        9.657738   -5.234060    0.831734
    107          6           0       10.003910   -3.766527    0.477731
    108          6           0        7.588832   -5.641131    2.256480
    109          6           0       10.345149   -6.227585   -0.168949
    110          6           0       10.376621   -5.892446   -1.621799
    111          7           0       10.755523   -0.986164   -0.245400
    112          6           0       11.645009   -1.984729    0.030577
    113          6           0       12.988056   -1.465894   -0.059399
    114          6           0       12.868762   -0.077747   -0.332374
    115          6           0       11.481938    0.168633   -0.389269
    116          6           0       14.259997   -2.167323    0.263612
    117          6           0       13.572460    1.158216   -0.523710
    118          8           0       14.761587    1.451333   -0.571946
    119          6           0       12.468199    2.272725   -0.808030
    120          6           0       12.649258    3.518442    0.042808
    121          8           0       12.535631    3.535220    1.241285
    122          8           0       12.912458    4.599919   -0.782783
    123          6           0       13.138336    5.845580   -0.048844
    124          1           0        5.424651    2.098555   -0.558849
    125          1           0        5.646760   -4.081914    0.687610
    126          1           0       12.110990   -3.992638    0.455673
    127          1           0        9.780067    3.956859   -0.223242
    128          1           0        7.448749    3.598114   -2.026901
    129          1           0        7.975221    5.300990    0.095610
    130          1           0        6.624146    4.142415    0.644112
    131          1           0        6.534457    5.209326   -0.780775
    132          1           0       10.181173    3.420060   -3.040551
    133          1           0       10.779089    4.750430   -2.133023
    134          1           0        8.107187    5.394138   -2.572808
    135          1           0        8.617648    4.687143   -4.092211
    136          1           0        2.600163    0.365692    0.607199
    137          1           0        2.857230    0.684606   -1.104065
    138          1           0        3.532540    1.765474    0.085363
    139          1           0        1.412785   -1.869160    0.907324
    140          1           0        1.288782   -3.145596   -0.451236
    141          1           0        1.746532   -1.457126   -0.727169
    142          1           0        7.797569   -5.949557    0.149618
    143          1           0       10.238423   -5.352203    1.746046
    144          1           0        6.878848   -4.916065    2.656467
    145          1           0        8.386164   -5.704260    2.997477
    146          1           0        7.103430   -6.603961    2.098909
    147          1           0        9.878051   -7.209199   -0.088508
    148          1           0       11.337965   -6.452228    0.221516
    149          1           0        9.571670   -5.195538   -1.855990
    150          1           0       10.221846   -6.659636   -2.380786
    151          1           0       11.383880   -5.514105   -1.798991
    152          1           0       14.331715   -2.538617    1.285506
    153          1           0       15.010865   -1.379908    0.333616
    154          1           0       14.494562   -2.939823   -0.469251
    155          1           0       12.565871    2.519131   -1.865503
    156          1           0       12.206423    6.250242   -0.442454
    157          1           0       14.031408    6.254182   -0.521081
    158          1           0       13.193035    5.704846    1.030863
 ---------------------------------------------------------------------

 SCF Done:  E(RCAM-B3LYP) =  -4069.80052265     A.U. after   16 cycles

 Excitation energies and oscillator strengths:

 Excited State   1:      Singlet-A      1.6920 eV  732.75 nm  f=0.7108  <S**2>=0.000
     309 -> 316       -0.12012
     310 -> 315        0.13357
     311 -> 313        0.47208
     312 -> 314        0.49635
 This state for optimization and/or second-order correction.
 Total Energy, E(TD-HF/TD-DFT) =  -4069.73834122
 Copying the excited state density for this state as the 1-particle RhoCI density.

 Excited State   2:      Singlet-A      1.7126 eV  723.95 nm  f=0.0929  <S**2>=0.000
     309 -> 316       -0.13019
     310 -> 315       -0.13060
     311 -> 313        0.49611
     312 -> 314       -0.47045

 Excited State   3:      Singlet-A      2.1901 eV  566.10 nm  f=0.0821  <S**2>=0.000
     310 -> 314        0.63896
     312 -> 315       -0.28121

 Excited State   4:      Singlet-A      2.2077 eV  561.60 nm  f=0.1596  <S**2>=0.000
     309 -> 313        0.64776
     311 -> 316        0.25969

 Excited State   5:      Singlet-A      2.7669 eV  448.10 nm  f=0.0000  <S**2>=0.000
     312 -> 313        0.70689

 The electronic state is 1-A.
 Alpha  occ. eigenvalues --  -46.89891 -46.87692 -19.24647 -19.24231 -19.19934
 Alpha  occ. eigenvalues --  -19.19477 -19.18534 -19.18426 -19.18420 -19.18089
 Alpha  occ. eigenvalues --  -14.42156 -14.42113 -14.42022 -14.41680 -14.39691
 Alpha  occ. eigenvalues --  -14.39389 -14.38706 -14.38527 -10.39026 -10.38707
 Alpha  occ. eigenvalues --  -10.35622 -10.34702 -10.34654 -10.34372 -10.32169
 Alpha  occ. eigenvalues --  -10.31522 -10.31174 -10.31120 -10.31015 -10.30951
 Alpha  occ. eigenvalues --  -10.30788 -10.30761 -10.30634 -10.30620 -10.30281
 Alpha  occ. eigenvalues --  -10.30261 -10.30188 -10.29493 -10.29339 -10.29106
 Alpha  occ. eigenvalues --  -10.28905 -10.28715 -10.28559 -10.28527 -10.28481
 Alpha  occ. eigenvalues --  -10.28460 -10.28318 -10.28081 -10.28001 -10.27924
 Alpha  occ. eigenvalues --  -10.27897 -10.27848 -10.27812 -10.27736 -10.27548
 Alpha  occ. eigenvalues --  -10.27506 -10.27447 -10.27421 -10.27412 -10.27284
 Alpha  occ. eigenvalues --  -10.27263 -10.27223 -10.27219 -10.27096 -10.27026
 Alpha  occ. eigenvalues --  -10.26901 -10.26853 -10.26825 -10.26683 -10.26608
 Alpha  occ. eigenvalues --  -10.26507 -10.26439 -10.26399 -10.26249 -10.26155
 Alpha  occ. eigenvalues --  -10.26147 -10.26061 -10.26045 -10.26028 -10.25853
 Alpha  occ. eigenvalues --  -10.25790 -10.25304 -10.25034 -10.24906 -10.24781
 Alpha  occ. eigenvalues --  -10.24775  -3.18200  -3.16407  -1.93073  -1.92664
 Alpha  occ. eigenvalues --   -1.92491  -1.91317  -1.90866  -1.90711  -1.16200
 Alpha  occ. eigenvalues --   -1.15301  -1.12797  -1.09725  -1.09115  -1.08448
 Alpha  occ. eigenvalues --   -1.08086  -1.05295  -1.04998  -1.04244  -1.04115
 Alpha  occ. eigenvalues --   -1.03402  -1.03039  -1.02389  -1.02377  -1.01732
 Alpha  occ. eigenvalues --   -0.93254  -0.91512  -0.89209  -0.89195  -0.88793
 Alpha  occ. eigenvalues --   -0.88588  -0.88442  -0.88148  -0.87728  -0.87266
 Alpha  occ. eigenvalues --   -0.87167  -0.87052  -0.86266  -0.85991  -0.84542
 Alpha  occ. eigenvalues --   -0.83917  -0.83803  -0.83555  -0.82948  -0.82605
 Alpha  occ. eigenvalues --   -0.82411  -0.81896  -0.81145  -0.80740  -0.80700
 Alpha  occ. eigenvalues --   -0.80302  -0.78718  -0.78157  -0.77652  -0.77047
 Alpha  occ. eigenvalues --   -0.77037  -0.77008  -0.76366  -0.75748  -0.75445
 Alpha  occ. eigenvalues --   -0.74551  -0.73273  -0.72220  -0.71487  -0.71365
 Alpha  occ. eigenvalues --   -0.70242  -0.69718  -0.69189  -0.68943  -0.68177
 Alpha  occ. eigenvalues --   -0.68100  -0.67252  -0.66798  -0.65349  -0.65243
 Alpha  occ. eigenvalues --   -0.64813  -0.64769  -0.64525  -0.64219  -0.64033
 Alpha  occ. eigenvalues --   -0.63912  -0.61653  -0.61614  -0.60108  -0.59910
 Alpha  occ. eigenvalues --   -0.59813  -0.59447  -0.59316  -0.58754  -0.58693
 Alpha  occ. eigenvalues --   -0.58249  -0.57961  -0.57899  -0.57457  -0.57280
 Alpha  occ. eigenvalues --   -0.56317  -0.56048  -0.55790  -0.55768  -0.55286
 Alpha  occ. eigenvalues --   -0.55049  -0.54966  -0.54588  -0.54483  -0.53995
 Alpha  occ. eigenvalues --   -0.53970  -0.53599  -0.53406  -0.53226  -0.53050
 Alpha  occ. eigenvalues --   -0.52689  -0.52677  -0.52590  -0.52288  -0.52224
 Alpha  occ. eigenvalues --   -0.52040  -0.51627  -0.51244  -0.51093  -0.51006
 Alpha  occ. eigenvalues --   -0.50816  -0.50713  -0.50512  -0.50506  -0.50317
 Alpha  occ. eigenvalues --   -0.50183  -0.49919  -0.49904  -0.49781  -0.49573
 Alpha  occ. eigenvalues --   -0.49413  -0.49116  -0.49108  -0.48955  -0.48881
 Alpha  occ. eigenvalues --   -0.48669  -0.48638  -0.48494  -0.48325  -0.48229
 Alpha  occ. eigenvalues --   -0.48090  -0.47911  -0.47574  -0.47373  -0.47096
 Alpha  occ. eigenvalues --   -0.47042  -0.46920  -0.46661  -0.46658  -0.46403
 Alpha  occ. eigenvalues --   -0.46157  -0.45925  -0.45854  -0.45684  -0.45553
 Alpha  occ. eigenvalues --   -0.45450  -0.45432  -0.45341  -0.45313  -0.44962
 Alpha  occ. eigenvalues --   -0.44539  -0.44449  -0.44412  -0.44228  -0.44132
 Alpha  occ. eigenvalues --   -0.44000  -0.43987  -0.43950  -0.43613  -0.43569
 Alpha  occ. eigenvalues --   -0.43538  -0.43150  -0.43053  -0.42906  -0.42896
 Alpha  occ. eigenvalues --   -0.42822  -0.42595  -0.42510  -0.42243  -0.41945
 Alpha  occ. eigenvalues --   -0.41755  -0.41722  -0.41647  -0.41362  -0.41281
 Alpha  occ. eigenvalues --   -0.40946  -0.40767  -0.40491  -0.40486  -0.40113
 Alpha  occ. eigenvalues --   -0.40046  -0.39844  -0.39093  -0.39084  -0.38886
 Alpha  occ. eigenvalues --   -0.38355  -0.38026  -0.37986  -0.37813  -0.37281
 Alpha  occ. eigenvalues --   -0.37076  -0.36801  -0.36653  -0.36555  -0.35820
 Alpha  occ. eigenvalues --   -0.35766  -0.35618  -0.34530  -0.34467  -0.33458
 Alpha  occ. eigenvalues --   -0.33348  -0.33048  -0.33046  -0.31689  -0.31148
 Alpha  occ. eigenvalues --   -0.30749  -0.30736  -0.30510  -0.30210  -0.30066
 Alpha  occ. eigenvalues --   -0.29716  -0.29492  -0.29241  -0.23801  -0.23721
 Alpha  occ. eigenvalues --   -0.21268  -0.20949
 Alpha virt. eigenvalues --   -0.08850  -0.08535  -0.01522  -0.01462   0.00419
 Alpha virt. eigenvalues --    0.00520   0.01250   0.02202   0.02617   0.03389
 Alpha virt. eigenvalues --    0.04603   0.04858   0.05468   0.05624   0.05782

 Mulliken charges:
               1
     1  Mg  12.000140
     2  C    5.984991
     3  C    6.014022
     4  C    6.017072
     5  C    5.998945
     6  N    6.996764
     7  C    6.020341
     8  C    5.991362
     9  C    6.004243
    10  C    5.980421
    11  C    6.001723
    12  C    5.996774
    13  C    5.998774
    14  H    1.004397
    15  N    7.006181
    16  C    5.966987
    17  C    5.979116
    18  C    5.995520
    19  C    5.971672
    20  C    6.005904
    21  C    5.991245
    22  O    7.982016
    23  C    6.003485
    24  N    7.006841
    25  C    5.970062
    26  C    6.011681
    27  C    5.990094
    28  C    6.023457
    29  C    5.999323
    30  C    5.996908
    31  C    5.998494
    32  N    6.995554
    33  C    6.021083
    34  C    6.020879
    35  C    6.004132
    36  C    6.021751
    37  C    5.996874
    38  C    6.010029
    39  O    8.021604
    40  C    6.003241
    41  C    6.000468
    42  O    8.006380
    43  O    7.999006
    44  C    5.998452
    45  H    0.992484
    46  H    0.994039
    47  H    1.009876
    48  H    1.002850
    49  H    0.999007
    50  H    1.002666
    51  H    1.000144
    52  H    0.990717
    53  H    1.006398
    54  H    1.000947
    55  H    0.996950
    56  H    0.999465
    57  H    0.984116
    58  H    0.984282
    59  H    0.983126
    60  H    0.997502
    61  H    0.989543
    62  H    0.995092
    63  H    0.999810
    64  H    1.000023
    65  H    0.999446
    66  H    1.001593
    67  H    0.991969
    68  H    1.008547
    69  H    0.998973
    70  H    0.999656
    71  H    1.006171
    72  H    1.000086
    73  H    1.013291
    74  H    1.015890
    75  H    1.012747
    76  H    1.006455
    77  H    1.002146
    78  H    1.001607
    79  H    1.003976
    80  Mg  11.999378
    81  C    5.977315
    82  C    6.010480
    83  C    6.016710
    84  C    5.995314
    85  N    6.989291
    86  C    6.029072
    87  C    5.994648
    88  C    6.009620
    89  C    5.974780
    90  C    5.999921
    91  C    5.999105
    92  C    6.001484
    93  H    0.998937
    94  N    7.008040
    95  C    5.968502
    96  C    5.986120
    97  C    5.986068
    98  C    5.975011
    99  C    6.006185
   100  C    5.990128
   101  O    7.981679
   102  C    6.003489
   103  N    7.001247
   104  C    5.977173
   105  C    6.009390
   106  C    5.997036
   107  C    6.019850
   108  C    6.000408
   109  C    5.995857
   110  C    5.993827
   111  N    6.996619
   112  C    6.026464
   113  C    6.027535
   114  C    5.999997
   115  C    6.027999
   116  C    5.996958
   117  C    6.010175
   118  O    8.021780
   119  C    6.002864
   120  C    6.002935
   121  O    8.002420
   122  O    8.001160
   123  C    5.998801
   124  H    0.993091
   125  H    0.996286
   126  H    1.009129
   127  H    0.998343
   128  H    0.996283
   129  H    0.991392
   130  H    1.002079
   131  H    0.997855
   132  H    0.998350
   133  H    0.997208
   134  H    1.005124
   135  H    1.001767
   136  H    0.984539
   137  H    0.984211
   138  H    0.984612
   139  H    0.991047
   140  H    0.989807
   141  H    0.997484
   142  H    0.998750
   143  H    0.999170
   144  H    1.004878
   145  H    0.993316
   146  H    0.999035
   147  H    1.008922
   148  H    0.999256
   149  H    1.007495
   150  H    1.006341
   151  H    0.995252
   152  H    1.017637
   153  H    1.010835
   154  H    1.016149
   155  H    1.004768
   156  H    1.004464
   157  H    1.001764
   158  H    1.001591
 Sum of Mulliken charges = 624.00000

 Dipole moment (field-independent basis, Debye):
    X=             14.1554    Y=              0.6555    Z=              4.5535  Tot=             14.8842
 Quadrupole moment (field-independent basis, Debye-Ang):
   XX=             28.3968   YY=              4.3183   ZZ=             -1.3168
   XY=            -24.1630   XZ=            -46.7410   YZ=             -0.6727

 Normal termination of Gaussian 16 at Tue Sep 21 23:16:11 2021.
