 Gaussian 16, Revision A.03,
 Gaussian 16:  ES64L-G16RevA.03 25-Dec-2016

 -----------------------------------
 #p cam-b3lyp/Def2SVP td=(nstates=5)
 -----------------------------------

 --------------------------------
 TDDFT excited states in gaussian
 --------------------------------
 Symbolic Z-matrix:
 Charge =  0 Multiplicity = 1

                         Standard orientation:
 ---------------------------------------------------------------------
 Center     Atomic      Atomic             Coordinates (Angstroms)
 Number     Number       Type             X           Y           Z
 ---------------------------------------------------------------------
      1         12           0      -28.236586    0.054789   -0.432781
      2          6           0      -24.894232   -0.548286   -0.251740
      3          6           0      -28.809551   -3.363454    0.271359
      4          6           0      -31.359505    0.855141    0.439574
      5          6           0      -27.564603    3.599098   -0.602890
      6          7           0      -26.981490   -1.685538   -0.075623
      7          6           0      -25.692998   -1.763374   -0.026106
      8          6           0      -25.160000   -3.240078   -0.006414
      9          6           0      -26.453399   -4.131641   -0.134502
     10          6           0      -27.544228   -3.012971   -0.008287
     11          6           0      -26.496723   -5.101331   -1.316306
     12          6           0      -24.214423   -3.540750    1.302170
     13          6           0      -24.375727   -2.666640    2.535325
     14          1           0      -23.873760   -3.144293    3.897950
     15          7           0      -29.850855   -1.107477    0.268350
     16          6           0      -29.922816   -2.470764    0.425385
     17          6           0      -31.185653   -2.822477    0.912140
     18          6           0      -31.968691   -1.608986    1.020486
     19          6           0      -31.047954   -0.519403    0.601797
     20          6           0      -31.586228   -4.279116    1.057579
     21          6           0      -33.430967   -1.563310    1.499530
     22          8           0      -33.974054   -2.645233    1.817173
     23          6           0      -34.236114   -0.382264    1.619169
     24          7           0      -29.308090    2.027674    0.039466
     25          6           0      -30.603655    1.985083    0.169640
     26          6           0      -31.266835    3.390906    0.118348
     27          6           0      -30.062117    4.276033   -0.269187
     28          6           0      -28.836233    3.276997   -0.317982
     29          6           0      -32.374346    3.516055   -0.864742
     30          6           0      -29.849156    5.508428    0.730468
     31          6           0      -30.143175    6.947277    0.136857
     32          7           0      -26.621530    1.330755   -0.547903
     33          6           0      -26.460077    2.718301   -0.648125
     34          6           0      -24.999548    3.021209   -0.764220
     35          6           0      -24.392778    1.772470   -0.568302
     36          6           0      -25.401179    0.776460   -0.407109
     37          6           0      -24.339872    4.298621   -0.956999
     38          6           0      -23.130276    1.204021   -0.437098
     39          8           0      -21.976119    1.651149   -0.508056
     40          6           0      -23.381696   -0.326287   -0.321197
     41          6           0      -22.609670   -1.028392   -1.463522
     42          8           0      -21.803813   -1.938071   -1.365422
     43          8           0      -22.928535   -0.512389   -2.701005
     44          6           0      -22.233757   -1.067269   -3.868756
     45          1           0      -28.882094   -4.419903    0.537427
     46          1           0      -32.400859    1.161828    0.556066
     47          1           0      -27.384502    4.652747   -0.825651
     48          1           0      -24.648563   -3.389317   -0.957714
     49          1           0      -26.625191   -4.736852    0.756158
     50          1           0      -27.291008   -4.807415   -2.002197
     51          1           0      -26.712710   -6.123510   -1.003351
     52          1           0      -25.564234   -5.215506   -1.869126
     53          1           0      -23.220479   -3.500471    0.855951
     54          1           0      -24.355745   -4.518535    1.763177
     55          1           0      -25.453060   -2.509752    2.581812
     56          1           0      -23.932616   -1.708454    2.263375
     57          1           0      -32.469930   -4.653405    0.540129
     58          1           0      -31.638699   -4.519773    2.119643
     59          1           0      -30.771913   -4.906111    0.694954
     60          1           0      -34.436364    0.191341    0.714369
     61          1           0      -33.714524    0.373659    2.205355
     62          1           0      -35.161827   -0.537703    2.172364
     63          1           0      -31.738340    3.779494    1.020906
     64          1           0      -30.105341    4.635836   -1.297253
     65          1           0      -33.375121    3.529037   -0.433305
     66          1           0      -32.453305    2.613268   -1.471474
     67          1           0      -32.237030    4.409179   -1.474092
     68          1           0      -28.790975    5.548235    0.992405
     69          1           0      -30.495948    5.494725    1.606679
     70          1           0      -30.744656    7.517784    0.843447
     71          1           0      -30.792528    6.823849   -0.729960
     72          1           0      -29.164037    7.419387    0.054137
     73          1           0      -25.050139    4.881755   -1.543620
     74          1           0      -23.416770    4.173193   -1.524041
     75          1           0      -24.078236    4.658514    0.037610
     76          1           0      -22.827103   -0.792171    0.493020
     77          1           0      -22.245676   -0.318765   -4.661259
     78          1           0      -22.655929   -1.950834   -4.347212
     79          1           0      -21.220543   -1.409839   -3.656606
     80         12           0       27.695194    0.744717   -0.427085
     81          6           0       26.842160   -2.616113    0.411274
     82          6           0       25.418275    1.662789    1.805575
     83          6           0       29.077422    3.828263   -0.375209
     84          6           0       30.607480   -0.644684   -1.939814
     85          7           0       26.263841   -0.309654    0.810322
     86          6           0       26.004295   -1.690053    0.952265
     87          6           0       24.844886   -1.996817    1.951774
     88          6           0       24.384969   -0.560394    2.330150
     89          6           0       25.350469    0.345382    1.536840
     90          6           0       22.888924   -0.450976    1.991632
     91          6           0       25.187299   -2.875146    3.231670
     92          6           0       24.529381   -4.247473    3.317611
     93          1           0       23.691787   -4.555907    4.575456
     94          7           0       27.280194    2.503233    0.468232
     95          6           0       26.256533    2.674624    1.399900
     96          6           0       26.124766    4.032478    1.744165
     97          6           0       27.065751    4.749242    1.028204
     98          6           0       27.866591    3.751443    0.348189
     99          6           0       25.091647    4.706387    2.721609
    100          6           0       27.164017    6.256033    1.075308
    101          8           0       26.378079    6.963861    1.631578
    102          6           0       28.342570    6.899137    0.191501
    103          7           0       29.601344    1.492177   -0.996309
    104          6           0       29.897031    2.824797   -0.902742
    105          6           0       31.413796    2.991307   -1.325827
    106          6           0       31.871487    1.654424   -1.932527
    107          6           0       30.626288    0.748860   -1.594847
    108          6           0       31.713182    4.219634   -2.137349
    109          6           0       33.088389    1.141805   -1.172380
    110          6           0       33.990610    0.170986   -1.886864
    111          7           0       28.457139   -1.234287   -0.942042
    112          6           0       29.619454   -1.615423   -1.568918
    113          6           0       29.654162   -3.024315   -1.723590
    114          6           0       28.535821   -3.535351   -1.023325
    115          6           0       27.919469   -2.377277   -0.470739
    116          6           0       30.724850   -3.836633   -2.333936
    117          6           0       27.762569   -4.696633   -0.562981
    118          8           0       27.934550   -5.893585   -0.829906
    119          6           0       26.608130   -4.165689    0.370838
    120          6           0       25.342985   -4.361382   -0.285500
    121          8           0       24.985551   -3.626325   -1.236240
    122          8           0       24.757188   -5.433072    0.283850
    123          6           0       23.345721   -5.745749   -0.071130
    124          1           0       24.651466    2.002786    2.505258
    125          1           0       29.459178    4.851297   -0.393876
    126          1           0       31.414968   -1.121612   -2.498657
    127          1           0       24.034680   -2.505349    1.429313
    128          1           0       24.529486   -0.320163    3.383043
    129          1           0       22.617759    0.598351    2.104093
    130          1           0       22.215263   -1.041030    2.612871
    131          1           0       22.672614   -0.749529    0.965260
    132          1           0       24.727547   -2.325579    4.053101
    133          1           0       26.267340   -2.935756    3.366042
    134          1           0       25.319955   -4.991512    3.214299
    135          1           0       23.832869   -4.362244    2.486320
    136          1           0       25.690165    5.283099    3.427086
    137          1           0       24.503203    3.967934    3.265926
    138          1           0       24.305022    5.295484    2.250208
    139          1           0       28.194247    7.977156    0.247010
    140          1           0       28.172905    6.463190   -0.793299
    141          1           0       29.231550    6.520157    0.695584
    142          1           0       31.920379    3.139363   -0.371470
    143          1           0       32.112089    1.652774   -2.995595
    144          1           0       32.561061    4.001861   -2.786220
    145          1           0       31.943141    5.003833   -1.415791
    146          1           0       30.858665    4.620213   -2.681480
    147          1           0       32.834753    0.690620   -0.212671
    148          1           0       33.726725    1.953358   -0.823141
    149          1           0       33.771895    0.092748   -2.951670
    150          1           0       33.853390   -0.808376   -1.428021
    151          1           0       35.036660    0.380066   -1.663103
    152          1           0       31.262857   -3.282017   -3.103388
    153          1           0       30.221648   -4.700657   -2.768606
    154          1           0       31.412941   -4.065350   -1.519783
    155          1           0       26.638535   -4.541414    1.393593
    156          1           0       23.372968   -6.834669   -0.009979
    157          1           0       23.036607   -5.361328   -1.042678
    158          1           0       22.664323   -5.496680    0.743056
 ---------------------------------------------------------------------

 SCF Done:  E(RCAM-B3LYP) =  -4069.77893440     A.U. after   19 cycles

 Excitation energies and oscillator strengths:

 Excited State   1:      Singlet-A      1.7059 eV  726.78 nm  f=0.4342  <S**2>=0.000
     309 -> 315       -0.16084
     311 -> 313        0.68872
     309 <- 315       -0.10272
 This state for optimization and/or second-order correction.
 Total Energy, E(TD-HF/TD-DFT) =  -4069.71624263
 Copying the excited state density for this state as the 1-particle RhoCI density.

 Excited State   2:      Singlet-A      1.7225 eV  719.78 nm  f=0.3862  <S**2>=0.000
     310 -> 316        0.17108
     312 -> 314        0.68741
     310 <- 316        0.10385

 Excited State   3:      Singlet-A      2.2508 eV  550.84 nm  f=0.1192  <S**2>=0.000
     309 -> 313        0.64220
     311 -> 315        0.27236

 Excited State   4:      Singlet-A      2.2584 eV  549.00 nm  f=0.1175  <S**2>=0.000
     310 -> 314        0.63723
     312 -> 316       -0.28972

 Excited State   5:      Singlet-A      3.0157 eV  411.13 nm  f=0.0000  <S**2>=0.000
     312 -> 313        0.70710

 The electronic state is 1-A.
 Alpha  occ. eigenvalues --  -46.90339 -46.88503 -19.26498 -19.24921 -19.20138
 Alpha  occ. eigenvalues --  -19.19656 -19.19631 -19.18994 -19.18726 -19.17446
 Alpha  occ. eigenvalues --  -14.43224 -14.42525 -14.42174 -14.41950 -14.40564
 Alpha  occ. eigenvalues --  -14.39847 -14.39498 -14.38460 -10.39746 -10.39498
 Alpha  occ. eigenvalues --  -10.35470 -10.35382 -10.34741 -10.34283 -10.33027
 Alpha  occ. eigenvalues --  -10.32831 -10.31797 -10.31629 -10.31531 -10.31487
 Alpha  occ. eigenvalues --  -10.31293 -10.30982 -10.30777 -10.30765 -10.30672
 Alpha  occ. eigenvalues --  -10.30592 -10.30468 -10.30403 -10.29660 -10.29608
 Alpha  occ. eigenvalues --  -10.29327 -10.29291 -10.29052 -10.28999 -10.28831
 Alpha  occ. eigenvalues --  -10.28679 -10.28494 -10.28447 -10.28329 -10.28320
 Alpha  occ. eigenvalues --  -10.28205 -10.28128 -10.28015 -10.27947 -10.27771
 Alpha  occ. eigenvalues --  -10.27747 -10.27613 -10.27587 -10.27305 -10.27199
 Alpha  occ. eigenvalues --  -10.27176 -10.27118 -10.27099 -10.27093 -10.27081
 Alpha  occ. eigenvalues --  -10.27064 -10.26931 -10.26913 -10.26860 -10.26830
 Alpha  occ. eigenvalues --  -10.26732 -10.26431 -10.26429 -10.26352 -10.26248
 Alpha  occ. eigenvalues --  -10.26180 -10.26031 -10.25991 -10.25837 -10.25748
 Alpha  occ. eigenvalues --  -10.25674 -10.25637 -10.25429 -10.25160 -10.24935
 Alpha  occ. eigenvalues --  -10.24828  -3.18746  -3.17100  -1.93624  -1.93235
 Alpha  occ. eigenvalues --   -1.93013  -1.91978  -1.91536  -1.91427  -1.16634
 Alpha  occ. eigenvalues --   -1.16165  -1.11974  -1.09080  -1.08657  -1.07640
 Alpha  occ. eigenvalues --   -1.07387  -1.07378  -1.05060  -1.04536  -1.04109
 Alpha  occ. eigenvalues --   -1.03667  -1.03172  -1.02827  -1.02275  -1.01738
 Alpha  occ. eigenvalues --   -0.93025  -0.92204  -0.89696  -0.89659  -0.89455
 Alpha  occ. eigenvalues --   -0.89338  -0.89014  -0.88702  -0.88349  -0.87826
 Alpha  occ. eigenvalues --   -0.87325  -0.86636  -0.86498  -0.85322  -0.84808
 Alpha  occ. eigenvalues --   -0.84673  -0.84230  -0.84219  -0.83288  -0.82977
 Alpha  occ. eigenvalues --   -0.82536  -0.81903  -0.81487  -0.81127  -0.80305
 Alpha  occ. eigenvalues --   -0.80295  -0.78507  -0.77721  -0.77421  -0.77370
 Alpha  occ. eigenvalues --   -0.76993  -0.76675  -0.76382  -0.76249  -0.75306
 Alpha  occ. eigenvalues --   -0.75122  -0.73426  -0.72744  -0.71980  -0.71715
 Alpha  occ. eigenvalues --   -0.69591  -0.69249  -0.68948  -0.68610  -0.68435
 Alpha  occ. eigenvalues --   -0.67747  -0.67235  -0.66865  -0.66061  -0.65690
 Alpha  occ. eigenvalues --   -0.65681  -0.65595  -0.64989  -0.64896  -0.64570
 Alpha  occ. eigenvalues --   -0.64551  -0.63362  -0.62230  -0.60927  -0.60138
 Alpha  occ. eigenvalues --   -0.59983  -0.59625  -0.59422  -0.58971  -0.58548
 Alpha  occ. eigenvalues --   -0.58510  -0.58205  -0.58050  -0.57279  -0.57138
 Alpha  occ. eigenvalues --   -0.56402  -0.56356  -0.56036  -0.55642  -0.55628
 Alpha  occ. eigenvalues --   -0.54966  -0.54840  -0.54682  -0.54571  -0.54271
 Alpha  occ. eigenvalues --   -0.53892  -0.53806  -0.53531  -0.53278  -0.53159
 Alpha  occ. eigenvalues --   -0.52903  -0.52867  -0.52622  -0.52468  -0.52397
 Alpha  occ. eigenvalues --   -0.52255  -0.51674  -0.51514  -0.51468  -0.51275
 Alpha  occ. eigenvalues --   -0.51227  -0.50961  -0.50710  -0.50571  -0.50340
 Alpha  occ. eigenvalues --   -0.50290  -0.50148  -0.49957  -0.49926  -0.49856
 Alpha  occ. eigenvalues --   -0.49591  -0.49249  -0.49167  -0.49020  -0.48913
 Alpha  occ. eigenvalues --   -0.48845  -0.48578  -0.48420  -0.48318  -0.48250
 Alpha  occ. eigenvalues --   -0.48052  -0.47680  -0.47511  -0.47475  -0.47431
 Alpha  occ. eigenvalues --   -0.47208  -0.46949  -0.46861  -0.46777  -0.46410
 Alpha  occ. eigenvalues --   -0.46286  -0.46209  -0.46079  -0.45907  -0.45747
 Alpha  occ. eigenvalues --   -0.45604  -0.45297  -0.45273  -0.45143  -0.45034
 Alpha  occ. eigenvalues --   -0.44914  -0.44890  -0.44724  -0.44622  -0.44477
 Alpha  occ. eigenvalues --   -0.44308  -0.44116  -0.43846  -0.43705  -0.43613
 Alpha  occ. eigenvalues --   -0.43457  -0.43278  -0.43075  -0.42788  -0.42715
 Alpha  occ. eigenvalues --   -0.42690  -0.42551  -0.42298  -0.42275  -0.42095
 Alpha  occ. eigenvalues --   -0.42027  -0.41926  -0.41650  -0.41630  -0.41509
 Alpha  occ. eigenvalues --   -0.40975  -0.40873  -0.40737  -0.40577  -0.40206
 Alpha  occ. eigenvalues --   -0.40104  -0.40007  -0.39857  -0.39149  -0.39091
 Alpha  occ. eigenvalues --   -0.38741  -0.38377  -0.38217  -0.38058  -0.37866
 Alpha  occ. eigenvalues --   -0.37597  -0.37207  -0.36882  -0.36694  -0.36546
 Alpha  occ. eigenvalues --   -0.36416  -0.35991  -0.34832  -0.34329  -0.34318
 Alpha  occ. eigenvalues --   -0.34157  -0.34061  -0.32924  -0.31782  -0.31629
 Alpha  occ. eigenvalues --   -0.31099  -0.30939  -0.30885  -0.30748  -0.30545
 Alpha  occ. eigenvalues --   -0.30193  -0.29040  -0.28921  -0.24958  -0.24263
 Alpha  occ. eigenvalues --   -0.21685  -0.21243
 Alpha virt. eigenvalues --   -0.09544  -0.08745  -0.01915  -0.01690  -0.00047
 Alpha virt. eigenvalues --    0.00577   0.00609   0.02192   0.02194   0.02745
 Alpha virt. eigenvalues --    0.04565   0.04759   0.04991   0.05242   0.05417

 Mulliken charges:
               1
     1  Mg   0.825798
     2  C    0.015001
     3  C   -0.064097
     4  C   -0.034140
     5  C   -0.085227
     6  N   -0.280184
     7  C   -0.033771
     8  C   -0.003276
     9  C   -0.057053
    10  C    0.024082
    11  C    0.073106
    12  C    0.009616
    13  C   -0.045391
    14  H    0.044606
    15  N   -0.376610
    16  C    0.139169
    17  C   -0.133927
    18  C   -0.051317
    19  C    0.178995
    20  C    0.140056
    21  C    0.018691
    22  O   -0.238765
    23  C    0.063175
    24  N   -0.229451
    25  C   -0.016337
    26  C   -0.028428
    27  C    0.002411
    28  C    0.020986
    29  C    0.047838
    30  C    0.001349
    31  C   -0.010173
    32  N   -0.376983
    33  C    0.118811
    34  C   -0.164091
    35  C    0.035761
    36  C    0.123885
    37  C    0.127106
    38  C    0.044593
    39  O   -0.184342
    40  C   -0.043169
    41  C    0.174913
    42  O   -0.212601
    43  O   -0.339379
    44  C    0.178552
    45  H   -0.011516
    46  H   -0.063590
    47  H   -0.026488
    48  H    0.025715
    49  H    0.012388
    50  H    0.017791
    51  H    0.012572
    52  H    0.020250
    53  H    0.032820
    54  H    0.016813
    55  H    0.030188
    56  H    0.016164
    57  H    0.036988
    58  H    0.022633
    59  H   -0.021588
    60  H    0.042203
    61  H    0.019896
    62  H    0.027716
    63  H    0.019234
    64  H    0.008141
    65  H    0.006278
    66  H    0.010276
    67  H    0.018333
    68  H    0.012628
    69  H    0.017227
    70  H    0.010728
    71  H    0.016216
    72  H    0.026519
    73  H    0.022312
    74  H    0.042581
    75  H    0.050600
    76  H    0.029764
    77  H    0.033952
    78  H    0.019736
    79  H    0.044731
    80  Mg   0.849631
    81  C   -0.035892
    82  C   -0.127544
    83  C   -0.088516
    84  C   -0.059168
    85  N   -0.306887
    86  C   -0.024888
    87  C   -0.013007
    88  C   -0.067184
    89  C    0.093607
    90  C    0.060687
    91  C    0.056370
    92  C   -0.082564
    93  H    0.016243
    94  N   -0.421929
    95  C    0.201562
    96  C   -0.158742
    97  C   -0.012292
    98  C    0.124746
    99  C    0.150609
   100  C   -0.039991
   101  O   -0.163480
   102  C    0.032928
   103  N   -0.321067
   104  C    0.081252
   105  C   -0.032037
   106  C   -0.024580
   107  C    0.083668
   108  C    0.078932
   109  C   -0.005207
   110  C    0.032832
   111  N   -0.303148
   112  C    0.079960
   113  C   -0.204845
   114  C    0.040304
   115  C    0.083705
   116  C    0.124727
   117  C    0.054358
   118  O   -0.186643
   119  C   -0.001685
   120  C    0.227721
   121  O   -0.252771
   122  O   -0.319996
   123  C    0.163774
   124  H   -0.039012
   125  H   -0.061736
   126  H   -0.037194
   127  H    0.007706
   128  H    0.019306
   129  H    0.005387
   130  H    0.019906
   131  H    0.021160
   132  H    0.017046
   133  H    0.023287
   134  H    0.047045
   135  H    0.015749
   136  H    0.039272
   137  H   -0.011714
   138  H    0.038982
   139  H    0.030954
   140  H    0.046619
   141  H    0.048729
   142  H    0.020544
   143  H    0.012691
   144  H    0.018343
   145  H    0.010017
   146  H    0.016841
   147  H    0.005627
   148  H   -0.002436
   149  H    0.015932
   150  H    0.008834
   151  H    0.008726
   152  H    0.009161
   153  H    0.043182
   154  H    0.037467
   155  H    0.028179
   156  H    0.043870
   157  H    0.067961
   158  H    0.040016
 Sum of Mulliken charges =  -0.00000

 Dipole moment (field-independent basis, Debye):
    X=             -2.4360    Y=              4.5063    Z=             -2.1906  Tot=              5.5713
 Quadrupole moment (field-independent basis, Debye-Ang):
   XX=           -384.0234   YY=           -525.8384   ZZ=           -503.7950
   XY=            -51.4536   XZ=            107.8785   YZ=            -10.4795

 Normal termination of Gaussian 16 at Wed Sep 15 00:34:14 2021.
