 Gaussian 16, Revision A.03,
 Gaussian 16:  ES64L-G16RevA.03 25-Dec-2016

 -----------------------------------
 #p cam-b3lyp/Def2SVP td=(nstates=5)
 -----------------------------------

 --------------------------------
 TDDFT excited states in gaussian
 --------------------------------
 Symbolic Z-matrix:
 Charge =  0 Multiplicity = 1

                         Standard orientation:
 ---------------------------------------------------------------------
 Center     Atomic      Atomic             Coordinates (Angstroms)
 Number     Number       Type             X           Y           Z
 ---------------------------------------------------------------------
      1         12           0      -21.309306    0.096173    0.063603
      2          6           0      -18.284620    1.303979   -0.967098
      3          6           0      -21.826017   -1.023733   -3.274278
      4          6           0      -24.113961   -1.454307    1.119934
      5          6           0      -20.272357    0.410025    3.374700
      6          7           0      -19.944057   -0.181670   -1.883119
      7          6           0      -18.860064    0.621344   -2.075072
      8          6           0      -18.334115    0.442218   -3.472298
      9          6           0      -19.485005   -0.353113   -4.228900
     10          6           0      -20.538724   -0.553852   -3.094189
     11          6           0      -19.795738    0.089055   -5.612177
     12          6           0      -16.856691   -0.132700   -3.700484
     13          6           0      -16.314466   -1.110685   -2.700731
     14          1           0      -15.676866   -2.379302   -3.249699
     15          7           0      -22.862158   -0.858343   -0.983776
     16          6           0      -22.911619   -1.192661   -2.301555
     17          6           0      -24.120120   -1.885799   -2.637279
     18          6           0      -24.874140   -1.918156   -1.352868
     19          6           0      -23.950448   -1.387644   -0.326421
     20          6           0      -24.546124   -2.395877   -3.930461
     21          6           0      -26.296088   -2.394427   -1.092902
     22          8           0      -26.906017   -2.950330   -1.935908
     23          6           0      -27.036493   -2.327246    0.214044
     24          7           0      -22.001201   -0.547876    1.935602
     25          6           0      -23.258095   -0.989597    2.095138
     26          6           0      -23.519276   -1.428303    3.630165
     27          6           0      -22.437827   -0.472085    4.334134
     28          6           0      -21.509469   -0.245618    3.164756
     29          6           0      -24.945309   -1.223757    4.149084
     30          6           0      -21.851721   -1.079764    5.621319
     31          6           0      -21.754061   -0.249766    6.906776
     32          7           0      -19.577836    0.626009    1.032930
     33          6           0      -19.279040    0.758479    2.383281
     34          6           0      -18.028203    1.381653    2.579870
     35          6           0      -17.582065    1.684174    1.303937
     36          6           0      -18.564608    1.202859    0.367852
     37          6           0      -17.366090    1.724059    3.878657
     38          6           0      -16.617915    2.293793    0.486220
     39          8           0      -15.582460    2.850080    0.846298
     40          6           0      -16.914781    1.938922   -0.998635
     41          6           0      -16.857929    3.291155   -1.694009
     42          8           0      -16.164099    3.531127   -2.704844
     43          8           0      -17.794505    4.101618   -1.096881
     44          6           0      -18.187049    5.410224   -1.674755
     45          1           0      -21.866769   -1.448747   -4.279281
     46          1           0      -24.906211   -2.124730    1.459180
     47          1           0      -19.986509    0.569441    4.416148
     48          1           0      -18.202475    1.428751   -3.918240
     49          1           0      -19.114779   -1.371247   -4.345531
     50          1           0      -20.861381    0.227494   -5.794383
     51          1           0      -19.312283   -0.535434   -6.363450
     52          1           0      -19.389041    1.088118   -5.769219
     53          1           0      -16.075850    0.627699   -3.718296
     54          1           0      -16.839095   -0.730777   -4.612115
     55          1           0      -16.970510   -1.309469   -1.853923
     56          1           0      -15.421443   -0.656208   -2.270441
     57          1           0      -24.128531   -1.760878   -4.711177
     58          1           0      -25.627131   -2.444683   -4.055851
     59          1           0      -24.136113   -3.402604   -4.018736
     60          1           0      -26.553398   -1.409314    0.549735
     61          1           0      -26.801975   -3.158315    0.878463
     62          1           0      -28.122222   -2.240994    0.167942
     63          1           0      -23.163060   -2.456102    3.706074
     64          1           0      -22.736466    0.538331    4.612282
     65          1           0      -24.918414   -0.358736    4.812305
     66          1           0      -25.352502   -2.163936    4.519912
     67          1           0      -25.654170   -0.964718    3.363189
     68          1           0      -20.846130   -1.419816    5.372392
     69          1           0      -22.377450   -2.014578    5.816406
     70          1           0      -22.129938   -0.679236    7.835539
     71          1           0      -22.137296    0.764616    6.788548
     72          1           0      -20.686714   -0.035475    6.950733
     73          1           0      -16.776697    2.641137    3.862347
     74          1           0      -16.714692    0.896693    4.161118
     75          1           0      -18.073710    1.901320    4.689622
     76          1           0      -16.088318    1.277486   -1.255694
     77          1           0      -19.254285    5.608247   -1.576817
     78          1           0      -17.919857    5.406637   -2.731617
     79          1           0      -17.739829    6.335043   -1.312483
     80         12           0       20.467970   -0.887778   -0.001690
     81          6           0       21.246420    2.645032    0.145435
     82          6           0       17.605150   -0.094109    1.267852
     83          6           0       20.061263   -4.158182    0.038171
     84          6           0       23.968966   -1.626344   -0.639805
     85          7           0       19.499076    1.128589    0.521088
     86          6           0       19.951901    2.431574    0.526380
     87          6           0       18.901999    3.341235    1.054675
     88          6           0       17.964469    2.392425    1.844880
     89          6           0       18.389748    1.041867    1.221882
     90          6           0       18.197739    2.391446    3.371601
     91          6           0       18.110079    3.973727   -0.130123
     92          6           0       17.801803    5.517556   -0.024458
     93          1           0       17.443203    6.343007   -1.323712
     94          7           0       18.912822   -1.994905    0.569079
     95          6           0       17.765303   -1.512094    0.965038
     96          6           0       16.842504   -2.618867    1.132895
     97          6           0       17.552673   -3.743008    0.649518
     98          6           0       18.906763   -3.315535    0.423772
     99          6           0       15.384711   -2.375580    1.563777
    100          6           0       17.008778   -5.133654    0.475480
    101          8           0       17.718567   -6.012222    0.086017
    102          6           0       15.551865   -5.379654    0.696319
    103          7           0       21.970465   -2.670255   -0.000138
    104          6           0       21.408535   -3.870786   -0.125013
    105          6           0       22.378942   -4.896849   -0.576236
    106          6           0       23.697451   -4.060389   -0.592766
    107          6           0       23.224162   -2.645038   -0.391513
    108          6           0       22.436132   -6.253612    0.213809
    109          6           0       24.503385   -4.294009   -1.929849
    110          6           0       25.794245   -5.159299   -1.910096
    111          7           0       22.208012    0.150236   -0.206563
    112          6           0       23.531429   -0.219220   -0.535378
    113          6           0       24.362604    0.995572   -0.663766
    114          6           0       23.510340    2.066337   -0.429365
    115          6           0       22.261064    1.556970   -0.117990
    116          6           0       25.898497    1.009624   -0.855916
    117          6           0       23.498160    3.563463   -0.370761
    118          8           0       24.327265    4.416908   -0.581425
    119          6           0       22.049487    3.999828    0.180304
    120          6           0       21.517519    5.093607   -0.546379
    121          8           0       20.778170    4.933974   -1.527666
    122          8           0       21.898930    6.366213   -0.132859
    123          6           0       21.217423    7.555815   -0.729397
    124          1           0       16.591331    0.039128    1.649463
    125          1           0       19.911197   -5.238584   -0.011560
    126          1           0       25.021715   -1.830818   -0.840722
    127          1           0       19.337050    4.027405    1.781783
    128          1           0       16.893904    2.565245    1.736511
    129          1           0       17.295469    2.707584    3.895960
    130          1           0       19.009196    3.091678    3.567686
    131          1           0       18.523692    1.435091    3.781517
    132          1           0       17.162473    3.435015   -0.146516
    133          1           0       18.670355    3.719272   -1.029586
    134          1           0       18.644286    5.986237    0.483406
    135          1           0       16.940149    5.531793    0.644024
    136          1           0       14.731068   -2.653520    0.735957
    137          1           0       15.152929   -1.372215    1.919387
    138          1           0       15.093657   -3.098577    2.325252
    139          1           0       14.924768   -4.821187    0.001857
    140          1           0       15.134238   -5.039895    1.644016
    141          1           0       15.341125   -6.430467    0.496053
    142          1           0       22.130238   -5.152411   -1.606262
    143          1           0       24.276742   -4.285301    0.303006
    144          1           0       21.615954   -6.222402    0.930297
    145          1           0       23.390144   -6.532174    0.662821
    146          1           0       22.272280   -7.067570   -0.492599
    147          1           0       24.830622   -3.328600   -2.316820
    148          1           0       23.740898   -4.541747   -2.668310
    149          1           0       25.781271   -5.861898   -2.743174
    150          1           0       25.865894   -5.682550   -0.956437
    151          1           0       26.678297   -4.533727   -2.039148
    152          1           0       26.165433    0.134344   -1.447476
    153          1           0       26.379569    0.859303    0.110838
    154          1           0       26.242993    1.922777   -1.341829
    155          1           0       22.163390    4.286441    1.225347
    156          1           0       20.153475    7.560333   -0.488371
    157          1           0       21.514506    7.709030   -1.766184
    158          1           0       21.524273    8.415884   -0.134363
 ---------------------------------------------------------------------

 SCF Done:  E(RCAM-B3LYP) =  -4069.72992283     A.U. after   19 cycles

 Excitation energies and oscillator strengths:

 Excited State   1:      Singlet-A      1.6347 eV  758.47 nm  f=0.3911  <S**2>=0.000
     309 -> 315        0.16914
     311 -> 313        0.68878
     309 <- 315        0.10874
 This state for optimization and/or second-order correction.
 Total Energy, E(TD-HF/TD-DFT) =  -4069.66984998
 Copying the excited state density for this state as the 1-particle RhoCI density.

 Excited State   2:      Singlet-A      1.7383 eV  713.26 nm  f=0.3780  <S**2>=0.000
     310 -> 316       -0.16387
     312 -> 314        0.68893
     310 <- 316       -0.10277

 Excited State   3:      Singlet-A      2.1488 eV  576.99 nm  f=0.1480  <S**2>=0.000
     309 -> 313        0.65209
     311 -> 315       -0.25545

 Excited State   4:      Singlet-A      2.1721 eV  570.81 nm  f=0.2260  <S**2>=0.000
     310 -> 314        0.67443
     312 -> 316        0.20201

 Excited State   5:      Singlet-A      3.0102 eV  411.88 nm  f=0.0000  <S**2>=0.000
     312 -> 313        0.70710

 The electronic state is 1-A.
 Alpha  occ. eigenvalues --  -46.90000 -46.89424 -19.26275 -19.23955 -19.20378
 Alpha  occ. eigenvalues --  -19.19626 -19.19241 -19.18531 -19.18513 -19.17287
 Alpha  occ. eigenvalues --  -14.42633 -14.42086 -14.41744 -14.40155 -14.40105
 Alpha  occ. eigenvalues --  -14.39807 -14.39756 -14.39711 -10.40530 -10.38501
 Alpha  occ. eigenvalues --  -10.35941 -10.35113 -10.34330 -10.33625 -10.32873
 Alpha  occ. eigenvalues --  -10.32143 -10.31656 -10.31603 -10.31123 -10.31063
 Alpha  occ. eigenvalues --  -10.31006 -10.30977 -10.30810 -10.30748 -10.30580
 Alpha  occ. eigenvalues --  -10.30229 -10.30022 -10.30009 -10.29822 -10.29440
 Alpha  occ. eigenvalues --  -10.29356 -10.29299 -10.28946 -10.28924 -10.28907
 Alpha  occ. eigenvalues --  -10.28695 -10.28516 -10.28486 -10.28345 -10.28251
 Alpha  occ. eigenvalues --  -10.28229 -10.28169 -10.28087 -10.28021 -10.28015
 Alpha  occ. eigenvalues --  -10.27987 -10.27889 -10.27854 -10.27570 -10.27562
 Alpha  occ. eigenvalues --  -10.27282 -10.27247 -10.27146 -10.27123 -10.26841
 Alpha  occ. eigenvalues --  -10.26832 -10.26790 -10.26785 -10.26743 -10.26509
 Alpha  occ. eigenvalues --  -10.26393 -10.26335 -10.26274 -10.26273 -10.26265
 Alpha  occ. eigenvalues --  -10.26118 -10.26029 -10.25908 -10.25714 -10.25695
 Alpha  occ. eigenvalues --  -10.25566 -10.25521 -10.25426 -10.25211 -10.25130
 Alpha  occ. eigenvalues --  -10.25085  -3.18471  -3.17948  -1.93329  -1.92963
 Alpha  occ. eigenvalues --   -1.92835  -1.92747  -1.92410  -1.92247  -1.15735
 Alpha  occ. eigenvalues --   -1.14168  -1.12150  -1.11464  -1.10834  -1.09411
 Alpha  occ. eigenvalues --   -1.07307  -1.06393  -1.05639  -1.05221  -1.04940
 Alpha  occ. eigenvalues --   -1.04866  -1.04417  -1.02990  -1.02210  -1.00969
 Alpha  occ. eigenvalues --   -0.93747  -0.91240  -0.89895  -0.89240  -0.88853
 Alpha  occ. eigenvalues --   -0.88792  -0.88459  -0.87997  -0.87977  -0.87780
 Alpha  occ. eigenvalues --   -0.87620  -0.87307  -0.85941  -0.85178  -0.84607
 Alpha  occ. eigenvalues --   -0.84326  -0.84051  -0.83156  -0.83040  -0.82232
 Alpha  occ. eigenvalues --   -0.82121  -0.81999  -0.81039  -0.80938  -0.80646
 Alpha  occ. eigenvalues --   -0.80387  -0.78751  -0.78573  -0.77863  -0.77108
 Alpha  occ. eigenvalues --   -0.77050  -0.76753  -0.76683  -0.76204  -0.75533
 Alpha  occ. eigenvalues --   -0.75389  -0.73644  -0.72758  -0.71811  -0.71085
 Alpha  occ. eigenvalues --   -0.70088  -0.69447  -0.69199  -0.68768  -0.68464
 Alpha  occ. eigenvalues --   -0.67919  -0.67319  -0.66626  -0.66329  -0.66092
 Alpha  occ. eigenvalues --   -0.65607  -0.65550  -0.64957  -0.64773  -0.64460
 Alpha  occ. eigenvalues --   -0.64206  -0.63654  -0.61420  -0.61026  -0.60339
 Alpha  occ. eigenvalues --   -0.60087  -0.59453  -0.59045  -0.58946  -0.58122
 Alpha  occ. eigenvalues --   -0.58035  -0.57682  -0.57552  -0.57277  -0.57163
 Alpha  occ. eigenvalues --   -0.56588  -0.56532  -0.55856  -0.55727  -0.55489
 Alpha  occ. eigenvalues --   -0.55386  -0.55170  -0.54522  -0.54031  -0.53992
 Alpha  occ. eigenvalues --   -0.53855  -0.53373  -0.53333  -0.53240  -0.53016
 Alpha  occ. eigenvalues --   -0.52621  -0.52568  -0.52413  -0.52136  -0.51965
 Alpha  occ. eigenvalues --   -0.51901  -0.51862  -0.51831  -0.51408  -0.51299
 Alpha  occ. eigenvalues --   -0.51138  -0.50750  -0.50651  -0.50530  -0.50223
 Alpha  occ. eigenvalues --   -0.50068  -0.50038  -0.49838  -0.49772  -0.49685
 Alpha  occ. eigenvalues --   -0.49540  -0.49520  -0.49259  -0.49241  -0.49054
 Alpha  occ. eigenvalues --   -0.48817  -0.48723  -0.48290  -0.48286  -0.47929
 Alpha  occ. eigenvalues --   -0.47921  -0.47758  -0.47617  -0.47538  -0.47425
 Alpha  occ. eigenvalues --   -0.47364  -0.47280  -0.47140  -0.46957  -0.46471
 Alpha  occ. eigenvalues --   -0.46413  -0.46214  -0.46199  -0.45767  -0.45675
 Alpha  occ. eigenvalues --   -0.45588  -0.45514  -0.45386  -0.45375  -0.45078
 Alpha  occ. eigenvalues --   -0.44942  -0.44901  -0.44763  -0.44533  -0.44446
 Alpha  occ. eigenvalues --   -0.44212  -0.44056  -0.44000  -0.43439  -0.43420
 Alpha  occ. eigenvalues --   -0.43314  -0.43127  -0.42973  -0.42766  -0.42731
 Alpha  occ. eigenvalues --   -0.42693  -0.42645  -0.42432  -0.42199  -0.42134
 Alpha  occ. eigenvalues --   -0.41998  -0.41858  -0.41784  -0.41540  -0.41343
 Alpha  occ. eigenvalues --   -0.41283  -0.41025  -0.40620  -0.40615  -0.40348
 Alpha  occ. eigenvalues --   -0.40286  -0.40177  -0.39875  -0.39836  -0.39089
 Alpha  occ. eigenvalues --   -0.38732  -0.38308  -0.38042  -0.37647  -0.37424
 Alpha  occ. eigenvalues --   -0.37018  -0.36939  -0.36503  -0.36208  -0.36041
 Alpha  occ. eigenvalues --   -0.35711  -0.35660  -0.34840  -0.33920  -0.33577
 Alpha  occ. eigenvalues --   -0.33139  -0.33036  -0.32589  -0.31826  -0.31625
 Alpha  occ. eigenvalues --   -0.31508  -0.31080  -0.30951  -0.30725  -0.30563
 Alpha  occ. eigenvalues --   -0.29662  -0.29599  -0.28404  -0.24516  -0.23516
 Alpha  occ. eigenvalues --   -0.21773  -0.21605
 Alpha virt. eigenvalues --   -0.09720  -0.09052  -0.02012  -0.00334   0.00090
 Alpha virt. eigenvalues --    0.00946   0.00957   0.02338   0.02640   0.02679
 Alpha virt. eigenvalues --    0.04514   0.04552   0.04859   0.05177   0.05855

 Mulliken charges:
               1
     1  Mg   0.824984
     2  C    0.019298
     3  C   -0.076965
     4  C   -0.075295
     5  C   -0.091243
     6  N   -0.272155
     7  C   -0.046313
     8  C    0.019132
     9  C   -0.037957
    10  C    0.011858
    11  C    0.090872
    12  C    0.034500
    13  C   -0.113623
    14  H    0.011893
    15  N   -0.363526
    16  C    0.155805
    17  C   -0.164904
    18  C   -0.053200
    19  C    0.113984
    20  C    0.136376
    21  C   -0.034849
    22  O   -0.178650
    23  C    0.046380
    24  N   -0.288418
    25  C    0.057817
    26  C   -0.083510
    27  C   -0.035965
    28  C    0.048031
    29  C    0.096416
    30  C    0.030981
    31  C    0.010221
    32  N   -0.351621
    33  C    0.123502
    34  C   -0.172823
    35  C    0.107875
    36  C    0.078514
    37  C    0.118778
    38  C   -0.023681
    39  O   -0.181030
    40  C   -0.040724
    41  C    0.244506
    42  O   -0.225300
    43  O   -0.349234
    44  C    0.180453
    45  H   -0.016053
    46  H   -0.017594
    47  H   -0.037893
    48  H    0.015017
    49  H    0.022351
    50  H    0.014253
    51  H    0.019008
    52  H    0.005489
    53  H    0.034673
    54  H    0.020726
    55  H    0.043002
    56  H    0.033940
    57  H    0.010787
    58  H    0.039585
    59  H    0.029667
    60  H    0.015075
    61  H    0.049025
    62  H    0.031167
    63  H    0.029328
    64  H    0.016149
    65  H    0.016729
    66  H    0.016775
    67  H    0.012767
    68  H    0.006036
    69  H    0.002134
    70  H    0.033189
    71  H    0.005127
    72  H    0.010929
    73  H    0.037274
    74  H    0.037010
    75  H    0.010974
    76  H    0.036966
    77  H    0.035864
    78  H    0.037916
    79  H    0.041418
    80  Mg   0.836499
    81  C   -0.017187
    82  C   -0.043179
    83  C   -0.045063
    84  C   -0.101714
    85  N   -0.239104
    86  C   -0.040158
    87  C   -0.024275
    88  C   -0.084532
    89  C    0.050312
    90  C    0.081896
    91  C    0.071411
    92  C   -0.043361
    93  H    0.034280
    94  N   -0.366956
    95  C    0.065583
    96  C   -0.128865
    97  C   -0.029964
    98  C    0.104923
    99  C    0.110665
   100  C    0.002111
   101  O   -0.168090
   102  C    0.040322
   103  N   -0.199812
   104  C   -0.011542
   105  C   -0.045224
   106  C    0.011780
   107  C    0.027157
   108  C    0.070643
   109  C    0.014225
   110  C    0.026939
   111  N   -0.397680
   112  C    0.109377
   113  C   -0.209707
   114  C   -0.008120
   115  C    0.122768
   116  C    0.119309
   117  C    0.086566
   118  O   -0.138094
   119  C   -0.010473
   120  C    0.199199
   121  O   -0.246408
   122  O   -0.357454
   123  C    0.195817
   124  H   -0.050804
   125  H   -0.004309
   126  H   -0.024513
   127  H   -0.003120
   128  H    0.009634
   129  H    0.019479
   130  H    0.006386
   131  H    0.023202
   132  H    0.001133
   133  H    0.050106
   134  H    0.026175
   135  H    0.014104
   136  H    0.026372
   137  H    0.029718
   138  H    0.019838
   139  H    0.028441
   140  H    0.022325
   141  H    0.029401
   142  H    0.020282
   143  H    0.004768
   144  H    0.029001
   145  H    0.015480
   146  H    0.009544
   147  H   -0.002223
   148  H   -0.009394
   149  H    0.017888
   150  H    0.014454
   151  H    0.016670
   152  H    0.008474
   153  H    0.029927
   154  H    0.038338
   155  H    0.050208
   156  H    0.028715
   157  H    0.055450
   158  H    0.024029
 Sum of Mulliken charges =  -0.00000

 Dipole moment (field-independent basis, Debye):
    X=             -6.7707    Y=             -0.3684    Z=              5.6451  Tot=              8.8229
 Quadrupole moment (field-independent basis, Debye-Ang):
   XX=           -599.6594   YY=           -516.7845   ZZ=           -485.7472
   XY=           -100.6214   XZ=            -33.6850   YZ=              5.0738

 Normal termination of Gaussian 16 at Wed Sep 15 00:33:26 2021.
