 Gaussian 16, Revision A.03,
 Gaussian 16:  ES64L-G16RevA.03 25-Dec-2016

 ----------------------------------------------------------
 #p cam-b3lyp/Def2SVP td=(nstates=5) density=(transition=1)
 ----------------------------------------------------------

 --------------------------------
 TDDFT excited states in gaussian
 --------------------------------
 Symbolic Z-matrix:
 Charge =  0 Multiplicity = 1

                         Standard orientation:
 ---------------------------------------------------------------------
 Center     Atomic      Atomic             Coordinates (Angstroms)
 Number     Number       Type             X           Y           Z
 ---------------------------------------------------------------------
      1         12           0       13.237656   -0.785809    0.174027
      2          6           0       12.056750    2.170889   -1.377554
      3          6           0       15.551087    1.274907    1.792695
      4          6           0       14.384026   -3.406772    1.785214
      5          6           0       11.434797   -2.677995   -2.119280
      6          7           0       13.683038    1.455203    0.196917
      7          6           0       12.991321    2.472167   -0.388268
      8          6           0       13.521681    3.890659   -0.118087
      9          6           0       14.753396    3.485931    0.839954
     10          6           0       14.641360    1.991992    0.916005
     11          6           0       16.174314    3.888033    0.278289
     12          6           0       12.474972    4.810433    0.591166
     13          6           0       11.815105    6.024235   -0.051521
     14          1           0       11.483857    7.267788    0.762940
     15          7           0       14.708456   -1.054820    1.658422
     16          6           0       15.608285   -0.096539    2.146864
     17          6           0       16.537258   -0.781634    3.017621
     18          6           0       16.126787   -2.104682    3.161436
     19          6           0       14.992840   -2.225753    2.224502
     20          6           0       17.551185    0.027622    3.751801
     21          6           0       16.716077   -3.266270    3.960895
     22          8           0       16.261327   -4.414214    3.970592
     23          6           0       17.820303   -2.948997    4.890672
     24          7           0       13.053758   -2.778869   -0.160944
     25          6           0       13.441613   -3.710822    0.761434
     26          6           0       12.719369   -5.079247    0.518153
     27          6           0       11.909097   -4.818245   -0.744937
     28          6           0       12.194546   -3.331360   -1.095104
     29          6           0       13.694383   -6.300671    0.466568
     30          6           0       10.425414   -5.113263   -0.476998
     31          6           0        9.659975   -5.872127   -1.499178
     32          7           0       12.069712   -0.405229   -1.496464
     33          6           0       11.376257   -1.259928   -2.315558
     34          6           0       10.626643   -0.543643   -3.303842
     35          6           0       10.752653    0.888341   -2.950014
     36          6           0       11.656797    0.882677   -1.815874
     37          6           0        9.812971   -1.172627   -4.447808
     38          6           0       10.376273    2.289354   -3.265802
     39          8           0        9.532799    2.732953   -4.063385
     40          6           0       11.215905    3.156866   -2.240142
     41          6           0       11.999977    3.999769   -3.196754
     42          8           0       13.068331    3.744826   -3.739336
     43          8           0       11.459701    5.180777   -3.323982
     44          6           0       11.978831    6.121093   -4.346678
     45          1           0       16.102220    2.046210    2.334123
     46          1           0       14.701593   -4.360870    2.210243
     47          1           0       10.820228   -3.287859   -2.784183
     48          1           0       13.891303    4.289954   -1.063399
     49          1           0       14.732011    3.819723    1.877829
     50          1           0       16.235786    4.147083   -0.778341
     51          1           0       16.872886    3.063526    0.416342
     52          1           0       16.540868    4.738598    0.853278
     53          1           0       12.970564    5.209496    1.476322
     54          1           0       11.612958    4.224871    0.908235
     55          1           0       10.835244    5.609441   -0.288445
     56          1           0       12.480334    6.213864   -0.893966
     57          1           0       17.417717   -0.034835    4.830915
     58          1           0       17.491055    1.079867    3.472687
     59          1           0       18.575698   -0.292538    3.564575
     60          1           0       17.542297   -2.093366    5.506199
     61          1           0       18.699053   -2.559364    4.376581
     62          1           0       18.066719   -3.749735    5.587222
     63          1           0       12.106132   -5.162319    1.415300
     64          1           0       12.185912   -5.510177   -1.540192
     65          1           0       14.717114   -6.070321    0.764638
     66          1           0       13.779545   -6.754147   -0.520264
     67          1           0       13.270580   -7.132950    1.028340
     68          1           0       10.004442   -4.113656   -0.376783
     69          1           0       10.232111   -5.693343    0.425019
     70          1           0        8.808613   -5.232915   -1.731862
     71          1           0        9.428319   -6.871806   -1.131778
     72          1           0       10.160009   -5.979143   -2.462027
     73          1           0       10.453517   -1.274753   -5.323029
     74          1           0        8.951074   -0.534779   -4.643140
     75          1           0        9.475168   -2.180856   -4.207095
     76          1           0       10.499544    3.762009   -1.684805
     77          1           0       13.023608    6.396257   -4.206581
     78          1           0       11.399016    7.038745   -4.443868
     79          1           0       11.939660    5.789661   -5.383878
     80         12           0      -13.391585   -0.519663   -0.342890
     81          6           0      -11.291023    2.063750    0.711912
     82          6           0      -16.068854    1.681058    0.189545
     83          6           0      -15.562159   -3.027670   -0.787294
     84          6           0      -10.822315   -2.745275    0.194516
     85          7           0      -13.672600    1.720266    0.284140
     86          6           0      -12.621596    2.472287    0.706379
     87          6           0      -13.111857    3.903871    1.161373
     88          6           0      -14.703820    3.660690    1.221663
     89          6           0      -14.853431    2.271435    0.579164
     90          6           0      -15.099893    3.537160    2.735885
     91          6           0      -12.737737    4.913483    0.014742
     92          6           0      -13.233324    6.377921    0.161817
     93          1           0      -13.855004    7.271148   -0.870177
     94          7           0      -15.476826   -0.583260   -0.495009
     95          6           0      -16.438692    0.419447   -0.287446
     96          6           0      -17.704273   -0.153206   -0.480561
     97          6           0      -17.575314   -1.455238   -0.945239
     98          6           0      -16.161281   -1.739124   -0.763878
     99          6           0      -18.933244    0.689165   -0.375509
    100          6           0      -18.655631   -2.498771   -1.382435
    101          8           0      -18.413124   -3.628489   -1.793367
    102          6           0      -20.131447   -2.122907   -1.540648
    103          7           0      -13.213392   -2.579937   -0.180236
    104          6           0      -14.227867   -3.389797   -0.557338
    105          6           0      -13.812087   -4.864420   -0.724619
    106          6           0      -12.326545   -4.797010   -0.273635
    107          6           0      -12.039339   -3.308912   -0.184886
    108          6           0      -14.765998   -5.891972   -0.029773
    109          6           0      -11.289633   -5.582432   -1.122584
    110          6           0      -10.921070   -4.993570   -2.417878
    111          7           0      -11.421531   -0.415854    0.221992
    112          6           0      -10.520668   -1.355400    0.393142
    113          6           0       -9.196867   -0.798778    0.690389
    114          6           0       -9.504807    0.593849    0.813073
    115          6           0      -10.851256    0.772753    0.562659
    116          6           0       -7.882004   -1.389278    0.477033
    117          6           0       -8.892015    1.885151    1.071229
    118          8           0       -7.730943    2.192435    1.219386
    119          6           0      -10.073813    2.862333    1.080622
    120          6           0      -10.163562    3.632816    2.402067
    121          8           0      -10.615199    3.180994    3.422080
    122          8           0       -9.584239    4.869543    2.247359
    123          6           0       -9.640237    5.680835    3.485201
    124          1           0      -16.879304    2.410462    0.232944
    125          1           0      -16.200321   -3.840507   -1.140874
    126          1           0      -10.171360   -3.620523    0.158308
    127          1           0      -12.751530    4.173240    2.154527
    128          1           0      -15.300551    4.434429    0.737003
    129          1           0      -15.330789    2.536190    3.098954
    130          1           0      -16.087968    3.957313    2.925317
    131          1           0      -14.366729    3.962240    3.421062
    132          1           0      -13.100767    4.487312   -0.920115
    133          1           0      -11.652554    4.886820   -0.087728
    134          1           0      -12.389920    6.889788    0.626170
    135          1           0      -14.041892    6.238352    0.878275
    136          1           0      -18.771754    1.726284   -0.080343
    137          1           0      -19.664801    0.138204    0.217148
    138          1           0      -19.301439    0.730950   -1.400957
    139          1           0      -20.626927   -1.882059   -0.600056
    140          1           0      -20.722189   -2.832801   -2.119812
    141          1           0      -20.153594   -1.248833   -2.191767
    142          1           0      -13.928180   -4.916901   -1.806788
    143          1           0      -12.345940   -5.171955    0.749667
    144          1           0      -15.786113   -5.511584    0.011182
    145          1           0      -14.425157   -6.063280    0.991633
    146          1           0      -14.826931   -6.840051   -0.564528
    147          1           0      -11.810183   -6.527869   -1.271885
    148          1           0      -10.416939   -5.815832   -0.512336
    149          1           0      -10.144983   -4.243316   -2.267350
    150          1           0      -11.796094   -4.595888   -2.931593
    151          1           0      -10.448815   -5.722896   -3.076699
    152          1           0       -8.036871   -2.132103   -0.305838
    153          1           0       -7.415662   -1.976197    1.268488
    154          1           0       -7.219982   -0.572631    0.191030
    155          1           0       -9.933283    3.558164    0.252819
    156          1           0       -8.734272    6.284068    3.540731
    157          1           0       -9.553205    5.132285    4.423320
    158          1           0      -10.482658    6.371353    3.461617
 ---------------------------------------------------------------------

 SCF Done:  E(RCAM-B3LYP) =  -4069.81903086     A.U. after   17 cycles

 Excitation energies and oscillator strengths:

 Excited State   1:      Singlet-A      1.7445 eV  710.71 nm  f=0.4952  <S**2>=0.000
     310 -> 316       -0.18325
     311 -> 313        0.11784
     312 -> 314        0.67366
     310 <- 316       -0.10539
 This state for optimization and/or second-order correction.
 Total Energy, E(TD-HF/TD-DFT) =  -4069.75492125
 Copying the excited state density for this state as the 1-particle RhoCI density.

 Excited State   2:      Singlet-A      1.7571 eV  705.62 nm  f=0.2830  <S**2>=0.000
     309 -> 315       -0.18082
     311 -> 313        0.67352
     312 -> 314       -0.11757
     309 <- 315       -0.10322

 Excited State   3:      Singlet-A      2.2200 eV  558.48 nm  f=0.1025  <S**2>=0.000
     309 -> 313        0.63623
     311 -> 315        0.29382

 Excited State   4:      Singlet-A      2.2617 eV  548.19 nm  f=0.1166  <S**2>=0.000
     310 -> 314        0.64498
     312 -> 316        0.27675

 Excited State   5:      Singlet-A      3.0733 eV  403.42 nm  f=0.0000  <S**2>=0.000
     312 -> 313        0.70706

 The electronic state is 1-A.
 Alpha  occ. eigenvalues --  -46.88667 -46.88456 -19.25746 -19.25232 -19.20375
 Alpha  occ. eigenvalues --  -19.19519 -19.19398 -19.18796 -19.18789 -19.18117
 Alpha  occ. eigenvalues --  -14.42513 -14.42206 -14.41833 -14.41022 -14.39753
 Alpha  occ. eigenvalues --  -14.39107 -14.39098 -14.38913 -10.39741 -10.38575
 Alpha  occ. eigenvalues --  -10.36133 -10.35913 -10.35365 -10.34465 -10.31876
 Alpha  occ. eigenvalues --  -10.31776 -10.31564 -10.31332 -10.31040 -10.31037
 Alpha  occ. eigenvalues --  -10.30843 -10.30673 -10.30592 -10.30537 -10.30453
 Alpha  occ. eigenvalues --  -10.30320 -10.29924 -10.29610 -10.29579 -10.29359
 Alpha  occ. eigenvalues --  -10.28964 -10.28789 -10.28696 -10.28665 -10.28658
 Alpha  occ. eigenvalues --  -10.28639 -10.28547 -10.28519 -10.28356 -10.28320
 Alpha  occ. eigenvalues --  -10.27965 -10.27962 -10.27920 -10.27883 -10.27808
 Alpha  occ. eigenvalues --  -10.27698 -10.27640 -10.27608 -10.27559 -10.27469
 Alpha  occ. eigenvalues --  -10.27458 -10.27387 -10.27236 -10.27061 -10.27001
 Alpha  occ. eigenvalues --  -10.26988 -10.26919 -10.26913 -10.26458 -10.26423
 Alpha  occ. eigenvalues --  -10.26348 -10.26319 -10.26154 -10.25957 -10.25952
 Alpha  occ. eigenvalues --  -10.25801 -10.25792 -10.25755 -10.25617 -10.25566
 Alpha  occ. eigenvalues --  -10.25242 -10.25233 -10.25150 -10.25087 -10.24789
 Alpha  occ. eigenvalues --  -10.24255  -3.17230  -3.17053  -1.92118  -1.91953
 Alpha  occ. eigenvalues --   -1.91700  -1.91518  -1.91509  -1.91356  -1.17725
 Alpha  occ. eigenvalues --   -1.16794  -1.10364  -1.10254  -1.10022  -1.08730
 Alpha  occ. eigenvalues --   -1.08311  -1.06417  -1.05403  -1.04931  -1.03939
 Alpha  occ. eigenvalues --   -1.03744  -1.03310  -1.02708  -1.02402  -1.01289
 Alpha  occ. eigenvalues --   -0.93781  -0.91772  -0.89507  -0.89397  -0.88974
 Alpha  occ. eigenvalues --   -0.88722  -0.88527  -0.88209  -0.87649  -0.87446
 Alpha  occ. eigenvalues --   -0.87184  -0.86690  -0.86158  -0.85040  -0.84268
 Alpha  occ. eigenvalues --   -0.84029  -0.83586  -0.83409  -0.82805  -0.82634
 Alpha  occ. eigenvalues --   -0.82366  -0.81502  -0.80889  -0.80758  -0.80448
 Alpha  occ. eigenvalues --   -0.80374  -0.78709  -0.78474  -0.77558  -0.77427
 Alpha  occ. eigenvalues --   -0.76804  -0.76545  -0.76121  -0.76115  -0.75091
 Alpha  occ. eigenvalues --   -0.74826  -0.72442  -0.72157  -0.71763  -0.71747
 Alpha  occ. eigenvalues --   -0.70013  -0.69157  -0.69124  -0.68317  -0.68131
 Alpha  occ. eigenvalues --   -0.67539  -0.66968  -0.66861  -0.65800  -0.65333
 Alpha  occ. eigenvalues --   -0.65213  -0.64795  -0.64789  -0.64403  -0.64132
 Alpha  occ. eigenvalues --   -0.63972  -0.62450  -0.62332  -0.60882  -0.60033
 Alpha  occ. eigenvalues --   -0.59441  -0.59409  -0.59339  -0.58912  -0.58594
 Alpha  occ. eigenvalues --   -0.58427  -0.58203  -0.57775  -0.57570  -0.57312
 Alpha  occ. eigenvalues --   -0.56632  -0.56514  -0.55690  -0.55569  -0.55466
 Alpha  occ. eigenvalues --   -0.55198  -0.54904  -0.54558  -0.54238  -0.54109
 Alpha  occ. eigenvalues --   -0.53976  -0.53769  -0.53490  -0.53213  -0.53101
 Alpha  occ. eigenvalues --   -0.52856  -0.52650  -0.52569  -0.52512  -0.52495
 Alpha  occ. eigenvalues --   -0.52067  -0.52056  -0.51352  -0.51092  -0.50976
 Alpha  occ. eigenvalues --   -0.50559  -0.50512  -0.50381  -0.50250  -0.49957
 Alpha  occ. eigenvalues --   -0.49882  -0.49818  -0.49673  -0.49593  -0.49417
 Alpha  occ. eigenvalues --   -0.49346  -0.49183  -0.48997  -0.48938  -0.48781
 Alpha  occ. eigenvalues --   -0.48638  -0.48461  -0.48427  -0.48119  -0.47966
 Alpha  occ. eigenvalues --   -0.47864  -0.47741  -0.47461  -0.47362  -0.47057
 Alpha  occ. eigenvalues --   -0.46621  -0.46562  -0.46251  -0.46078  -0.46020
 Alpha  occ. eigenvalues --   -0.45960  -0.45766  -0.45694  -0.45512  -0.45381
 Alpha  occ. eigenvalues --   -0.45329  -0.45099  -0.45039  -0.44958  -0.44929
 Alpha  occ. eigenvalues --   -0.44696  -0.44585  -0.44387  -0.44288  -0.44192
 Alpha  occ. eigenvalues --   -0.44169  -0.44040  -0.43949  -0.43816  -0.43629
 Alpha  occ. eigenvalues --   -0.43298  -0.43207  -0.43125  -0.42989  -0.42865
 Alpha  occ. eigenvalues --   -0.42742  -0.42535  -0.42367  -0.42356  -0.42348
 Alpha  occ. eigenvalues --   -0.41839  -0.41810  -0.41621  -0.41575  -0.41338
 Alpha  occ. eigenvalues --   -0.41163  -0.40757  -0.40733  -0.40350  -0.40216
 Alpha  occ. eigenvalues --   -0.39997  -0.39774  -0.39572  -0.39442  -0.38803
 Alpha  occ. eigenvalues --   -0.38437  -0.38372  -0.37853  -0.37807  -0.37707
 Alpha  occ. eigenvalues --   -0.37287  -0.37166  -0.36675  -0.36557  -0.36319
 Alpha  occ. eigenvalues --   -0.36311  -0.35774  -0.34888  -0.34381  -0.34231
 Alpha  occ. eigenvalues --   -0.33372  -0.33123  -0.33021  -0.31855  -0.31717
 Alpha  occ. eigenvalues --   -0.31405  -0.31054  -0.30763  -0.30527  -0.30244
 Alpha  occ. eigenvalues --   -0.30013  -0.29140  -0.28643  -0.23846  -0.23753
 Alpha  occ. eigenvalues --   -0.21109  -0.21035
 Alpha virt. eigenvalues --   -0.08453  -0.08345  -0.01794  -0.01291  -0.00124
 Alpha virt. eigenvalues --    0.00475   0.01941   0.02144   0.02597   0.02770
 Alpha virt. eigenvalues --    0.05189   0.05314   0.05584   0.05837   0.06253

 Mulliken charges:
               1
     1  Mg  12.001066
     2  C    5.996174
     3  C    6.001434
     4  C    6.005608
     5  C    5.998066
     6  N    6.998206
     7  C    6.005936
     8  C    5.997179
     9  C    6.002169
    10  C    5.994134
    11  C    6.000955
    12  C    5.999357
    13  C    5.999603
    14  H    1.001102
    15  N    7.002100
    16  C    5.992694
    17  C    5.997200
    18  C    5.996240
    19  C    5.994313
    20  C    6.001325
    21  C    5.997848
    22  O    7.994997
    23  C    6.000915
    24  N    7.001898
    25  C    5.991738
    26  C    6.001496
    27  C    5.998530
    28  C    6.004634
    29  C    6.000602
    30  C    5.999596
    31  C    5.999990
    32  N    6.999576
    33  C    6.005991
    34  C    6.005319
    35  C    6.000596
    36  C    6.006076
    37  C    5.999683
    38  C    6.003154
    39  O    8.005254
    40  C    6.000204
    41  C    6.000212
    42  O    8.001142
    43  O    8.000232
    44  C    5.999561
    45  H    0.997623
    46  H    0.999509
    47  H    1.001792
    48  H    1.000070
    49  H    1.000037
    50  H    0.997464
    51  H    1.000611
    52  H    0.998567
    53  H    1.001579
    54  H    1.000031
    55  H    0.999413
    56  H    0.999837
    57  H    0.996620
    58  H    0.997047
    59  H    0.996373
    60  H    0.999097
    61  H    0.998605
    62  H    0.997318
    63  H    0.999976
    64  H    1.000265
    65  H    1.000792
    66  H    0.998369
    67  H    0.999258
    68  H    0.999488
    69  H    1.002053
    70  H    0.999782
    71  H    1.001062
    72  H    0.999570
    73  H    1.003459
    74  H    1.003114
    75  H    1.003616
    76  H    1.001726
    77  H    1.000914
    78  H    1.000795
    79  H    1.000066
    80  Mg  11.997816
    81  C    6.010235
    82  C    5.977807
    83  C    5.984923
    84  C    6.027315
    85  N    6.996380
    86  C    5.978686
    87  C    6.009249
    88  C    5.988008
    89  C    6.039099
    90  C    5.997251
    91  C    6.004437
    92  C    6.000362
    93  H    0.992716
    94  N    6.991672
    95  C    6.047812
    96  C    6.010082
    97  C    6.025667
    98  C    6.027638
    99  C    5.995863
   100  C    6.011295
   101  O    8.027542
   102  C    5.995131
   103  N    7.005446
   104  C    6.032154
   105  C    5.992792
   106  C    6.011234
   107  C    5.961822
   108  C    5.996876
   109  C    6.002470
   110  C    6.005837
   111  N    7.002115
   112  C    5.960482
   113  C    5.960839
   114  C    6.000991
   115  C    5.966531
   116  C    6.007386
   117  C    5.983673
   118  O    7.974106
   119  C    6.000389
   120  C    5.996277
   121  O    7.993815
   122  O    7.999312
   123  C    6.002357
   124  H    1.008147
   125  H    1.007521
   126  H    0.993080
   127  H    0.998861
   128  H    1.002216
   129  H    0.999261
   130  H    1.000314
   131  H    1.014465
   132  H    0.992284
   133  H    1.007908
   134  H    1.002486
   135  H    0.993679
   136  H    1.019154
   137  H    1.017540
   138  H    1.017700
   139  H    1.009114
   140  H    1.014594
   141  H    1.006371
   142  H    0.998716
   143  H    0.994163
   144  H    0.992203
   145  H    1.008482
   146  H    1.006684
   147  H    0.990937
   148  H    1.003434
   149  H    1.008916
   150  H    0.989729
   151  H    0.995372
   152  H    0.977664
   153  H    0.973191
   154  H    0.983876
   155  H    0.990689
   156  H    0.996734
   157  H    0.997604
   158  H    0.993021
 Sum of Mulliken charges = 624.00000

 Dipole moment (field-independent basis, Debye):
    X=            -11.8072    Y=             -0.9279    Z=             -3.0698  Tot=             12.2350
 Quadrupole moment (field-independent basis, Debye-Ang):
   XX=            248.2996   YY=             -1.4872   ZZ=              0.2146
   XY=             26.1423   XZ=              4.9464   YZ=              1.9650

 Normal termination of Gaussian 16 at Thu Sep 23 07:56:59 2021.
