 Gaussian 16, Revision A.03,
 Gaussian 16:  ES64L-G16RevA.03 25-Dec-2016

 -----------------------------------
 #p cam-b3lyp/Def2SVP td=(nstates=5)
 -----------------------------------

 --------------------------------
 TDDFT excited states in gaussian
 --------------------------------
 Symbolic Z-matrix:
 Charge =  0 Multiplicity = 1

                         Standard orientation:
 ---------------------------------------------------------------------
 Center     Atomic      Atomic             Coordinates (Angstroms)
 Number     Number       Type             X           Y           Z
 ---------------------------------------------------------------------
      1         12           0       12.707759   -0.691502   -0.340022
      2          6           0       14.980605    1.910403    0.057065
      3          6           0       10.169503    1.465273    0.465238
      4          6           0       10.574671   -3.347817   -0.430324
      5          6           0       15.520868   -2.791298   -0.897343
      6          7           0       12.591200    1.422590    0.230402
      7          6           0       13.649659    2.291746    0.198555
      8          6           0       13.078289    3.681061    0.492375
      9          6           0       11.635297    3.454531    0.906781
     10          6           0       11.441110    2.008213    0.465840
     11          6           0       11.214380    3.710869    2.328964
     12          6           0       13.273499    4.767635   -0.669303
     13          6           0       12.508514    6.116505   -0.476959
     14          1           0       13.230992    7.282219    0.247749
     15          7           0       10.646242   -0.855984   -0.167048
     16          6           0        9.783128    0.125549    0.195127
     17          6           0        8.479744   -0.480871    0.275824
     18          6           0        8.609387   -1.877721    0.020453
     19          6           0        9.970339   -2.098757   -0.182775
     20          6           0        7.276865    0.348655    0.604074
     21          6           0        7.480253   -2.943572    0.128524
     22          8           0        7.727240   -4.131360    0.236813
     23          6           0        6.068323   -2.612127    0.230850
     24          7           0       13.010491   -2.644761   -0.612904
     25          6           0       11.981730   -3.584950   -0.662171
     26          6           0       12.493574   -5.003107   -0.968864
     27          6           0       13.978943   -4.720153   -1.378529
     28          6           0       14.165282   -3.267066   -0.973955
     29          6           0       12.181521   -6.047259    0.021729
     30          6           0       14.463222   -5.042551   -2.898942
     31          6           0       15.601516   -6.033174   -3.161246
     32          7           0       14.896986   -0.521619   -0.361503
     33          6           0       15.856336   -1.468854   -0.585616
     34          6           0       17.162301   -0.903796   -0.527844
     35          6           0       16.871959    0.501753   -0.341850
     36          6           0       15.468214    0.648552   -0.159870
     37          6           0       18.413062   -1.666291   -0.747535
     38          6           0       17.479077    1.812341   -0.304707
     39          8           0       18.610463    2.225147   -0.468005
     40          6           0       16.206781    2.807807   -0.021662
     41          6           0       16.471076    3.717502    1.122193
     42          8           0       16.585260    3.341597    2.268224
     43          8           0       16.555417    5.005910    0.747050
     44          6           0       16.565251    6.047263    1.845068
     45          1           0        9.350961    2.159271    0.668612
     46          1           0        9.870726   -4.182263   -0.446733
     47          1           0       16.238499   -3.585101   -1.115751
     48          1           0       13.700719    3.960926    1.342178
     49          1           0       10.989495    4.126937    0.342611
     50          1           0       11.101105    2.679890    2.662744
     51          1           0       10.316800    4.325665    2.397412
     52          1           0       12.024125    4.116696    2.935742
     53          1           0       12.880353    4.232786   -1.534128
     54          1           0       14.333073    4.986898   -0.795552
     55          1           0       11.599702    5.983663    0.108655
     56          1           0       12.199199    6.466618   -1.461758
     57          1           0        7.402436    1.428068    0.694475
     58          1           0        6.966953    0.030452    1.598914
     59          1           0        6.425645    0.143450   -0.045392
     60          1           0        5.734556   -1.859275    0.944193
     61          1           0        5.395077   -3.460626    0.352173
     62          1           0        5.843660   -2.279933   -0.782479
     63          1           0       11.908397   -5.170407   -1.873532
     64          1           0       14.479044   -5.306841   -0.608114
     65          1           0       11.531309   -6.859789   -0.303618
     66          1           0       11.706637   -5.557900    0.872493
     67          1           0       13.054143   -6.587218    0.389039
     68          1           0       14.773213   -4.098673   -3.346980
     69          1           0       13.709427   -5.401624   -3.600655
     70          1           0       16.557420   -5.576586   -3.419232
     71          1           0       15.347580   -6.856596   -3.828172
     72          1           0       15.847248   -6.501578   -2.208092
     73          1           0       18.354214   -2.595592   -0.181427
     74          1           0       19.305493   -1.088813   -0.507812
     75          1           0       18.374844   -2.062177   -1.762892
     76          1           0       16.133312    3.437908   -0.907453
     77          1           0       16.997449    6.907679    1.334696
     78          1           0       17.184546    5.683158    2.664577
     79          1           0       15.523063    6.241422    2.098964
     80         12           0      -13.006169   -0.610715    0.380467
     81          6           0      -13.573215    2.460883   -1.212803
     82          6           0      -11.670420    1.126809    3.035837
     83          6           0      -12.454223   -3.515639    1.846227
     84          6           0      -14.255819   -2.215863   -2.483895
     85          7           0      -12.767940    1.544878    0.832237
     86          6           0      -13.040271    2.664338    0.045687
     87          6           0      -12.988804    4.021239    0.851807
     88          6           0      -12.254766    3.529845    2.084457
     89          6           0      -12.224715    1.947764    2.001619
     90          6           0      -10.736860    4.026953    2.074225
     91          6           0      -14.515181    4.326128    1.191277
     92          6           0      -14.999574    5.836681    1.058266
     93          1           0      -13.868822    6.765694    1.419376
     94          7           0      -12.066836   -1.101080    2.078449
     95          6           0      -11.586710   -0.295946    3.022029
     96          6           0      -11.055980   -1.017133    4.148480
     97          6           0      -11.424930   -2.359020    3.928487
     98          6           0      -11.971772   -2.391753    2.519856
     99          6           0      -10.358278   -0.424816    5.317702
    100          6           0      -11.408575   -3.549394    4.865188
    101          8           0      -11.996726   -4.607885    4.616035
    102          6           0      -10.550968   -3.511242    6.133118
    103          7           0      -13.280265   -2.607265   -0.283468
    104          6           0      -13.013162   -3.614666    0.613334
    105          6           0      -13.504714   -4.932730    0.018812
    106          6           0      -14.213789   -4.512458   -1.359554
    107          6           0      -13.976113   -3.025468   -1.386198
    108          6           0      -12.319433   -5.959137   -0.053458
    109          6           0      -15.667446   -4.921356   -1.538695
    110          6           0      -15.945505   -5.687289   -2.869937
    111          7           0      -13.736197   -0.010725   -1.473433
    112          6           0      -14.201762   -0.795344   -2.574913
    113          6           0      -14.571797    0.044211   -3.657828
    114          6           0      -14.336382    1.331075   -3.145200
    115          6           0      -13.788607    1.219458   -1.850393
    116          6           0      -15.130849   -0.287640   -5.003850
    117          6           0      -14.419913    2.728555   -3.426340
    118          8           0      -14.760003    3.350472   -4.405269
    119          6           0      -14.027712    3.495742   -2.131977
    120          6           0      -13.055077    4.563063   -2.480922
    121          8           0      -11.884120    4.427321   -2.824239
    122          8           0      -13.679639    5.730194   -2.296200
    123          6           0      -12.896848    6.931810   -2.495483
    124          1           0      -11.352032    1.548867    3.991185
    125          1           0      -12.235146   -4.443488    2.380573
    126          1           0      -14.708051   -2.669060   -3.368590
    127          1           0      -12.592276    4.750456    0.146006
    128          1           0      -12.785619    3.835412    2.985459
    129          1           0      -10.493424    4.601763    1.180457
    130          1           0      -10.090377    3.150763    2.119832
    131          1           0      -10.648242    4.618998    2.985187
    132          1           0      -14.793612    4.050914    2.208114
    133          1           0      -15.103518    3.676301    0.542918
    134          1           0      -15.718541    6.078516    1.841106
    135          1           0      -15.578951    5.992599    0.147892
    136          1           0      -11.021899   -0.556839    6.173350
    137          1           0      -10.197250    0.644250    5.186056
    138          1           0       -9.399191   -0.894877    5.533136
    139          1           0      -10.479596   -4.579849    6.334508
    140          1           0      -10.992406   -2.938960    6.949893
    141          1           0       -9.511523   -3.202150    6.024688
    142          1           0      -14.252700   -5.465595    0.605830
    143          1           0      -13.643942   -4.944858   -2.182095
    144          1           0      -12.720584   -6.897151    0.330512
    145          1           0      -11.423066   -5.639368    0.478025
    146          1           0      -12.128344   -6.270288   -1.081156
    147          1           0      -16.376385   -4.096527   -1.474055
    148          1           0      -15.816062   -5.693900   -0.782924
    149          1           0      -15.013616   -5.901265   -3.393541
    150          1           0      -16.451926   -5.055603   -3.599458
    151          1           0      -16.472677   -6.623646   -2.685949
    152          1           0      -16.157626   -0.549337   -4.746732
    153          1           0      -14.501352   -1.076525   -5.414961
    154          1           0      -15.178494    0.579232   -5.661411
    155          1           0      -14.949464    4.014377   -1.865008
    156          1           0      -12.432814    6.914313   -3.482017
    157          1           0      -12.046091    7.080262   -1.829589
    158          1           0      -13.598449    7.763334   -2.426560
 ---------------------------------------------------------------------

 SCF Done:  E(RCAM-B3LYP) =  -4069.83943922     A.U. after   19 cycles

 Excitation energies and oscillator strengths:

 Excited State   1:      Singlet-A      1.6979 eV  730.21 nm  f=0.4175  <S**2>=0.000
     309 -> 315       -0.17875
     311 -> 313        0.68418
     309 <- 315       -0.10809
 This state for optimization and/or second-order correction.
 Total Energy, E(TD-HF/TD-DFT) =  -4069.77704130
 Copying the excited state density for this state as the 1-particle RhoCI density.

 Excited State   2:      Singlet-A      1.7258 eV  718.40 nm  f=0.3677  <S**2>=0.000
     310 -> 316        0.16098
     312 -> 314        0.68615

 Excited State   3:      Singlet-A      2.2224 eV  557.88 nm  f=0.0919  <S**2>=0.000
     309 -> 313        0.63226
     311 -> 315        0.30139

 Excited State   4:      Singlet-A      2.2842 eV  542.79 nm  f=0.1220  <S**2>=0.000
     310 -> 314        0.63700
     312 -> 316       -0.28308

 Excited State   5:      Singlet-A      2.9928 eV  414.28 nm  f=0.0000  <S**2>=0.000
     312 -> 313        0.70706

 The electronic state is 1-A.
 Alpha  occ. eigenvalues --  -46.87879 -46.87839 -19.25335 -19.24422 -19.19985
 Alpha  occ. eigenvalues --  -19.19083 -19.18870 -19.18662 -19.18261 -19.17475
 Alpha  occ. eigenvalues --  -14.42715 -14.42311 -14.42044 -14.41689 -14.40292
 Alpha  occ. eigenvalues --  -14.39050 -14.38539 -14.38440 -10.38389 -10.37969
 Alpha  occ. eigenvalues --  -10.36301 -10.35587 -10.34649 -10.33224 -10.32111
 Alpha  occ. eigenvalues --  -10.31976 -10.31599 -10.31442 -10.31129 -10.31116
 Alpha  occ. eigenvalues --  -10.31082 -10.30748 -10.30698 -10.30521 -10.30445
 Alpha  occ. eigenvalues --  -10.30184 -10.29806 -10.29699 -10.29608 -10.29135
 Alpha  occ. eigenvalues --  -10.29074 -10.28995 -10.28983 -10.28512 -10.28415
 Alpha  occ. eigenvalues --  -10.28298 -10.28140 -10.28111 -10.28074 -10.28048
 Alpha  occ. eigenvalues --  -10.27902 -10.27613 -10.27599 -10.27596 -10.27535
 Alpha  occ. eigenvalues --  -10.27533 -10.27522 -10.27263 -10.27215 -10.27213
 Alpha  occ. eigenvalues --  -10.27165 -10.27141 -10.27138 -10.27055 -10.27034
 Alpha  occ. eigenvalues --  -10.26955 -10.26945 -10.26865 -10.26859 -10.26764
 Alpha  occ. eigenvalues --  -10.26696 -10.26604 -10.26282 -10.26253 -10.26233
 Alpha  occ. eigenvalues --  -10.26158 -10.26115 -10.25956 -10.25865 -10.25772
 Alpha  occ. eigenvalues --  -10.25757 -10.25588 -10.25494 -10.25479 -10.25242
 Alpha  occ. eigenvalues --  -10.23653  -3.16548  -3.16539  -1.91458  -1.91454
 Alpha  occ. eigenvalues --   -1.90995  -1.90983  -1.90879  -1.90841  -1.17175
 Alpha  occ. eigenvalues --   -1.15850  -1.10986  -1.10421  -1.09491  -1.09439
 Alpha  occ. eigenvalues --   -1.07160  -1.06736  -1.05243  -1.05055  -1.04112
 Alpha  occ. eigenvalues --   -1.03984  -1.03317  -1.02991  -1.02414  -1.02354
 Alpha  occ. eigenvalues --   -0.92722  -0.92435  -0.89712  -0.89217  -0.88711
 Alpha  occ. eigenvalues --   -0.88549  -0.88494  -0.88334  -0.88043  -0.87573
 Alpha  occ. eigenvalues --   -0.87102  -0.86976  -0.86706  -0.86705  -0.84643
 Alpha  occ. eigenvalues --   -0.84026  -0.83707  -0.83595  -0.82644  -0.82474
 Alpha  occ. eigenvalues --   -0.82419  -0.81912  -0.81413  -0.81342  -0.80745
 Alpha  occ. eigenvalues --   -0.80447  -0.78977  -0.78796  -0.77797  -0.77490
 Alpha  occ. eigenvalues --   -0.77285  -0.76836  -0.75896  -0.75673  -0.75152
 Alpha  occ. eigenvalues --   -0.75048  -0.73172  -0.72781  -0.71819  -0.71475
 Alpha  occ. eigenvalues --   -0.69390  -0.69254  -0.68945  -0.68934  -0.68228
 Alpha  occ. eigenvalues --   -0.67676  -0.67459  -0.66920  -0.65550  -0.65486
 Alpha  occ. eigenvalues --   -0.65426  -0.65310  -0.65084  -0.64681  -0.64576
 Alpha  occ. eigenvalues --   -0.64206  -0.62546  -0.61428  -0.60858  -0.60533
 Alpha  occ. eigenvalues --   -0.59756  -0.59664  -0.59210  -0.58956  -0.58831
 Alpha  occ. eigenvalues --   -0.58698  -0.57960  -0.57836  -0.57369  -0.57303
 Alpha  occ. eigenvalues --   -0.56710  -0.56364  -0.55756  -0.55736  -0.55412
 Alpha  occ. eigenvalues --   -0.55398  -0.54785  -0.54577  -0.54533  -0.53891
 Alpha  occ. eigenvalues --   -0.53808  -0.53607  -0.53234  -0.53160  -0.52969
 Alpha  occ. eigenvalues --   -0.52665  -0.52612  -0.52594  -0.52345  -0.52216
 Alpha  occ. eigenvalues --   -0.52079  -0.51841  -0.51384  -0.51317  -0.51104
 Alpha  occ. eigenvalues --   -0.50994  -0.50844  -0.50804  -0.50495  -0.50479
 Alpha  occ. eigenvalues --   -0.50365  -0.50305  -0.50050  -0.49932  -0.49711
 Alpha  occ. eigenvalues --   -0.49439  -0.49347  -0.49332  -0.49142  -0.48995
 Alpha  occ. eigenvalues --   -0.48705  -0.48626  -0.48592  -0.48487  -0.48232
 Alpha  occ. eigenvalues --   -0.47973  -0.47745  -0.47722  -0.47605  -0.47451
 Alpha  occ. eigenvalues --   -0.47246  -0.47106  -0.46839  -0.46810  -0.46632
 Alpha  occ. eigenvalues --   -0.46592  -0.46540  -0.46465  -0.46254  -0.46146
 Alpha  occ. eigenvalues --   -0.46067  -0.45344  -0.45153  -0.45134  -0.45115
 Alpha  occ. eigenvalues --   -0.44801  -0.44774  -0.44624  -0.44516  -0.44408
 Alpha  occ. eigenvalues --   -0.44360  -0.44241  -0.44012  -0.43756  -0.43725
 Alpha  occ. eigenvalues --   -0.43684  -0.43373  -0.43155  -0.42915  -0.42811
 Alpha  occ. eigenvalues --   -0.42705  -0.42684  -0.42416  -0.42010  -0.41959
 Alpha  occ. eigenvalues --   -0.41826  -0.41645  -0.41512  -0.41285  -0.41177
 Alpha  occ. eigenvalues --   -0.40964  -0.40883  -0.40440  -0.40382  -0.40197
 Alpha  occ. eigenvalues --   -0.40128  -0.39801  -0.39507  -0.39278  -0.38881
 Alpha  occ. eigenvalues --   -0.38789  -0.38338  -0.37773  -0.37697  -0.37487
 Alpha  occ. eigenvalues --   -0.37262  -0.36980  -0.36886  -0.36540  -0.36382
 Alpha  occ. eigenvalues --   -0.36291  -0.36056  -0.34308  -0.34069  -0.33985
 Alpha  occ. eigenvalues --   -0.33919  -0.32987  -0.32879  -0.32331  -0.31460
 Alpha  occ. eigenvalues --   -0.31310  -0.30969  -0.30969  -0.30209  -0.29754
 Alpha  occ. eigenvalues --   -0.29720  -0.29335  -0.29049  -0.24206  -0.24192
 Alpha  occ. eigenvalues --   -0.21128  -0.21126
 Alpha virt. eigenvalues --   -0.08798  -0.08652  -0.01876  -0.01766   0.00452
 Alpha virt. eigenvalues --    0.00615   0.02729   0.02745   0.03346   0.03381
 Alpha virt. eigenvalues --    0.04699   0.05240   0.05493   0.05814   0.06259

 Mulliken charges:
               1
     1  Mg   0.828848
     2  C    0.048430
     3  C   -0.079079
     4  C   -0.067468
     5  C   -0.103360
     6  N   -0.255731
     7  C   -0.052005
     8  C   -0.000629
     9  C   -0.103488
    10  C    0.035628
    11  C    0.099474
    12  C    0.042548
    13  C   -0.062428
    14  H    0.013815
    15  N   -0.403927
    16  C    0.147237
    17  C   -0.142786
    18  C   -0.017855
    19  C    0.106313
    20  C    0.100463
    21  C    0.025231
    22  O   -0.202225
    23  C    0.059479
    24  N   -0.343344
    25  C    0.041655
    26  C   -0.041093
    27  C   -0.002496
    28  C    0.022975
    29  C    0.094426
    30  C    0.043891
    31  C   -0.014164
    32  N   -0.286870
    33  C    0.153007
    34  C   -0.160763
    35  C   -0.026699
    36  C    0.074259
    37  C    0.149301
    38  C    0.065583
    39  O   -0.154829
    40  C   -0.074538
    41  C    0.174475
    42  O   -0.224133
    43  O   -0.340787
    44  C    0.172992
    45  H   -0.041526
    46  H    0.001684
    47  H   -0.024244
    48  H    0.009344
    49  H   -0.002284
    50  H    0.017438
    51  H    0.021484
    52  H    0.015261
    53  H    0.009209
    54  H    0.039099
    55  H    0.023287
    56  H    0.035919
    57  H    0.015665
    58  H    0.027082
    59  H    0.025264
    60  H    0.035862
    61  H    0.022987
    62  H    0.027536
    63  H    0.010778
    64  H    0.007981
    65  H    0.017752
    66  H    0.025371
    67  H    0.006114
    68  H    0.012118
    69  H    0.010665
    70  H    0.018386
    71  H    0.023325
    72  H   -0.001806
    73  H    0.012700
    74  H    0.047925
    75  H    0.021449
    76  H    0.037287
    77  H    0.044560
    78  H    0.065001
    79  H    0.041996
    80  Mg   0.840611
    81  C    0.028071
    82  C   -0.106974
    83  C   -0.066715
    84  C   -0.071323
    85  N   -0.281531
    86  C   -0.102125
    87  C   -0.000452
    88  C   -0.045920
    89  C    0.075564
    90  C    0.067049
    91  C    0.037826
    92  C   -0.060930
    93  H    0.017313
    94  N   -0.375427
    95  C    0.135940
    96  C   -0.158271
    97  C   -0.029471
    98  C    0.112089
    99  C    0.127648
   100  C    0.018932
   101  O   -0.213560
   102  C    0.015279
   103  N   -0.316310
   104  C    0.098037
   105  C   -0.060679
   106  C   -0.001765
   107  C    0.049109
   108  C    0.056744
   109  C    0.052960
   110  C   -0.019159
   111  N   -0.321808
   112  C    0.076455
   113  C   -0.187198
   114  C    0.016469
   115  C    0.096283
   116  C    0.134238
   117  C    0.001213
   118  O   -0.166728
   119  C   -0.002475
   120  C    0.159876
   121  O   -0.227065
   122  O   -0.302878
   123  C    0.183705
   124  H   -0.025740
   125  H    0.002437
   126  H   -0.035452
   127  H    0.026720
   128  H    0.014535
   129  H    0.029451
   130  H    0.022569
   131  H    0.018130
   132  H    0.007217
   133  H    0.019998
   134  H    0.019572
   135  H    0.040736
   136  H    0.030076
   137  H    0.017802
   138  H    0.035476
   139  H    0.033502
   140  H    0.043167
   141  H    0.031175
   142  H    0.017515
   143  H    0.009742
   144  H    0.005452
   145  H    0.040268
   146  H    0.003599
   147  H    0.024285
   148  H    0.003454
   149  H    0.001175
   150  H    0.016304
   151  H    0.023507
   152  H    0.031592
   153  H    0.031552
   154  H    0.036723
   155  H    0.038183
   156  H    0.036693
   157  H    0.027692
   158  H    0.038251
 Sum of Mulliken charges =  -0.00000

 Dipole moment (field-independent basis, Debye):
    X=             -4.9107    Y=             -0.2257    Z=              3.7261  Tot=              6.1684
 Quadrupole moment (field-independent basis, Debye-Ang):
   XX=           -654.5208   YY=           -475.1703   ZZ=           -516.2823
   XY=            -14.9669   XZ=            -87.3021   YZ=             44.1671

 Normal termination of Gaussian 16 at Thu Sep 16 01:15:04 2021.
