 Gaussian 16, Revision A.03,
 Gaussian 16:  ES64L-G16RevA.03 25-Dec-2016

 -----------------------------------
 #p cam-b3lyp/Def2SVP td=(nstates=5)
 -----------------------------------

 --------------------------------
 TDDFT excited states in gaussian
 --------------------------------
 Symbolic Z-matrix:
 Charge =  0 Multiplicity = 1

                         Standard orientation:
 ---------------------------------------------------------------------
 Center     Atomic      Atomic             Coordinates (Angstroms)
 Number     Number       Type             X           Y           Z
 ---------------------------------------------------------------------
      1         12           0       20.396862   -0.875668   -0.091998
      2          6           0       21.227132    2.463148   -0.115763
      3          6           0       17.180835    0.036055    0.949403
      4          6           0       19.525250   -4.133717    0.048697
      5          6           0       23.623925   -1.705216   -0.736335
      6          7           0       19.420315    1.059428    0.619137
      7          6           0       19.921596    2.319991    0.271345
      8          6           0       18.844876    3.418712    0.369823
      9          6           0       17.602508    2.567495    0.824359
     10          6           0       18.029878    1.116694    0.765040
     11          6           0       17.079826    2.960506    2.200328
     12          6           0       18.527789    4.307475   -0.884616
     13          6           0       18.918510    5.881293   -0.794515
     14          1           0       17.684591    6.770584   -0.976446
     15          7           0       18.680399   -1.904962    0.510701
     16          6           0       17.423714   -1.337842    0.777274
     17          6           0       16.375869   -2.362627    0.830358
     18          6           0       17.049948   -3.687153    0.641427
     19          6           0       18.482189   -3.304521    0.317822
     20          6           0       14.919099   -2.043944    1.084964
     21          6           0       16.532669   -5.047284    0.680907
     22          8           0       17.314239   -6.005481    0.589902
     23          6           0       15.064878   -5.369730    0.899843
     24          7           0       21.441664   -2.582059   -0.228758
     25          6           0       20.864470   -3.864578   -0.275490
     26          6           0       21.856902   -5.030554   -0.673773
     27          6           0       23.199220   -4.158195   -0.887549
     28          6           0       22.712862   -2.716761   -0.615205
     29          6           0       22.011748   -6.184358    0.435282
     30          6           0       23.793272   -4.350772   -2.325214
     31          6           0       25.282317   -4.395578   -2.469087
     32          7           0       22.131146    0.196133   -0.270458
     33          6           0       23.400590   -0.289804   -0.596508
     34          6           0       24.301208    0.779028   -0.863906
     35          6           0       23.430191    1.927211   -0.774472
     36          6           0       22.173445    1.486699   -0.340533
     37          6           0       25.714827    0.779787   -1.270961
     38          6           0       23.422351    3.356475   -0.795382
     39          8           0       24.251326    4.231851   -1.067627
     40          6           0       21.992769    3.761480   -0.212935
     41          6           0       22.187880    4.492636    1.067011
     42          8           0       22.096356    4.088005    2.158800
     43          8           0       22.393334    5.847967    0.819815
     44          6           0       22.023208    6.732134    1.905354
     45          1           0       16.157307    0.333188    1.187349
     46          1           0       19.356537   -5.211077   -0.007481
     47          1           0       24.624269   -1.962627   -1.090495
     48          1           0       19.107690    4.088499    1.187904
     49          1           0       16.735815    2.746230    0.187359
     50          1           0       17.236399    2.127059    2.884608
     51          1           0       16.015119    3.101270    2.018044
     52          1           0       17.459317    3.899610    2.602476
     53          1           0       17.458836    4.230628   -1.085017
     54          1           0       19.070266    3.958866   -1.763529
     55          1           0       19.549980    6.008166   -1.674039
     56          1           0       19.412705    6.097026    0.152499
     57          1           0       14.838460   -1.783425    2.141023
     58          1           0       14.338549   -2.941915    0.879179
     59          1           0       14.570846   -1.153728    0.560749
     60          1           0       15.040287   -6.416756    1.202587
     61          1           0       14.438777   -5.188968    0.025476
     62          1           0       14.578870   -4.924228    1.767618
     63          1           0       21.589612   -5.423304   -1.654259
     64          1           0       24.031842   -4.429199   -0.237996
     65          1           0       23.057770   -6.489776    0.468357
     66          1           0       21.522815   -7.134859    0.225250
     67          1           0       21.685503   -5.869510    1.426711
     68          1           0       23.417124   -3.637381   -3.058303
     69          1           0       23.537592   -5.318923   -2.755381
     70          1           0       25.530432   -3.486907   -3.017360
     71          1           0       25.752899   -5.125224   -3.128085
     72          1           0       25.748174   -4.387757   -1.483143
     73          1           0       25.918120   -0.148985   -1.804733
     74          1           0       26.259939    0.773027   -0.327159
     75          1           0       25.936677    1.730437   -1.756251
     76          1           0       21.476260    4.416734   -0.913888
     77          1           0       22.841838    6.626837    2.616480
     78          1           0       21.105060    6.316579    2.320280
     79          1           0       21.954460    7.768502    1.573488
     80         12           0      -21.168056    0.190118    0.189942
     81          6           0      -17.949105    1.089738   -0.770500
     82          6           0      -21.954681   -0.157805   -3.169202
     83          6           0      -24.067634   -1.198778    0.957161
     84          6           0      -20.126318    0.085983    3.488801
     85          7           0      -20.050529    0.275765   -1.729458
     86          6           0      -18.783495    0.799063   -1.886546
     87          6           0      -18.415487    1.011755   -3.325169
     88          6           0      -19.842228    0.965145   -4.030529
     89          6           0      -20.679257    0.288339   -2.953230
     90          6           0      -20.474910    2.246366   -4.755291
     91          6           0      -17.312678    0.010253   -3.905527
     92          6           0      -17.277114   -1.438444   -3.334165
     93          1           0      -17.048626   -2.510111   -4.372878
     94          7           0      -22.754291   -0.688086   -0.943257
     95          6           0      -22.890225   -0.714590   -2.336828
     96          6           0      -24.082510   -1.410044   -2.737378
     97          6           0      -24.729740   -1.757152   -1.527547
     98          6           0      -23.865573   -1.253891   -0.418540
     99          6           0      -24.531867   -1.391060   -4.199278
    100          6           0      -26.092428   -2.486548   -1.513661
    101          8           0      -26.632999   -2.885604   -2.550146
    102          6           0      -26.733896   -2.626992   -0.197634
    103          7           0      -21.878562   -0.556342    1.981983
    104          6           0      -23.233827   -0.828445    2.063817
    105          6           0      -23.722126   -1.026160    3.515775
    106          6           0      -22.334279   -0.826141    4.252021
    107          6           0      -21.379523   -0.462972    3.203423
    108          6           0      -24.803928   -0.144143    4.054467
    109          6           0      -21.821897   -2.159371    4.999277
    110          6           0      -21.341616   -1.849490    6.393116
    111          7           0      -19.448046    0.702658    1.248777
    112          6           0      -19.173304    0.604129    2.600187
    113          6           0      -17.782814    1.039261    2.864784
    114          6           0      -17.255892    1.247387    1.542725
    115          6           0      -18.301272    1.023479    0.639206
    116          6           0      -16.981890    0.985268    4.101900
    117          6           0      -16.066925    1.544354    0.715723
    118          8           0      -14.918761    1.711664    1.056477
    119          6           0      -16.476396    1.494305   -0.791481
    120          6           0      -16.154357    2.762003   -1.447791
    121          8           0      -15.384774    2.998389   -2.379391
    122          8           0      -16.681525    3.793469   -0.627188
    123          6           0      -16.511868    5.167159   -1.147284
    124          1           0      -22.232129   -0.009800   -4.215434
    125          1           0      -25.056992   -1.461027    1.337440
    126          1           0      -19.923279    0.091850    4.561184
    127          1           0      -17.958428    1.992492   -3.456430
    128          1           0      -19.650530    0.223791   -4.806661
    129          1           0      -19.830134    3.122793   -4.817940
    130          1           0      -21.357552    2.643429   -4.254078
    131          1           0      -20.615997    2.025465   -5.813665
    132          1           0      -16.321618    0.459696   -3.852414
    133          1           0      -17.492980   -0.043735   -4.979129
    134          1           0      -18.189414   -1.655524   -2.777731
    135          1           0      -16.455064   -1.534707   -2.625427
    136          1           0      -25.082304   -2.282295   -4.502294
    137          1           0      -23.652705   -1.406986   -4.842890
    138          1           0      -25.178148   -0.518529   -4.297616
    139          1           0      -27.065399   -1.642763    0.131931
    140          1           0      -26.038779   -3.090429    0.503169
    141          1           0      -27.596553   -3.269553   -0.373580
    142          1           0      -23.929975   -2.088454    3.646071
    143          1           0      -22.501908    0.090285    4.817818
    144          1           0      -24.824397   -0.324415    5.129388
    145          1           0      -25.749708   -0.536945    3.681178
    146          1           0      -24.630095    0.893407    3.766753
    147          1           0      -21.047130   -2.587687    4.363498
    148          1           0      -22.512313   -3.002839    5.039152
    149          1           0      -20.260293   -1.983579    6.410023
    150          1           0      -21.626267   -2.619310    7.111139
    151          1           0      -21.521101   -0.798863    6.620387
    152          1           0      -17.496932    0.605882    4.985704
    153          1           0      -16.719600    2.017603    4.330776
    154          1           0      -16.260787    0.214069    3.831792
    155          1           0      -15.891207    0.672952   -1.204379
    156          1           0      -17.501408    5.593781   -0.979299
    157          1           0      -16.237630    5.345421   -2.187090
    158          1           0      -15.901409    5.665868   -0.394241
 ---------------------------------------------------------------------

 SCF Done:  E(RCAM-B3LYP) =  -4069.79782571     A.U. after   19 cycles

 Excitation energies and oscillator strengths:

 Excited State   1:      Singlet-A      1.6722 eV  741.43 nm  f=0.4180  <S**2>=0.000
     309 -> 316        0.15725
     311 -> 313        0.68843
 This state for optimization and/or second-order correction.
 Total Energy, E(TD-HF/TD-DFT) =  -4069.73637268
 Copying the excited state density for this state as the 1-particle RhoCI density.

 Excited State   2:      Singlet-A      1.7179 eV  721.72 nm  f=0.3647  <S**2>=0.000
     310 -> 315        0.18174
     312 -> 314        0.68353
     310 <- 315        0.10499

 Excited State   3:      Singlet-A      2.1914 eV  565.78 nm  f=0.1264  <S**2>=0.000
     309 -> 313        0.64542
     311 -> 316       -0.25765

 Excited State   4:      Singlet-A      2.2043 eV  562.47 nm  f=0.0884  <S**2>=0.000
     310 -> 314        0.62977
     312 -> 315       -0.30494

 Excited State   5:      Singlet-A      3.0356 eV  408.43 nm  f=0.0000  <S**2>=0.000
     312 -> 313        0.70710

 The electronic state is 1-A.
 Alpha  occ. eigenvalues --  -46.89150 -46.87903 -19.24392 -19.22148 -19.20588
 Alpha  occ. eigenvalues --  -19.19564 -19.19065 -19.18869 -19.18830 -19.17929
 Alpha  occ. eigenvalues --  -14.42536 -14.42280 -14.42250 -14.41971 -14.40246
 Alpha  occ. eigenvalues --  -14.39688 -14.39229 -14.38558 -10.39782 -10.38085
 Alpha  occ. eigenvalues --  -10.35306 -10.35167 -10.35147 -10.34181 -10.31806
 Alpha  occ. eigenvalues --  -10.31667 -10.31347 -10.31262 -10.31228 -10.31025
 Alpha  occ. eigenvalues --  -10.31007 -10.30734 -10.30724 -10.30679 -10.30597
 Alpha  occ. eigenvalues --  -10.30443 -10.30255 -10.30236 -10.30123 -10.29503
 Alpha  occ. eigenvalues --  -10.29398 -10.29263 -10.29216 -10.29004 -10.28722
 Alpha  occ. eigenvalues --  -10.28587 -10.28532 -10.28478 -10.28458 -10.28389
 Alpha  occ. eigenvalues --  -10.28254 -10.28229 -10.28228 -10.28204 -10.28117
 Alpha  occ. eigenvalues --  -10.27829 -10.27727 -10.27714 -10.27688 -10.27584
 Alpha  occ. eigenvalues --  -10.27443 -10.27343 -10.27285 -10.27204 -10.27181
 Alpha  occ. eigenvalues --  -10.27173 -10.27138 -10.27007 -10.26955 -10.26773
 Alpha  occ. eigenvalues --  -10.26513 -10.26466 -10.26461 -10.26427 -10.26263
 Alpha  occ. eigenvalues --  -10.26166 -10.26100 -10.26061 -10.26003 -10.25960
 Alpha  occ. eigenvalues --  -10.25851 -10.25799 -10.25794 -10.25432 -10.25305
 Alpha  occ. eigenvalues --  -10.24463  -3.17675  -3.16665  -1.92559  -1.92146
 Alpha  occ. eigenvalues --   -1.91968  -1.91534  -1.91130  -1.90982  -1.16755
 Alpha  occ. eigenvalues --   -1.14868  -1.10410  -1.09535  -1.09413  -1.08094
 Alpha  occ. eigenvalues --   -1.07696  -1.06950  -1.05115  -1.04610  -1.03762
 Alpha  occ. eigenvalues --   -1.03410  -1.03229  -1.02387  -1.02041  -1.00602
 Alpha  occ. eigenvalues --   -0.92567  -0.92511  -0.89697  -0.89266  -0.89165
 Alpha  occ. eigenvalues --   -0.88596  -0.88477  -0.88031  -0.87713  -0.87326
 Alpha  occ. eigenvalues --   -0.87179  -0.86925  -0.86651  -0.86228  -0.84875
 Alpha  occ. eigenvalues --   -0.84500  -0.84201  -0.83443  -0.82764  -0.82431
 Alpha  occ. eigenvalues --   -0.82383  -0.81866  -0.80889  -0.80845  -0.80203
 Alpha  occ. eigenvalues --   -0.80198  -0.78752  -0.78363  -0.77546  -0.77383
 Alpha  occ. eigenvalues --   -0.76893  -0.76671  -0.76264  -0.75792  -0.75238
 Alpha  occ. eigenvalues --   -0.75212  -0.73045  -0.72689  -0.72185  -0.71667
 Alpha  occ. eigenvalues --   -0.69472  -0.69405  -0.69305  -0.68672  -0.68135
 Alpha  occ. eigenvalues --   -0.67922  -0.67528  -0.66872  -0.66456  -0.65651
 Alpha  occ. eigenvalues --   -0.65280  -0.64973  -0.64947  -0.64554  -0.64045
 Alpha  occ. eigenvalues --   -0.63865  -0.62591  -0.60837  -0.60320  -0.60164
 Alpha  occ. eigenvalues --   -0.59423  -0.59379  -0.58987  -0.58977  -0.58438
 Alpha  occ. eigenvalues --   -0.58332  -0.58273  -0.57674  -0.57574  -0.57297
 Alpha  occ. eigenvalues --   -0.56482  -0.56368  -0.55868  -0.55553  -0.55393
 Alpha  occ. eigenvalues --   -0.55263  -0.55146  -0.54656  -0.53939  -0.53907
 Alpha  occ. eigenvalues --   -0.53606  -0.53240  -0.52973  -0.52950  -0.52755
 Alpha  occ. eigenvalues --   -0.52672  -0.52650  -0.52254  -0.52222  -0.52131
 Alpha  occ. eigenvalues --   -0.52026  -0.51660  -0.51583  -0.51343  -0.51167
 Alpha  occ. eigenvalues --   -0.51156  -0.50893  -0.50732  -0.50533  -0.50519
 Alpha  occ. eigenvalues --   -0.50320  -0.50100  -0.49983  -0.49768  -0.49677
 Alpha  occ. eigenvalues --   -0.49600  -0.49597  -0.49316  -0.48942  -0.48868
 Alpha  occ. eigenvalues --   -0.48610  -0.48565  -0.48514  -0.48341  -0.48216
 Alpha  occ. eigenvalues --   -0.48055  -0.47998  -0.47785  -0.47297  -0.47258
 Alpha  occ. eigenvalues --   -0.46962  -0.46927  -0.46811  -0.46547  -0.46465
 Alpha  occ. eigenvalues --   -0.46317  -0.46255  -0.46120  -0.45972  -0.45776
 Alpha  occ. eigenvalues --   -0.45431  -0.45380  -0.45252  -0.45165  -0.45034
 Alpha  occ. eigenvalues --   -0.45022  -0.44953  -0.44736  -0.44693  -0.44614
 Alpha  occ. eigenvalues --   -0.44136  -0.43973  -0.43640  -0.43492  -0.43465
 Alpha  occ. eigenvalues --   -0.43311  -0.43266  -0.43156  -0.43036  -0.42887
 Alpha  occ. eigenvalues --   -0.42794  -0.42525  -0.42484  -0.42177  -0.42006
 Alpha  occ. eigenvalues --   -0.41959  -0.41754  -0.41728  -0.41630  -0.41396
 Alpha  occ. eigenvalues --   -0.41269  -0.41155  -0.41001  -0.40614  -0.40506
 Alpha  occ. eigenvalues --   -0.40112  -0.40035  -0.39866  -0.39151  -0.39041
 Alpha  occ. eigenvalues --   -0.38684  -0.38555  -0.38022  -0.37795  -0.37662
 Alpha  occ. eigenvalues --   -0.37477  -0.37049  -0.36940  -0.36607  -0.36098
 Alpha  occ. eigenvalues --   -0.35705  -0.35201  -0.34898  -0.34847  -0.34433
 Alpha  occ. eigenvalues --   -0.34062  -0.33365  -0.33161  -0.31520  -0.31409
 Alpha  occ. eigenvalues --   -0.31317  -0.31246  -0.30862  -0.30006  -0.30002
 Alpha  occ. eigenvalues --   -0.29754  -0.29702  -0.29251  -0.24355  -0.24141
 Alpha  occ. eigenvalues --   -0.21440  -0.21260
 Alpha virt. eigenvalues --   -0.09260  -0.08711  -0.02291  -0.02149  -0.00212
 Alpha virt. eigenvalues --    0.00587   0.01670   0.01966   0.02440   0.02482
 Alpha virt. eigenvalues --    0.04035   0.04905   0.05145   0.05377   0.05901

 Mulliken charges:
               1
     1  Mg   0.825978
     2  C    0.028301
     3  C   -0.094146
     4  C   -0.058343
     5  C   -0.101711
     6  N   -0.299881
     7  C   -0.077972
     8  C    0.037506
     9  C   -0.089645
    10  C    0.070710
    11  C    0.065623
    12  C    0.032591
    13  C   -0.092753
    14  H    0.019596
    15  N   -0.403888
    16  C    0.188359
    17  C   -0.166098
    18  C    0.011990
    19  C    0.173291
    20  C    0.129737
    21  C   -0.020925
    22  O   -0.222368
    23  C    0.027928
    24  N   -0.333176
    25  C    0.018343
    26  C    0.006447
    27  C   -0.041507
    28  C    0.114572
    29  C    0.047033
    30  C    0.002787
    31  C   -0.000913
    32  N   -0.324929
    33  C    0.108871
    34  C   -0.169670
    35  C    0.001137
    36  C    0.101964
    37  C    0.151111
    38  C    0.020465
    39  O   -0.181802
    40  C   -0.047717
    41  C    0.190028
    42  O   -0.156566
    43  O   -0.359268
    44  C    0.189249
    45  H   -0.036505
    46  H   -0.001673
    47  H   -0.045822
    48  H    0.009239
    49  H    0.006998
    50  H    0.028669
    51  H    0.005796
    52  H    0.024030
    53  H    0.019543
    54  H    0.016439
    55  H    0.052490
    56  H    0.038935
    57  H    0.034367
    58  H    0.013023
    59  H    0.031525
    60  H    0.024684
    61  H    0.050798
    62  H    0.032387
    63  H    0.025051
    64  H    0.015859
    65  H    0.012262
    66  H    0.024140
    67  H    0.035868
    68  H    0.008796
    69  H    0.005435
    70  H    0.005622
    71  H    0.014959
    72  H    0.015286
    73  H    0.020573
    74  H    0.030192
    75  H    0.042892
    76  H    0.023847
    77  H    0.031474
    78  H    0.021552
    79  H    0.040931
    80  Mg   0.819822
    81  C   -0.024947
    82  C   -0.097603
    83  C   -0.086967
    84  C   -0.094184
    85  N   -0.283874
    86  C   -0.030079
    87  C   -0.040811
    88  C    0.001972
    89  C    0.000882
    90  C    0.064171
    91  C    0.029216
    92  C   -0.076343
    93  H    0.023157
    94  N   -0.359620
    95  C    0.167036
    96  C   -0.136597
    97  C   -0.064236
    98  C    0.184927
    99  C    0.126748
   100  C    0.000362
   101  O   -0.204481
   102  C    0.054765
   103  N   -0.295319
   104  C   -0.001562
   105  C   -0.034021
   106  C   -0.063439
   107  C    0.012391
   108  C    0.107181
   109  C    0.036494
   110  C    0.030436
   111  N   -0.342677
   112  C    0.151471
   113  C   -0.189599
   114  C   -0.004873
   115  C    0.088706
   116  C    0.130643
   117  C    0.030258
   118  O   -0.149282
   119  C    0.028477
   120  C    0.222597
   121  O   -0.208388
   122  O   -0.379708
   123  C    0.180150
   124  H   -0.029621
   125  H   -0.042266
   126  H   -0.043961
   127  H    0.010490
   128  H    0.006335
   129  H    0.011226
   130  H    0.026832
   131  H    0.022158
   132  H    0.028603
   133  H    0.010444
   134  H    0.047641
   135  H    0.030567
   136  H    0.035856
   137  H    0.016218
   138  H    0.041173
   139  H    0.048760
   140  H    0.044983
   141  H    0.024369
   142  H    0.004699
   143  H    0.008090
   144  H    0.019825
   145  H    0.014516
   146  H    0.025122
   147  H    0.015623
   148  H    0.007086
   149  H    0.005788
   150  H    0.014938
   151  H    0.023388
   152  H   -0.003563
   153  H    0.043700
   154  H    0.053136
   155  H    0.038546
   156  H    0.019002
   157  H    0.058625
   158  H    0.038419
 Sum of Mulliken charges =  -0.00000

 Dipole moment (field-independent basis, Debye):
    X=             -9.2448    Y=             -0.5480    Z=              1.7232  Tot=              9.4200
 Quadrupole moment (field-independent basis, Debye-Ang):
   XX=           -559.7538   YY=           -515.8963   ZZ=           -491.3262
   XY=           -129.9956   XZ=           -115.5385   YZ=             -4.7182

 Normal termination of Gaussian 16 at Thu Sep 16 09:49:56 2021.
