 Gaussian 16, Revision A.03,
 Gaussian 16:  ES64L-G16RevA.03 25-Dec-2016

 ----------------------------------------------------------
 #p cam-b3lyp/Def2SVP td=(nstates=5) density=(transition=1)
 ----------------------------------------------------------

 --------------------------------
 TDDFT excited states in gaussian
 --------------------------------
 Symbolic Z-matrix:
 Charge =  0 Multiplicity = 1

                         Standard orientation:
 ---------------------------------------------------------------------
 Center     Atomic      Atomic             Coordinates (Angstroms)
 Number     Number       Type             X           Y           Z
 ---------------------------------------------------------------------
      1         12           0      -12.247779    0.098172   -0.695931
      2          6           0       -8.990552   -1.225543   -0.954432
      3          6           0      -13.317429   -3.031372    0.121973
      4          6           0      -15.206808    1.497291    0.287973
      5          6           0      -10.739077    3.306057   -1.061039
      6          7           0      -11.214630   -1.906843   -0.303074
      7          6           0       -9.936615   -2.281292   -0.604595
      8          6           0       -9.650323   -3.742371   -0.217082
      9          6           0      -11.169996   -4.262752   -0.265255
     10          6           0      -11.961400   -2.984296   -0.143499
     11          6           0      -11.570411   -5.056251   -1.537873
     12          6           0       -9.019680   -3.932581    1.235326
     13          6           0       -8.208892   -5.185882    1.526817
     14          1           0       -8.714361   -6.288585    2.481318
     15          7           0      -14.116778   -0.618994    0.088997
     16          6           0      -14.355495   -1.957522    0.205512
     17          6           0      -15.703620   -2.206562    0.468296
     18          6           0      -16.323235   -0.900775    0.502632
     19          6           0      -15.227953    0.093767    0.323207
     20          6           0      -16.322675   -3.588718    0.638067
     21          6           0      -17.807307   -0.710340    0.720196
     22          8           0      -18.546911   -1.716944    0.870019
     23          6           0      -18.523898    0.684600    0.662188
     24          7           0      -12.813751    2.085630   -0.452515
     25          6           0      -14.138851    2.416577   -0.059579
     26          6           0      -14.397884    3.876416   -0.308719
     27          6           0      -12.990735    4.506666   -0.392236
     28          6           0      -12.115664    3.265140   -0.732405
     29          6           0      -15.170348    4.315911   -1.573050
     30          6           0      -12.518912    5.147815    1.017161
     31          6           0      -12.964604    6.562016    1.357215
     32          7           0      -10.279932    0.850245   -1.139244
     33          6           0       -9.832422    2.156840   -1.264799
     34          6           0       -8.464780    2.212309   -1.456761
     35          6           0       -8.061089    0.867348   -1.399106
     36          6           0       -9.206966    0.084521   -1.179055
     37          6           0       -7.672610    3.463952   -1.667354
     38          6           0       -6.996682    0.027252   -1.571449
     39          8           0       -5.864318    0.263357   -1.944013
     40          6           0       -7.508692   -1.326827   -1.036907
     41          6           0       -6.806932   -1.513055    0.275203
     42          8           0       -6.875688   -0.745565    1.184216
     43          8           0       -6.013540   -2.661130    0.239225
     44          6           0       -5.199129   -2.790622    1.397215
     45          1           0      -13.738578   -4.037279    0.182953
     46          1           0      -16.177810    1.986608    0.393272
     47          1           0      -10.375507    4.306759   -1.302738
     48          1           0       -9.134107   -4.289231   -1.005403
     49          1           0      -11.282907   -4.953624    0.569776
     50          1           0      -11.484270   -6.091001   -1.205062
     51          1           0      -10.871430   -4.900543   -2.359541
     52          1           0      -12.603244   -4.859142   -1.825574
     53          1           0       -9.806202   -3.963189    1.989405
     54          1           0       -8.458228   -3.022408    1.447293
     55          1           0       -7.262653   -4.800692    1.909525
     56          1           0       -7.988000   -5.654728    0.568051
     57          1           0      -17.329781   -3.779253    0.265697
     58          1           0      -16.206869   -3.673275    1.718343
     59          1           0      -15.756720   -4.321798    0.063233
     60          1           0      -18.412704    1.107570   -0.335861
     61          1           0      -18.009732    1.239513    1.446676
     62          1           0      -19.561740    0.706238    0.994363
     63          1           0      -14.882983    4.257035    0.589533
     64          1           0      -12.926251    5.274801   -1.162978
     65          1           0      -14.583491    4.869756   -2.305611
     66          1           0      -16.195885    4.597730   -1.333498
     67          1           0      -15.351577    3.380079   -2.101463
     68          1           0      -11.437799    5.093450    0.890934
     69          1           0      -12.818943    4.513169    1.851225
     70          1           0      -13.429303    6.562272    2.342825
     71          1           0      -13.690647    6.897430    0.616114
     72          1           0      -12.114732    7.242011    1.421227
     73          1           0       -6.835264    3.407028   -0.972464
     74          1           0       -8.225929    4.363174   -1.393735
     75          1           0       -7.272563    3.547970   -2.677948
     76          1           0       -7.208825   -2.101386   -1.741926
     77          1           0       -4.227736   -2.332233    1.213830
     78          1           0       -4.903669   -3.819149    1.607894
     79          1           0       -5.646275   -2.325609    2.274149
     80         12           0       11.082704    0.880529   -0.231463
     81          6           0       12.724335   -2.280325   -0.032108
     82          6           0        8.670676   -0.487736    1.591161
     83          6           0        9.962039    3.982807    0.504390
     84          6           0       14.236004    2.161479   -1.287904
     85          7           0       10.697201   -1.106631    0.539398
     86          6           0       11.449242   -2.297528    0.443409
     87          6           0       10.761130   -3.515345    1.136790
     88          6           0        9.418731   -2.880602    1.598383
     89          6           0        9.542638   -1.410849    1.144032
     90          6           0        8.280215   -3.708554    0.979517
     91          6           0       11.536685   -4.218047    2.333270
     92          6           0       11.998005   -5.652485    2.102853
     93          1           0       11.528779   -6.720138    3.112216
     94          7           0        9.520891    1.653671    0.783025
     95          6           0        8.606588    0.882957    1.500877
     96          6           0        7.557832    1.685754    1.985930
     97          6           0        7.789261    2.986106    1.576870
     98          6           0        9.095073    2.960291    0.949528
     99          6           0        6.288707    1.257207    2.812098
    100          6           0        6.822380    4.116684    1.839980
    101          8           0        5.733923    3.974134    2.312311
    102          6           0        7.286412    5.560324    1.306818
    103          7           0       11.983299    2.804246   -0.297519
    104          6           0       11.276296    3.929502    0.028071
    105          6           0       12.285389    5.147157   -0.051624
    106          6           0       13.571322    4.635705   -0.722156
    107          6           0       13.271728    3.088823   -0.766820
    108          6           0       11.706377    6.412853   -0.617085
    109          6           0       14.759714    4.892572    0.196101
    110          6           0       16.122450    4.960927   -0.440498
    111          7           0       13.024707    0.089066   -0.835123
    112          6           0       14.165459    0.729652   -1.256489
    113          6           0       15.167753   -0.218090   -1.584052
    114          6           0       14.667469   -1.484572   -1.199400
    115          6           0       13.392696   -1.192738   -0.637114
    116          6           0       16.537416    0.050083   -2.064530
    117          6           0       14.878071   -2.932083   -1.062410
    118          8           0       15.840815   -3.611552   -1.443155
    119          6           0       13.621899   -3.532493   -0.322011
    120          6           0       12.879068   -4.351749   -1.242167
    121          8           0       12.171558   -3.838635   -2.141120
    122          8           0       13.157404   -5.637326   -0.949493
    123          6           0       12.371118   -6.707360   -1.622396
    124          1           0        7.840291   -0.914249    2.158345
    125          1           0        9.536723    4.969865    0.698065
    126          1           0       15.181577    2.483854   -1.728092
    127          1           0       10.554759   -4.289895    0.398218
    128          1           0        9.295916   -2.860947    2.680839
    129          1           0        7.356228   -3.163667    1.170854
    130          1           0        8.160935   -4.719981    1.367731
    131          1           0        8.389538   -3.823420   -0.099472
    132          1           0       10.777460   -4.321070    3.108583
    133          1           0       12.352507   -3.581349    2.675718
    134          1           0       13.087846   -5.639128    2.066195
    135          1           0       11.621741   -5.998187    1.139390
    136          1           0        6.284085    1.898039    3.694045
    137          1           0        6.337657    0.213928    3.123599
    138          1           0        5.342251    1.270675    2.271661
    139          1           0        6.435047    6.220026    1.471681
    140          1           0        7.521446    5.368232    0.259666
    141          1           0        8.160691    5.756787    1.927341
    142          1           0       12.493946    5.362616    0.996912
    143          1           0       13.809717    5.042682   -1.704777
    144          1           0       12.508484    6.968198   -1.102443
    145          1           0       11.291343    6.955379    0.232567
    146          1           0       10.844589    6.263937   -1.266612
    147          1           0       14.829131    4.177639    1.016463
    148          1           0       14.643698    5.811133    0.771292
    149          1           0       16.080940    5.010962   -1.528405
    150          1           0       16.668754    4.062826   -0.151565
    151          1           0       16.723065    5.746985    0.017082
    152          1           0       16.591593    0.981613   -2.628821
    153          1           0       16.792410   -0.796887   -2.701955
    154          1           0       17.144595    0.148772   -1.164408
    155          1           0       13.841431   -4.021163    0.627268
    156          1           0       13.135375   -7.482016   -1.700164
    157          1           0       11.940741   -6.408123   -2.577628
    158          1           0       11.658271   -7.169475   -0.938630
 ---------------------------------------------------------------------

 SCF Done:  E(RCAM-B3LYP) =  -4069.78534893     A.U. after   18 cycles

 Excitation energies and oscillator strengths:

 Excited State   1:      Singlet-A      1.7052 eV  727.08 nm  f=0.5839  <S**2>=0.000
     309 -> 315       -0.17840
     311 -> 313        0.65821
     312 -> 314       -0.18213
     309 <- 315       -0.10428
 This state for optimization and/or second-order correction.
 Total Energy, E(TD-HF/TD-DFT) =  -4069.72268255
 Copying the excited state density for this state as the 1-particle RhoCI density.

 Excited State   2:      Singlet-A      1.7245 eV  718.97 nm  f=0.2220  <S**2>=0.000
     310 -> 316        0.16532
     311 -> 313        0.18011
     312 -> 314        0.66291
     310 <- 316        0.10022

 Excited State   3:      Singlet-A      2.1433 eV  578.46 nm  f=0.1270  <S**2>=0.000
     309 -> 313        0.65029
     311 -> 315        0.26019

 Excited State   4:      Singlet-A      2.2588 eV  548.90 nm  f=0.1166  <S**2>=0.000
     310 -> 314        0.63720
     312 -> 316       -0.28985

 Excited State   5:      Singlet-A      2.7532 eV  450.33 nm  f=0.0000  <S**2>=0.000
     312 -> 313        0.70702

 The electronic state is 1-A.
 Alpha  occ. eigenvalues --  -46.90318 -46.88439 -19.26452 -19.25402 -19.20927
 Alpha  occ. eigenvalues --  -19.19580 -19.19568 -19.18669 -19.18094 -19.17891
 Alpha  occ. eigenvalues --  -14.43183 -14.42674 -14.42464 -14.42111 -14.39826
 Alpha  occ. eigenvalues --  -14.39430 -14.39209 -14.38399 -10.39704 -10.39448
 Alpha  occ. eigenvalues --  -10.35383 -10.35327 -10.35032 -10.33356 -10.32792
 Alpha  occ. eigenvalues --  -10.32404 -10.32334 -10.31639 -10.31570 -10.31423
 Alpha  occ. eigenvalues --  -10.31001 -10.30943 -10.30918 -10.30721 -10.30529
 Alpha  occ. eigenvalues --  -10.30411 -10.30231 -10.29951 -10.29547 -10.29248
 Alpha  occ. eigenvalues --  -10.29122 -10.28962 -10.28613 -10.28329 -10.28305
 Alpha  occ. eigenvalues --  -10.28276 -10.28214 -10.28135 -10.28073 -10.28066
 Alpha  occ. eigenvalues --  -10.28065 -10.27964 -10.27952 -10.27893 -10.27868
 Alpha  occ. eigenvalues --  -10.27842 -10.27714 -10.27670 -10.27556 -10.27551
 Alpha  occ. eigenvalues --  -10.27456 -10.27415 -10.27354 -10.27243 -10.27116
 Alpha  occ. eigenvalues --  -10.27054 -10.27016 -10.26849 -10.26759 -10.26604
 Alpha  occ. eigenvalues --  -10.26490 -10.26484 -10.26374 -10.26373 -10.26266
 Alpha  occ. eigenvalues --  -10.26162 -10.26069 -10.25928 -10.25852 -10.25779
 Alpha  occ. eigenvalues --  -10.25697 -10.25658 -10.25376 -10.25114 -10.24766
 Alpha  occ. eigenvalues --  -10.24168  -3.18609  -3.17037  -1.93508  -1.93057
 Alpha  occ. eigenvalues --   -1.92907  -1.91914  -1.91472  -1.91363  -1.17647
 Alpha  occ. eigenvalues --   -1.16588  -1.11884  -1.10051  -1.09510  -1.08603
 Alpha  occ. eigenvalues --   -1.07337  -1.07327  -1.05763  -1.04654  -1.04047
 Alpha  occ. eigenvalues --   -1.03927  -1.03108  -1.02766  -1.01919  -1.01676
 Alpha  occ. eigenvalues --   -0.94347  -0.92146  -0.89603  -0.89285  -0.88979
 Alpha  occ. eigenvalues --   -0.88731  -0.88686  -0.88640  -0.87568  -0.87262
 Alpha  occ. eigenvalues --   -0.87107  -0.86568  -0.86436  -0.85917  -0.84752
 Alpha  occ. eigenvalues --   -0.84396  -0.84177  -0.83641  -0.83235  -0.82928
 Alpha  occ. eigenvalues --   -0.81897  -0.81840  -0.81065  -0.80701  -0.80357
 Alpha  occ. eigenvalues --   -0.80234  -0.78078  -0.77665  -0.77397  -0.77303
 Alpha  occ. eigenvalues --   -0.76963  -0.76613  -0.76195  -0.75977  -0.75701
 Alpha  occ. eigenvalues --   -0.75057  -0.73617  -0.72683  -0.72264  -0.71655
 Alpha  occ. eigenvalues --   -0.69496  -0.69189  -0.68557  -0.68483  -0.68450
 Alpha  occ. eigenvalues --   -0.67694  -0.67176  -0.67173  -0.66325  -0.65631
 Alpha  occ. eigenvalues --   -0.65540  -0.65376  -0.64927  -0.64758  -0.64496
 Alpha  occ. eigenvalues --   -0.64230  -0.62825  -0.62175  -0.60536  -0.60162
 Alpha  occ. eigenvalues --   -0.60071  -0.59623  -0.59565  -0.59365  -0.59195
 Alpha  occ. eigenvalues --   -0.59034  -0.58457  -0.58145  -0.58070  -0.57077
 Alpha  occ. eigenvalues --   -0.56512  -0.56341  -0.55977  -0.55795  -0.55322
 Alpha  occ. eigenvalues --   -0.55092  -0.54902  -0.54632  -0.54217  -0.53858
 Alpha  occ. eigenvalues --   -0.53749  -0.53564  -0.53204  -0.53103  -0.52803
 Alpha  occ. eigenvalues --   -0.52802  -0.52614  -0.52401  -0.52328  -0.52289
 Alpha  occ. eigenvalues --   -0.51839  -0.51609  -0.51458  -0.51416  -0.51232
 Alpha  occ. eigenvalues --   -0.51171  -0.50829  -0.50619  -0.50519  -0.50282
 Alpha  occ. eigenvalues --   -0.50156  -0.50090  -0.49888  -0.49841  -0.49799
 Alpha  occ. eigenvalues --   -0.49749  -0.49361  -0.49090  -0.49009  -0.48856
 Alpha  occ. eigenvalues --   -0.48822  -0.48445  -0.48356  -0.48191  -0.47996
 Alpha  occ. eigenvalues --   -0.47953  -0.47452  -0.47401  -0.47356  -0.47238
 Alpha  occ. eigenvalues --   -0.47013  -0.46888  -0.46609  -0.46407  -0.46354
 Alpha  occ. eigenvalues --   -0.46346  -0.46221  -0.46030  -0.46019  -0.45794
 Alpha  occ. eigenvalues --   -0.45548  -0.45299  -0.45238  -0.45089  -0.45079
 Alpha  occ. eigenvalues --   -0.44848  -0.44723  -0.44665  -0.44599  -0.44254
 Alpha  occ. eigenvalues --   -0.44048  -0.43857  -0.43778  -0.43622  -0.43399
 Alpha  occ. eigenvalues --   -0.43340  -0.43264  -0.43220  -0.43016  -0.42949
 Alpha  occ. eigenvalues --   -0.42730  -0.42599  -0.42511  -0.42488  -0.42240
 Alpha  occ. eigenvalues --   -0.42193  -0.41874  -0.41599  -0.41572  -0.41560
 Alpha  occ. eigenvalues --   -0.41335  -0.41199  -0.41028  -0.40520  -0.40509
 Alpha  occ. eigenvalues --   -0.40310  -0.40151  -0.40049  -0.39417  -0.39090
 Alpha  occ. eigenvalues --   -0.38497  -0.38323  -0.38158  -0.37813  -0.37652
 Alpha  occ. eigenvalues --   -0.37544  -0.37156  -0.37146  -0.36973  -0.36638
 Alpha  occ. eigenvalues --   -0.36589  -0.35939  -0.35505  -0.35059  -0.34277
 Alpha  occ. eigenvalues --   -0.34097  -0.33415  -0.32861  -0.31715  -0.31450
 Alpha  occ. eigenvalues --   -0.30803  -0.30690  -0.30474  -0.30447  -0.30036
 Alpha  occ. eigenvalues --   -0.29927  -0.29523  -0.28860  -0.24326  -0.24201
 Alpha  occ. eigenvalues --   -0.22040  -0.21181
 Alpha virt. eigenvalues --   -0.09594  -0.08679  -0.02484  -0.01626  -0.00082
 Alpha virt. eigenvalues --    0.00638   0.01416   0.02264   0.02596   0.02817
 Alpha virt. eigenvalues --    0.04287   0.04613   0.04808   0.05145   0.05493

 Mulliken charges:
               1
     1  Mg  12.000075
     2  C    6.001241
     3  C    5.968318
     4  C    5.987533
     5  C    6.034716
     6  N    6.988417
     7  C    5.968428
     8  C    6.011405
     9  C    5.987993
    10  C    6.039217
    11  C    5.996557
    12  C    6.001860
    13  C    6.002049
    14  H    0.988430
    15  N    6.990098
    16  C    6.048906
    17  C    6.016130
    18  C    6.014220
    19  C    6.040167
    20  C    5.998442
    21  C    6.009413
    22  O    8.024619
    23  C    5.998891
    24  N    7.014768
    25  C    6.028514
    26  C    5.988756
    27  C    6.007545
    28  C    5.958253
    29  C    6.002826
    30  C    6.001601
    31  C    5.999630
    32  N    7.001831
    33  C    5.957189
    34  C    5.979498
    35  C    5.990747
    36  C    5.978527
    37  C    6.003815
    38  C    5.983291
    39  O    7.965399
    40  C    6.005621
    41  C    5.995129
    42  O    7.996491
    43  O    7.996987
    44  C    6.004107
    45  H    1.003501
    46  H    1.010844
    47  H    0.996452
    48  H    0.998415
    49  H    1.001824
    50  H    1.004011
    51  H    1.012069
    52  H    0.992710
    53  H    0.987599
    54  H    1.006014
    55  H    1.001667
    56  H    0.998489
    57  H    1.014636
    58  H    1.016887
    59  H    1.020010
    60  H    1.009637
    61  H    1.007915
    62  H    1.013933
    63  H    1.001893
    64  H    1.000114
    65  H    1.013780
    66  H    1.001126
    67  H    0.997575
    68  H    1.007215
    69  H    0.989681
    70  H    0.995818
    71  H    0.995854
    72  H    1.002404
    73  H    0.984779
    74  H    0.979977
    75  H    0.981971
    76  H    0.988575
    77  H    0.996727
    78  H    0.992870
    79  H    0.995380
    80  Mg  12.000210
    81  C    6.006412
    82  C    5.997809
    83  C    5.993364
    84  C    6.003243
    85  N    7.004057
    86  C    5.991599
    87  C    6.003562
    88  C    5.995725
    89  C    6.008847
    90  C    5.999012
    91  C    6.000688
    92  C    6.000728
    93  H    0.997802
    94  N    6.998206
    95  C    6.010551
    96  C    6.006130
    97  C    6.002960
    98  C    6.010774
    99  C    5.999000
   100  C    6.002230
   101  O    8.005309
   102  C    6.000794
   103  N    6.998771
   104  C    6.008387
   105  C    5.998846
   106  C    6.002037
   107  C    5.991085
   108  C    5.999882
   109  C    6.002372
   110  C    6.000130
   111  N    7.000100
   112  C    5.989517
   113  C    5.992814
   114  C    5.997880
   115  C    5.991045
   116  C    6.000797
   117  C    5.995369
   118  O    7.991250
   119  C    5.999248
   120  C    5.999340
   121  O    7.998790
   122  O    7.999613
   123  C    6.000666
   124  H    1.004066
   125  H    1.001554
   126  H    0.997294
   127  H    0.999597
   128  H    1.000723
   129  H    0.999146
   130  H    1.003150
   131  H    1.002970
   132  H    0.997442
   133  H    1.000391
   134  H    1.001092
   135  H    1.000341
   136  H    1.004269
   137  H    1.004972
   138  H    1.006483
   139  H    1.003625
   140  H    1.002027
   141  H    1.001696
   142  H    0.999951
   143  H    0.998939
   144  H    1.002176
   145  H    0.998849
   146  H    0.999670
   147  H    0.999276
   148  H    0.996311
   149  H    0.999970
   150  H    1.001419
   151  H    0.998146
   152  H    0.994813
   153  H    0.995629
   154  H    0.993749
   155  H    0.996878
   156  H    0.999140
   157  H    0.999239
   158  H    0.998057
 Sum of Mulliken charges = 624.00000

 Dipole moment (field-independent basis, Debye):
    X=            -13.0210    Y=             -1.3251    Z=              3.0493  Tot=             13.4387
 Quadrupole moment (field-independent basis, Debye-Ang):
   XX=            190.7730   YY=             -0.6926   ZZ=             -2.4492
   XY=             38.4627   XZ=             -8.4920   YZ=              2.7706

 Normal termination of Gaussian 16 at Wed Sep 22 13:16:34 2021.
