 Gaussian 16, Revision A.03,
 Gaussian 16:  ES64L-G16RevA.03 25-Dec-2016

 -----------------------------------
 #p cam-b3lyp/Def2SVP td=(nstates=5)
 -----------------------------------

 --------------------------------
 TDDFT excited states in gaussian
 --------------------------------
 Symbolic Z-matrix:
 Charge =  0 Multiplicity = 1

                         Standard orientation:
 ---------------------------------------------------------------------
 Center     Atomic      Atomic             Coordinates (Angstroms)
 Number     Number       Type             X           Y           Z
 ---------------------------------------------------------------------
      1         12           0       11.686406    0.287622    0.309789
      2          6           0        9.573408   -2.376023    0.641603
      3          6           0       14.260945   -2.046941   -0.454530
      4          6           0       13.702965    2.894337   -0.414395
      5          6           0        8.931793    2.414857    0.154501
      6          7           0       11.781583   -2.036152   -0.257523
      7          6           0       10.826951   -2.890317    0.207017
      8          6           0       11.245946   -4.311370   -0.049887
      9          6           0       12.783401   -4.205204   -0.442959
     10          6           0       13.026051   -2.663800   -0.384786
     11          6           0       13.686683   -5.232678    0.134882
     12          6           0       10.367082   -5.239688   -1.014877
     13          6           0        9.639036   -4.589428   -2.153771
     14          1           0        9.782189   -5.234997   -3.524916
     15          7           0       13.744393    0.394158   -0.105896
     16          6           0       14.611118   -0.625843   -0.349085
     17          6           0       15.930542   -0.153013   -0.647706
     18          6           0       15.809621    1.326472   -0.521975
     19          6           0       14.368877    1.601099   -0.329421
     20          6           0       17.125234   -0.923947   -0.951593
     21          6           0       16.904838    2.381702   -0.579809
     22          8           0       18.003234    2.089482   -0.895774
     23          6           0       16.734295    3.859913   -0.363872
     24          7           0       11.348568    2.294805   -0.195167
     25          6           0       12.361563    3.172084   -0.262797
     26          6           0       11.820774    4.638644   -0.679617
     27          6           0       10.324823    4.507059   -0.110169
     28          6           0       10.193158    3.002656   -0.105957
     29          6           0       12.593998    5.825164   -0.097397
     30          6           0        9.303209    5.324528   -0.921148
     31          6           0        8.285872    6.229519   -0.216271
     32          7           0        9.644319    0.071460    0.271515
     33          6           0        8.617071    1.006605    0.248240
     34          6           0        7.361014    0.404282    0.474320
     35          6           0        7.647290   -0.932791    0.695327
     36          6           0        9.070483   -1.106565    0.562520
     37          6           0        6.022279    1.071079    0.549515
     38          6           0        7.188961   -2.214071    1.039036
     39          8           0        6.027749   -2.554662    1.255514
     40          6           0        8.348939   -3.233675    0.855414
     41          6           0        8.337397   -4.008158    2.165128
     42          8           0        8.297134   -5.254426    2.242377
     43          8           0        8.522750   -3.101432    3.182025
     44          6           0        8.809270   -3.526550    4.574023
     45          1           0       14.969253   -2.801969   -0.801752
     46          1           0       14.311072    3.693428   -0.843199
     47          1           0        8.080956    3.098508    0.175330
     48          1           0       11.132359   -4.875210    0.876733
     49          1           0       12.827444   -4.377924   -1.517899
     50          1           0       14.588209   -4.815191    0.583117
     51          1           0       13.894119   -6.041091   -0.566234
     52          1           0       13.191900   -5.710441    0.980531
     53          1           0        9.563747   -5.778138   -0.511927
     54          1           0       11.022939   -5.928023   -1.548848
     55          1           0        9.730842   -3.504585   -2.194770
     56          1           0        8.577030   -4.781071   -1.996917
     57          1           0       17.068124   -1.877621   -0.427789
     58          1           0       18.056390   -0.427719   -0.680691
     59          1           0       17.119144   -1.096512   -2.028434
     60          1           0       15.924473    3.757448    0.358872
     61          1           0       16.396994    4.383772   -1.257699
     62          1           0       17.588973    4.407403    0.033811
     63          1           0       11.770296    4.633917   -1.768861
     64          1           0       10.136017    4.774883    0.929117
     65          1           0       11.972146    6.250505    0.690785
     66          1           0       12.953626    6.472505   -0.896692
     67          1           0       13.522646    5.532819    0.391850
     68          1           0        8.744022    4.608932   -1.524510
     69          1           0        9.853028    5.891093   -1.672833
     70          1           0        8.172874    7.256973   -0.562537
     71          1           0        8.384839    6.215790    0.869930
     72          1           0        7.367418    5.652864   -0.321122
     73          1           0        5.326871    0.619480    1.257433
     74          1           0        5.571396    1.049895   -0.442903
     75          1           0        6.075312    2.107726    0.884720
     76          1           0        8.019718   -3.817513   -0.003285
     77          1           0        9.539072   -2.884140    5.066461
     78          1           0        9.193815   -4.546136    4.543514
     79          1           0        8.010848   -3.588205    5.312440
     80         12           0      -10.896904    0.780829    0.309981
     81          6           0      -12.489267   -2.383098   -0.238067
     82          6           0       -8.027079   -0.586115   -1.243930
     83          6           0       -9.642244    3.885824    0.097561
     84          6           0      -13.977312    2.080860    1.166943
     85          7           0      -10.293582   -1.267970   -0.637735
     86          6           0      -11.161383   -2.319530   -0.734277
     87          6           0      -10.581544   -3.375691   -1.661724
     88          6           0       -9.081335   -2.862237   -1.695277
     89          6           0       -9.066159   -1.475744   -1.174295
     90          6           0       -8.013353   -3.717785   -0.934556
     91          6           0      -11.404337   -3.435684   -2.988582
     92          6           0      -11.819036   -4.838092   -3.596902
     93          1           0      -11.304191   -5.248239   -4.988334
     94          7           0       -9.095720    1.526220   -0.257868
     95          6           0       -8.020255    0.824082   -0.863141
     96          6           0       -6.896474    1.713868   -1.090192
     97          6           0       -7.390905    3.024033   -0.698314
     98          6           0       -8.758521    2.825557   -0.256307
     99          6           0       -5.661287    1.252160   -1.743876
    100          6           0       -6.524283    4.293903   -0.759548
    101          8           0       -5.374491    4.162666   -1.272015
    102          6           0       -6.942635    5.689955   -0.251307
    103          7           0      -11.724388    2.811167    0.328455
    104          6           0      -10.983176    3.900394    0.395646
    105          6           0      -11.884314    5.076283    0.593317
    106          6           0      -13.246495    4.447423    0.990963
    107          6           0      -13.011064    2.990624    0.734664
    108          6           0      -11.459481    6.244190    1.582657
    109          6           0      -14.529170    5.016678    0.191196
    110          6           0      -15.614704    5.783356    0.985720
    111          7           0      -12.765655    0.032794    0.636392
    112          6           0      -13.905869    0.657649    0.975590
    113          6           0      -14.987445   -0.251950    1.079068
    114          6           0      -14.450901   -1.468676    0.651568
    115          6           0      -13.084847   -1.246505    0.343674
    116          6           0      -16.381725   -0.054039    1.520730
    117          6           0      -14.844692   -2.820151    0.397577
    118          8           0      -15.947417   -3.312386    0.482722
    119          6           0      -13.495596   -3.504672   -0.279382
    120          6           0      -13.056105   -4.646979    0.530701
    121          8           0      -12.994378   -4.671206    1.766469
    122          8           0      -12.707591   -5.646410   -0.352586
    123          6           0      -12.237145   -6.898940    0.236609
    124          1           0       -7.110741   -0.949875   -1.711307
    125          1           0       -9.325489    4.920301   -0.048284
    126          1           0      -14.907181    2.391062    1.648547
    127          1           0      -10.560202   -4.303912   -1.090136
    128          1           0       -8.974355   -2.792971   -2.778439
    129          1           0       -7.527742   -3.061365   -0.211062
    130          1           0       -7.221501   -4.112577   -1.570734
    131          1           0       -8.407511   -4.536456   -0.331688
    132          1           0      -10.698199   -2.939346   -3.653881
    133          1           0      -12.310607   -2.831067   -3.015204
    134          1           0      -12.908800   -4.830442   -3.585953
    135          1           0      -11.615182   -5.603176   -2.848391
    136          1           0       -5.969307    0.768434   -2.671123
    137          1           0       -5.192046    0.472906   -1.143671
    138          1           0       -4.853299    1.972305   -1.875526
    139          1           0       -7.690240    6.086734   -0.938349
    140          1           0       -5.998209    6.178243   -0.013281
    141          1           0       -7.412404    5.463193    0.706364
    142          1           0      -11.952574    5.579050   -0.370599
    143          1           0      -13.227736    4.549001    2.076131
    144          1           0      -11.946802    7.130704    1.176038
    145          1           0      -10.371645    6.310504    1.591270
    146          1           0      -11.882602    5.992677    2.555341
    147          1           0      -14.946602    4.129134   -0.284036
    148          1           0      -14.155050    5.595949   -0.652849
    149          1           0      -16.622076    5.425261    0.777652
    150          1           0      -15.540163    6.842993    0.739925
    151          1           0      -15.456732    5.773971    2.064333
    152          1           0      -16.857257   -0.996216    1.791410
    153          1           0      -16.767374    0.365798    0.591511
    154          1           0      -16.407128    0.821391    2.169512
    155          1           0      -13.644758   -3.709089   -1.338997
    156          1           0      -12.928177   -7.274667    0.991540
    157          1           0      -11.243849   -6.754800    0.664230
    158          1           0      -12.177423   -7.652026   -0.549174
 ---------------------------------------------------------------------

 SCF Done:  E(RCAM-B3LYP) =  -4069.74026661     A.U. after   18 cycles

 Excitation energies and oscillator strengths:

 Excited State   1:      Singlet-A      1.6344 eV  758.59 nm  f=0.4643  <S**2>=0.000
     309 -> 315        0.16831
     311 -> 313        0.68617
     309 <- 315        0.10826
 This state for optimization and/or second-order correction.
 Total Energy, E(TD-HF/TD-DFT) =  -4069.68020314
 Copying the excited state density for this state as the 1-particle RhoCI density.

 Excited State   2:      Singlet-A      1.6992 eV  729.67 nm  f=0.3315  <S**2>=0.000
     310 -> 316       -0.18468
     312 -> 314        0.68271
     310 <- 316       -0.11105

 Excited State   3:      Singlet-A      2.1490 eV  576.94 nm  f=0.1433  <S**2>=0.000
     309 -> 313        0.65214
     311 -> 315       -0.25541

 Excited State   4:      Singlet-A      2.2522 eV  550.50 nm  f=0.1331  <S**2>=0.000
     310 -> 314        0.64100
     312 -> 316        0.28898

 Excited State   5:      Singlet-A      2.7342 eV  453.46 nm  f=0.0000  <S**2>=0.000
     312 -> 313        0.70699

 The electronic state is 1-A.
 Alpha  occ. eigenvalues --  -46.89922 -46.88871 -19.26224 -19.26211 -19.20512
 Alpha  occ. eigenvalues --  -19.20315 -19.19705 -19.18454 -19.18118 -19.17218
 Alpha  occ. eigenvalues --  -14.42554 -14.42010 -14.41894 -14.41368 -14.40028
 Alpha  occ. eigenvalues --  -14.39899 -14.39791 -14.39632 -10.40466 -10.40050
 Alpha  occ. eigenvalues --  -10.35412 -10.35233 -10.34253 -10.33555 -10.32813
 Alpha  occ. eigenvalues --  -10.32394 -10.32072 -10.31577 -10.31148 -10.30987
 Alpha  occ. eigenvalues --  -10.30895 -10.30745 -10.30731 -10.30668 -10.30606
 Alpha  occ. eigenvalues --  -10.30372 -10.30284 -10.30271 -10.30148 -10.29723
 Alpha  occ. eigenvalues --  -10.29365 -10.29045 -10.28895 -10.28862 -10.28825
 Alpha  occ. eigenvalues --  -10.28691 -10.28525 -10.28445 -10.28420 -10.28256
 Alpha  occ. eigenvalues --  -10.28175 -10.28069 -10.27955 -10.27952 -10.27776
 Alpha  occ. eigenvalues --  -10.27724 -10.27576 -10.27563 -10.27488 -10.27486
 Alpha  occ. eigenvalues --  -10.27484 -10.27469 -10.27428 -10.27403 -10.27218
 Alpha  occ. eigenvalues --  -10.27204 -10.27165 -10.26965 -10.26779 -10.26739
 Alpha  occ. eigenvalues --  -10.26723 -10.26715 -10.26679 -10.26666 -10.26405
 Alpha  occ. eigenvalues --  -10.26319 -10.26314 -10.26207 -10.26157 -10.26067
 Alpha  occ. eigenvalues --  -10.26058 -10.25485 -10.25145 -10.25063 -10.24997
 Alpha  occ. eigenvalues --  -10.24527  -3.18394  -3.17426  -1.93252  -1.92886
 Alpha  occ. eigenvalues --   -1.92669  -1.92315  -1.91870  -1.91743  -1.16495
 Alpha  occ. eigenvalues --   -1.15670  -1.11396  -1.10786  -1.09334  -1.08122
 Alpha  occ. eigenvalues --   -1.07244  -1.07229  -1.05420  -1.05142  -1.04694
 Alpha  occ. eigenvalues --   -1.04338  -1.03700  -1.02915  -1.02306  -1.02133
 Alpha  occ. eigenvalues --   -0.93672  -0.93143  -0.89804  -0.89299  -0.88722
 Alpha  occ. eigenvalues --   -0.88382  -0.88252  -0.88092  -0.87936  -0.87914
 Alpha  occ. eigenvalues --   -0.87435  -0.87229  -0.85967  -0.85867  -0.84600
 Alpha  occ. eigenvalues --   -0.84534  -0.83965  -0.83830  -0.83082  -0.82700
 Alpha  occ. eigenvalues --   -0.82158  -0.81984  -0.81335  -0.80967  -0.80566
 Alpha  occ. eigenvalues --   -0.80453  -0.78485  -0.78194  -0.77786  -0.77614
 Alpha  occ. eigenvalues --   -0.76981  -0.76831  -0.76677  -0.76259  -0.75455
 Alpha  occ. eigenvalues --   -0.75304  -0.73563  -0.73161  -0.72174  -0.71735
 Alpha  occ. eigenvalues --   -0.69989  -0.69795  -0.69371  -0.69350  -0.68435
 Alpha  occ. eigenvalues --   -0.68395  -0.66716  -0.66551  -0.66244  -0.66132
 Alpha  occ. eigenvalues --   -0.65591  -0.65478  -0.65082  -0.64731  -0.64701
 Alpha  occ. eigenvalues --   -0.64388  -0.63580  -0.62916  -0.60260  -0.60112
 Alpha  occ. eigenvalues --   -0.59868  -0.59508  -0.59372  -0.58881  -0.58866
 Alpha  occ. eigenvalues --   -0.58387  -0.58045  -0.57609  -0.57566  -0.57205
 Alpha  occ. eigenvalues --   -0.56510  -0.56202  -0.55946  -0.55782  -0.55608
 Alpha  occ. eigenvalues --   -0.55316  -0.55100  -0.54833  -0.54467  -0.54444
 Alpha  occ. eigenvalues --   -0.53960  -0.53644  -0.53260  -0.53258  -0.53149
 Alpha  occ. eigenvalues --   -0.52903  -0.52621  -0.52492  -0.52057  -0.52051
 Alpha  occ. eigenvalues --   -0.51832  -0.51786  -0.51751  -0.51377  -0.51336
 Alpha  occ. eigenvalues --   -0.51200  -0.51058  -0.50664  -0.50573  -0.50540
 Alpha  occ. eigenvalues --   -0.50316  -0.49991  -0.49963  -0.49933  -0.49702
 Alpha  occ. eigenvalues --   -0.49526  -0.49446  -0.49370  -0.49164  -0.48982
 Alpha  occ. eigenvalues --   -0.48763  -0.48435  -0.48201  -0.47891  -0.47855
 Alpha  occ. eigenvalues --   -0.47726  -0.47629  -0.47556  -0.47542  -0.47419
 Alpha  occ. eigenvalues --   -0.47280  -0.47206  -0.47061  -0.47000  -0.46884
 Alpha  occ. eigenvalues --   -0.46606  -0.46402  -0.46388  -0.46124  -0.46091
 Alpha  occ. eigenvalues --   -0.45898  -0.45582  -0.45576  -0.45510  -0.45334
 Alpha  occ. eigenvalues --   -0.45298  -0.45008  -0.44949  -0.44862  -0.44482
 Alpha  occ. eigenvalues --   -0.44130  -0.43972  -0.43737  -0.43624  -0.43518
 Alpha  occ. eigenvalues --   -0.43363  -0.43250  -0.43055  -0.43052  -0.42900
 Alpha  occ. eigenvalues --   -0.42771  -0.42691  -0.42603  -0.42359  -0.42306
 Alpha  occ. eigenvalues --   -0.42067  -0.41929  -0.41711  -0.41502  -0.41454
 Alpha  occ. eigenvalues --   -0.41257  -0.41202  -0.41070  -0.40814  -0.40538
 Alpha  occ. eigenvalues --   -0.40288  -0.40219  -0.40205  -0.39013  -0.38885
 Alpha  occ. eigenvalues --   -0.38718  -0.38655  -0.38206  -0.37965  -0.37673
 Alpha  occ. eigenvalues --   -0.37589  -0.37354  -0.36869  -0.36405  -0.36140
 Alpha  occ. eigenvalues --   -0.35816  -0.35582  -0.35142  -0.34770  -0.34074
 Alpha  occ. eigenvalues --   -0.33845  -0.33062  -0.32980  -0.31545  -0.31294
 Alpha  occ. eigenvalues --   -0.31088  -0.30872  -0.30485  -0.30318  -0.30076
 Alpha  occ. eigenvalues --   -0.29528  -0.29337  -0.28331  -0.24438  -0.24134
 Alpha  occ. eigenvalues --   -0.21696  -0.21276
 Alpha virt. eigenvalues --   -0.09641  -0.08893  -0.01935  -0.01697   0.00166
 Alpha virt. eigenvalues --    0.00315   0.01023   0.02335   0.02458   0.02715
 Alpha virt. eigenvalues --    0.04294   0.04580   0.04932   0.05059   0.05868

 Mulliken charges:
               1
     1  Mg   0.824952
     2  C    0.019186
     3  C   -0.077047
     4  C   -0.075295
     5  C   -0.091151
     6  N   -0.272158
     7  C   -0.046323
     8  C    0.019178
     9  C   -0.037931
    10  C    0.011801
    11  C    0.090922
    12  C    0.034528
    13  C   -0.113583
    14  H    0.011772
    15  N   -0.363490
    16  C    0.155746
    17  C   -0.165001
    18  C   -0.053250
    19  C    0.113890
    20  C    0.136414
    21  C   -0.034910
    22  O   -0.178801
    23  C    0.046397
    24  N   -0.288426
    25  C    0.057762
    26  C   -0.083492
    27  C   -0.035976
    28  C    0.048059
    29  C    0.096453
    30  C    0.030864
    31  C    0.010141
    32  N   -0.351663
    33  C    0.123546
    34  C   -0.172695
    35  C    0.107874
    36  C    0.078565
    37  C    0.118734
    38  C   -0.023644
    39  O   -0.180961
    40  C   -0.040752
    41  C    0.244501
    42  O   -0.225464
    43  O   -0.349169
    44  C    0.180526
    45  H   -0.016208
    46  H   -0.017645
    47  H   -0.037460
    48  H    0.014914
    49  H    0.022290
    50  H    0.014202
    51  H    0.018892
    52  H    0.005388
    53  H    0.034575
    54  H    0.020622
    55  H    0.043133
    56  H    0.033916
    57  H    0.010674
    58  H    0.039454
    59  H    0.029564
    60  H    0.015100
    61  H    0.049012
    62  H    0.031027
    63  H    0.029353
    64  H    0.016143
    65  H    0.016749
    66  H    0.016724
    67  H    0.012636
    68  H    0.006257
    69  H    0.002097
    70  H    0.033257
    71  H    0.005020
    72  H    0.011438
    73  H    0.037459
    74  H    0.037568
    75  H    0.011291
    76  H    0.036902
    77  H    0.035848
    78  H    0.037800
    79  H    0.041382
    80  Mg   0.845524
    81  C   -0.112870
    82  C   -0.072862
    83  C   -0.091208
    84  C   -0.092731
    85  N   -0.247119
    86  C   -0.075052
    87  C   -0.009302
    88  C   -0.029613
    89  C    0.035697
    90  C    0.076577
    91  C    0.033433
    92  C   -0.045933
    93  H    0.033859
    94  N   -0.393823
    95  C    0.113819
    96  C   -0.127762
    97  C   -0.057166
    98  C    0.207598
    99  C    0.128474
   100  C   -0.019455
   101  O   -0.249171
   102  C    0.082540
   103  N   -0.275395
   104  C   -0.016077
   105  C   -0.039282
   106  C   -0.051971
   107  C    0.065266
   108  C    0.078742
   109  C    0.053627
   110  C    0.008885
   111  N   -0.340850
   112  C    0.092003
   113  C   -0.194292
   114  C   -0.020862
   115  C    0.159263
   116  C    0.167690
   117  C    0.065245
   118  O   -0.152137
   119  C    0.021630
   120  C    0.224394
   121  O   -0.224367
   122  O   -0.341409
   123  C    0.178441
   124  H   -0.025077
   125  H   -0.057752
   126  H   -0.022708
   127  H   -0.003985
   128  H    0.003405
   129  H    0.016917
   130  H    0.023651
   131  H    0.015309
   132  H    0.006908
   133  H    0.030153
   134  H    0.025677
   135  H    0.020708
   136  H    0.025953
   137  H    0.010935
   138  H    0.043615
   139  H    0.062225
   140  H    0.038264
   141  H    0.023454
   142  H    0.011624
   143  H    0.008992
   144  H    0.018123
   145  H    0.020135
   146  H    0.011026
   147  H    0.009952
   148  H    0.000709
   149  H    0.024621
   150  H    0.013895
   151  H    0.012575
   152  H    0.056959
   153  H    0.022496
   154  H    0.007049
   155  H    0.030652
   156  H    0.047705
   157  H    0.035244
   158  H    0.038597
 Sum of Mulliken charges =  -0.00000

 Dipole moment (field-independent basis, Debye):
    X=             -0.3204    Y=              5.0988    Z=              1.3632  Tot=              5.2876
 Quadrupole moment (field-independent basis, Debye-Ang):
   XX=           -583.3874   YY=           -472.4949   ZZ=           -506.2086
   XY=            -43.2249   XZ=             38.0278   YZ=             18.9769

 Normal termination of Gaussian 16 at Tue Sep 14 23:46:35 2021.
