 Gaussian 16, Revision A.03,
 Gaussian 16:  ES64L-G16RevA.03 25-Dec-2016

 ----------------------------------------------------------
 #p cam-b3lyp/Def2SVP td=(nstates=5) density=(transition=1)
 ----------------------------------------------------------

 --------------------------------
 TDDFT excited states in gaussian
 --------------------------------
 Symbolic Z-matrix:
 Charge =  0 Multiplicity = 1

                         Standard orientation:
 ---------------------------------------------------------------------
 Center     Atomic      Atomic             Coordinates (Angstroms)
 Number     Number       Type             X           Y           Z
 ---------------------------------------------------------------------
      1         12           0       18.654721   -0.310399   -0.116157
      2          6           0       15.202357   -0.620205   -0.335803
      3          6           0       18.455748    2.555807   -2.190724
      4          6           0       21.658489    0.683111    0.958306
      5          6           0       18.581071   -2.727679    2.448994
      6          7           0       16.903522    1.067155   -0.882799
      7          6           0       15.646048    0.533535   -1.032274
      8          6           0       14.770818    1.415955   -1.865870
      9          6           0       15.853882    2.277382   -2.664178
     10          6           0       17.180839    2.002507   -1.872085
     11          6           0       16.002613    1.943875   -4.233678
     12          6           0       13.702601    2.196598   -0.940155
     13          6           0       12.487518    2.587663   -1.616067
     14          1           0       12.181554    4.097022   -1.514436
     15          7           0       19.966491    1.256459   -0.663985
     16          6           0       19.699286    2.340054   -1.546847
     17          6           0       20.911883    3.135146   -1.642384
     18          6           0       21.879897    2.607619   -0.753538
     19          6           0       21.211927    1.401393   -0.158938
     20          6           0       20.970237    4.388594   -2.433317
     21          6           0       23.299746    3.262131   -0.487116
     22          8           0       23.567695    4.284241   -1.116787
     23          6           0       24.407793    2.517987    0.250145
     24          7           0       19.841307   -0.895071    1.533327
     25          6           0       21.094810   -0.388013    1.649445
     26          6           0       21.894147   -0.957822    2.979034
     27          6           0       20.971409   -2.222529    3.326406
     28          6           0       19.730376   -2.003745    2.404374
     29          6           0       23.386301   -1.405953    2.743910
     30          6           0       20.569646   -2.286685    4.801159
     31          6           0       20.928444   -3.517117    5.668415
     32          7           0       17.269611   -1.634579    0.653164
     33          6           0       17.396819   -2.562347    1.645866
     34          6           0       16.180806   -3.322457    1.737457
     35          6           0       15.259019   -2.509242    0.976621
     36          6           0       16.001430   -1.473689    0.383841
     37          6           0       15.911477   -4.468599    2.669160
     38          6           0       13.856296   -2.342987    0.657950
     39          8           0       12.936457   -3.082661    0.834497
     40          6           0       13.716187   -1.095092   -0.298295
     41          6           0       13.243782   -1.428665   -1.730564
     42          8           0       13.730155   -2.287922   -2.433901
     43          8           0       12.107409   -0.655306   -2.045414
     44          6           0       11.436419   -0.964610   -3.271818
     45          1           0       18.338403    3.385075   -2.890322
     46          1           0       22.511893    1.093720    1.501642
     47          1           0       18.610576   -3.481885    3.237512
     48          1           0       14.310696    0.879629   -2.696421
     49          1           0       15.589892    3.330232   -2.558264
     50          1           0       15.767154    2.876928   -4.745449
     51          1           0       15.346795    1.137323   -4.560055
     52          1           0       17.050736    1.688114   -4.391672
     53          1           0       14.242603    3.094214   -0.639315
     54          1           0       13.628870    1.515672   -0.091784
     55          1           0       11.687050    2.013969   -1.150460
     56          1           0       12.567520    2.374872   -2.682062
     57          1           0       20.115533    4.481773   -3.103081
     58          1           0       21.830483    4.365895   -3.102785
     59          1           0       20.969543    5.265887   -1.786009
     60          1           0       24.190125    2.336388    1.303111
     61          1           0       25.321218    3.103807    0.142221
     62          1           0       24.568065    1.576199   -0.274812
     63          1           0       21.747878   -0.165965    3.713144
     64          1           0       21.356746   -3.181548    2.979456
     65          1           0       24.059430   -0.736188    3.278294
     66          1           0       23.615506   -1.359428    1.678622
     67          1           0       23.468753   -2.424034    3.125969
     68          1           0       19.510732   -2.069093    4.938788
     69          1           0       20.922604   -1.451519    5.405940
     70          1           0       20.110932   -4.164206    5.987462
     71          1           0       21.337872   -3.099309    6.588463
     72          1           0       21.651817   -4.159053    5.164235
     73          1           0       15.043996   -4.999630    2.276481
     74          1           0       15.444464   -4.195590    3.614927
     75          1           0       16.773941   -5.097314    2.888884
     76          1           0       12.942639   -0.502406    0.190818
     77          1           0       10.992060    0.005608   -3.496261
     78          1           0       10.578502   -1.618185   -3.114933
     79          1           0       12.127747   -1.392157   -3.996918
     80         12           0      -18.195282    0.266536    0.555373
     81          6           0      -15.568701   -1.060709   -1.291236
     82          6           0      -20.052999   -2.479752   -0.327765
     83          6           0      -20.896740    1.691015    2.164064
     84          6           0      -16.466757    3.268456    0.944289
     85          7           0      -17.794649   -1.591920   -0.589550
     86          6           0      -16.642108   -1.984096   -1.158828
     87          6           0      -16.644729   -3.432939   -1.699638
     88          6           0      -18.188591   -3.791774   -1.591963
     89          6           0      -18.772192   -2.518577   -0.811154
     90          6           0      -18.764559   -4.014388   -3.035802
     91          6           0      -15.683924   -4.299692   -0.734317
     92          6           0      -14.545733   -5.105402   -1.427102
     93          1           0      -14.792467   -5.377372   -2.955139
     94          7           0      -20.216615   -0.234411    0.838065
     95          6           0      -20.759337   -1.478323    0.454873
     96          6           0      -22.074407   -1.612128    1.044458
     97          6           0      -22.358575   -0.416628    1.716580
     98          6           0      -21.093677    0.406368    1.668803
     99          6           0      -23.018441   -2.751114    0.633741
    100          6           0      -23.678119   -0.007273    2.423069
    101          8           0      -23.870495    1.072750    3.012262
    102          6           0      -24.822689   -1.033929    2.473744
    103          7           0      -18.599767    2.247621    1.347003
    104          6           0      -19.824400    2.529238    2.025671
    105          6           0      -19.898791    4.024377    2.399625
    106          6           0      -18.360001    4.437178    2.255757
    107          6           0      -17.750892    3.223885    1.505214
    108          6           0      -20.908853    4.721617    1.503319
    109          6           0      -17.671267    4.618130    3.673838
    110          6           0      -17.686698    3.559639    4.828805
    111          7           0      -16.449951    1.021829   -0.086841
    112          6           0      -15.854183    2.269546    0.121464
    113          6           0      -14.575784    2.286543   -0.512212
    114          6           0      -14.396548    1.017802   -1.033208
    115          6           0      -15.600848    0.294077   -0.850931
    116          6           0      -13.629488    3.462225   -0.645115
    117          6           0      -13.485422    0.197761   -1.728198
    118          8           0      -12.436945    0.517971   -2.190418
    119          6           0      -14.265932   -1.149399   -2.023858
    120          6           0      -14.452352   -1.201734   -3.515064
    121          8           0      -15.508745   -0.994150   -4.074560
    122          8           0      -13.259708   -1.472262   -4.058603
    123          6           0      -13.184827   -1.116718   -5.454528
    124          1           0      -20.626187   -3.385682   -0.534454
    125          1           0      -21.815350    2.207237    2.448308
    126          1           0      -15.916483    4.206575    1.047403
    127          1           0      -16.262065   -3.549737   -2.713374
    128          1           0      -18.414464   -4.665325   -0.979982
    129          1           0      -19.737295   -3.558221   -3.221167
    130          1           0      -18.815184   -5.102789   -3.024867
    131          1           0      -17.976093   -3.733746   -3.733723
    132          1           0      -16.330638   -4.905259   -0.099723
    133          1           0      -15.219492   -3.594021   -0.045090
    134          1           0      -14.561061   -6.024772   -0.842766
    135          1           0      -13.552794   -4.664520   -1.343913
    136          1           0      -23.932714   -2.288055    0.261692
    137          1           0      -23.306545   -3.317691    1.520248
    138          1           0      -22.533567   -3.385437   -0.107658
    139          1           0      -25.240156   -1.088600    1.467490
    140          1           0      -25.598435   -0.575360    3.086731
    141          1           0      -24.492194   -1.921855    3.012133
    142          1           0      -20.137650    4.029007    3.463521
    143          1           0      -18.283191    5.419909    1.791930
    144          1           0      -21.704273    4.060416    1.159095
    145          1           0      -20.417248    5.141690    0.626141
    146          1           0      -21.432476    5.506410    2.048844
    147          1           0      -18.012484    5.567781    4.086068
    148          1           0      -16.613088    4.660004    3.415637
    149          1           0      -18.580264    3.725516    5.430739
    150          1           0      -16.788160    3.759743    5.413665
    151          1           0      -17.561161    2.518778    4.528852
    152          1           0      -13.313515    3.849454    0.323719
    153          1           0      -14.225653    4.216445   -1.158365
    154          1           0      -12.655265    3.238183   -1.081880
    155          1           0      -13.781209   -2.087642   -1.753358
    156          1           0      -12.189461   -0.817166   -5.781735
    157          1           0      -13.921846   -0.461803   -5.919060
    158          1           0      -13.383067   -1.952642   -6.125721
 ---------------------------------------------------------------------

 SCF Done:  E(RCAM-B3LYP) =  -4069.78531270     A.U. after   18 cycles

 Excitation energies and oscillator strengths:

 Excited State   1:      Singlet-A      1.6845 eV  736.03 nm  f=0.4188  <S**2>=0.000
     309 -> 315        0.17395
     311 -> 313        0.68763
     309 <- 315        0.10826
 This state for optimization and/or second-order correction.
 Total Energy, E(TD-HF/TD-DFT) =  -4069.72340861
 Copying the excited state density for this state as the 1-particle RhoCI density.

 Excited State   2:      Singlet-A      1.7044 eV  727.45 nm  f=0.3634  <S**2>=0.000
     310 -> 316       -0.17561
     312 -> 314        0.68592
     310 <- 316       -0.10644

 Excited State   3:      Singlet-A      2.2267 eV  556.81 nm  f=0.1275  <S**2>=0.000
     310 -> 314        0.64628
     312 -> 316        0.27555

 Excited State   4:      Singlet-A      2.2457 eV  552.09 nm  f=0.1072  <S**2>=0.000
     309 -> 313        0.63690
     311 -> 315       -0.29182

 Excited State   5:      Singlet-A      3.0554 eV  405.78 nm  f=0.0000  <S**2>=0.000
     312 -> 313        0.70710

 The electronic state is 1-A.
 Alpha  occ. eigenvalues --  -46.89803 -46.88046 -19.26119 -19.25130 -19.20743
 Alpha  occ. eigenvalues --  -19.20033 -19.19699 -19.19327 -19.18583 -19.18260
 Alpha  occ. eigenvalues --  -14.42314 -14.42211 -14.42014 -14.41402 -14.40200
 Alpha  occ. eigenvalues --  -14.39524 -14.39083 -14.39026 -10.40083 -10.39291
 Alpha  occ. eigenvalues --  -10.36382 -10.35092 -10.34795 -10.34021 -10.31812
 Alpha  occ. eigenvalues --  -10.31623 -10.31567 -10.31455 -10.31320 -10.31190
 Alpha  occ. eigenvalues --  -10.30971 -10.30635 -10.30561 -10.30478 -10.30315
 Alpha  occ. eigenvalues --  -10.30124 -10.29861 -10.29797 -10.29656 -10.29629
 Alpha  occ. eigenvalues --  -10.29604 -10.29284 -10.28851 -10.28652 -10.28511
 Alpha  occ. eigenvalues --  -10.28509 -10.28485 -10.28480 -10.28365 -10.28223
 Alpha  occ. eigenvalues --  -10.28161 -10.28136 -10.28119 -10.28110 -10.28104
 Alpha  occ. eigenvalues --  -10.27824 -10.27813 -10.27653 -10.27629 -10.27628
 Alpha  occ. eigenvalues --  -10.27619 -10.27562 -10.27044 -10.27036 -10.26978
 Alpha  occ. eigenvalues --  -10.26869 -10.26700 -10.26696 -10.26682 -10.26655
 Alpha  occ. eigenvalues --  -10.26499 -10.26441 -10.26434 -10.26399 -10.26290
 Alpha  occ. eigenvalues --  -10.26221 -10.25864 -10.25782 -10.25759 -10.25700
 Alpha  occ. eigenvalues --  -10.25577 -10.25461 -10.25230 -10.25172 -10.24649
 Alpha  occ. eigenvalues --  -10.24634  -3.18220  -3.16648  -1.93070  -1.92730
 Alpha  occ. eigenvalues --   -1.92488  -1.91549  -1.91082  -1.90970  -1.18125
 Alpha  occ. eigenvalues --   -1.16080  -1.11982  -1.10797  -1.10294  -1.09049
 Alpha  occ. eigenvalues --   -1.08735  -1.08303  -1.04915  -1.04121  -1.03286
 Alpha  occ. eigenvalues --   -1.02917  -1.02677  -1.02386  -1.01599  -1.01130
 Alpha  occ. eigenvalues --   -0.92766  -0.92246  -0.89220  -0.88502  -0.88372
 Alpha  occ. eigenvalues --   -0.88187  -0.88096  -0.87723  -0.87045  -0.86876
 Alpha  occ. eigenvalues --   -0.86466  -0.86431  -0.85985  -0.85817  -0.84093
 Alpha  occ. eigenvalues --   -0.83899  -0.83373  -0.83366  -0.82701  -0.82253
 Alpha  occ. eigenvalues --   -0.82235  -0.81165  -0.81151  -0.80877  -0.80256
 Alpha  occ. eigenvalues --   -0.79904  -0.77839  -0.77682  -0.77335  -0.77077
 Alpha  occ. eigenvalues --   -0.76766  -0.76701  -0.76126  -0.75826  -0.74938
 Alpha  occ. eigenvalues --   -0.74926  -0.72926  -0.72665  -0.71348  -0.71150
 Alpha  occ. eigenvalues --   -0.69246  -0.68859  -0.68612  -0.68440  -0.67936
 Alpha  occ. eigenvalues --   -0.67456  -0.66509  -0.66336  -0.65924  -0.65819
 Alpha  occ. eigenvalues --   -0.64818  -0.64515  -0.64506  -0.64446  -0.64098
 Alpha  occ. eigenvalues --   -0.63907  -0.62823  -0.62352  -0.59966  -0.59654
 Alpha  occ. eigenvalues --   -0.59482  -0.59369  -0.58996  -0.58927  -0.58568
 Alpha  occ. eigenvalues --   -0.58385  -0.58011  -0.57967  -0.57469  -0.57221
 Alpha  occ. eigenvalues --   -0.56335  -0.56231  -0.55648  -0.55335  -0.54969
 Alpha  occ. eigenvalues --   -0.54870  -0.54834  -0.54353  -0.54010  -0.53938
 Alpha  occ. eigenvalues --   -0.53334  -0.53248  -0.53090  -0.52725  -0.52600
 Alpha  occ. eigenvalues --   -0.52558  -0.52451  -0.52176  -0.52096  -0.51960
 Alpha  occ. eigenvalues --   -0.51823  -0.51739  -0.51702  -0.51644  -0.51045
 Alpha  occ. eigenvalues --   -0.50921  -0.50801  -0.50582  -0.50207  -0.50090
 Alpha  occ. eigenvalues --   -0.49872  -0.49779  -0.49707  -0.49618  -0.49476
 Alpha  occ. eigenvalues --   -0.49220  -0.49153  -0.49133  -0.48811  -0.48765
 Alpha  occ. eigenvalues --   -0.48563  -0.48452  -0.48299  -0.48017  -0.47915
 Alpha  occ. eigenvalues --   -0.47896  -0.47705  -0.47446  -0.47309  -0.47098
 Alpha  occ. eigenvalues --   -0.47030  -0.46954  -0.46621  -0.46425  -0.46234
 Alpha  occ. eigenvalues --   -0.46172  -0.46138  -0.45926  -0.45692  -0.45680
 Alpha  occ. eigenvalues --   -0.45541  -0.45239  -0.45150  -0.44961  -0.44901
 Alpha  occ. eigenvalues --   -0.44768  -0.44600  -0.44517  -0.44513  -0.44290
 Alpha  occ. eigenvalues --   -0.44079  -0.43969  -0.43720  -0.43570  -0.43535
 Alpha  occ. eigenvalues --   -0.43385  -0.43377  -0.43113  -0.43020  -0.42979
 Alpha  occ. eigenvalues --   -0.42714  -0.42685  -0.42621  -0.42496  -0.42348
 Alpha  occ. eigenvalues --   -0.42198  -0.41893  -0.41717  -0.41432  -0.41284
 Alpha  occ. eigenvalues --   -0.41078  -0.40978  -0.40774  -0.40639  -0.40464
 Alpha  occ. eigenvalues --   -0.40243  -0.39808  -0.39529  -0.39114  -0.38656
 Alpha  occ. eigenvalues --   -0.38187  -0.37729  -0.37645  -0.37424  -0.37070
 Alpha  occ. eigenvalues --   -0.37060  -0.37028  -0.36693  -0.36430  -0.36231
 Alpha  occ. eigenvalues --   -0.36082  -0.35608  -0.34788  -0.34768  -0.34265
 Alpha  occ. eigenvalues --   -0.34061  -0.33283  -0.32632  -0.31611  -0.31588
 Alpha  occ. eigenvalues --   -0.31255  -0.30926  -0.30413  -0.30235  -0.30221
 Alpha  occ. eigenvalues --   -0.29971  -0.29552  -0.29176  -0.24320  -0.23734
 Alpha  occ. eigenvalues --   -0.21172  -0.20943
 Alpha virt. eigenvalues --   -0.08786  -0.08516  -0.01651  -0.01307   0.00388
 Alpha virt. eigenvalues --    0.00594   0.01329   0.02160   0.02515   0.02595
 Alpha virt. eigenvalues --    0.04570   0.04571   0.04667   0.05832   0.06162

 Mulliken charges:
               1
     1  Mg  11.998769
     2  C    6.012371
     3  C    5.971471
     4  C    5.986136
     5  C    6.028771
     6  N    6.990913
     7  C    5.971134
     8  C    6.013970
     9  C    5.987613
    10  C    6.042838
    11  C    5.998541
    12  C    6.001626
    13  C    6.004322
    14  H    0.988527
    15  N    6.989781
    16  C    6.058489
    17  C    6.008770
    18  C    6.022440
    19  C    6.035152
    20  C    5.992683
    21  C    6.012449
    22  O    8.020881
    23  C    5.996058
    24  N    7.014938
    25  C    6.025760
    26  C    5.991151
    27  C    6.008667
    28  C    5.960724
    29  C    5.998615
    30  C    6.002314
    31  C    6.000950
    32  N    7.002755
    33  C    5.950613
    34  C    5.980085
    35  C    5.987802
    36  C    5.972185
    37  C    6.002761
    38  C    5.982739
    39  O    7.968849
    40  C    5.997467
    41  C    5.994477
    42  O    7.994896
    43  O    7.996779
    44  C    6.003215
    45  H    1.008559
    46  H    1.007842
    47  H    0.993241
    48  H    0.997238
    49  H    1.004024
    50  H    1.003219
    51  H    1.014328
    52  H    0.995589
    53  H    0.987549
    54  H    1.009329
    55  H    1.003322
    56  H    0.995847
    57  H    1.019351
    58  H    1.016824
    59  H    1.019000
    60  H    1.012083
    61  H    1.013260
    62  H    1.008391
    63  H    1.002416
    64  H    0.999102
    65  H    0.999860
    66  H    0.996002
    67  H    1.010880
    68  H    1.005131
    69  H    0.990948
    70  H    1.003632
    71  H    0.995748
    72  H    0.996629
    73  H    0.986243
    74  H    0.976948
    75  H    0.981104
    76  H    0.989550
    77  H    0.993548
    78  H    0.996919
    79  H    0.994895
    80  Mg  12.000130
    81  C    5.999105
    82  C    6.000735
    83  C    6.000932
    84  C    5.999852
    85  N    6.999751
    86  C    6.001335
    87  C    5.999577
    88  C    6.000376
    89  C    5.998780
    90  C    6.000141
    91  C    5.999810
    92  C    5.999874
    93  H    1.000152
    94  N    7.000349
    95  C    5.997910
    96  C    5.999404
    97  C    5.999307
    98  C    5.998280
    99  C    6.000146
   100  C    5.999449
   101  O    7.998738
   102  C    6.000269
   103  N    7.000370
   104  C    5.998569
   105  C    6.000360
   106  C    5.999551
   107  C    6.001000
   108  C    6.000220
   109  C    5.999711
   110  C    6.000173
   111  N    6.999651
   112  C    6.001459
   113  C    6.001203
   114  C    6.000045
   115  C    6.001445
   116  C    5.999973
   117  C    6.000796
   118  O    8.001253
   119  C    6.000118
   120  C    6.000051
   121  O    8.000306
   122  O    8.000037
   123  C    5.999785
   124  H    0.999541
   125  H    0.999762
   126  H    1.000462
   127  H    1.000047
   128  H    1.000006
   129  H    1.000084
   130  H    0.999808
   131  H    0.999475
   132  H    1.000499
   133  H    0.999891
   134  H    1.000249
   135  H    1.000000
   136  H    0.999257
   137  H    0.999227
   138  H    0.999257
   139  H    0.999607
   140  H    0.999307
   141  H    0.999702
   142  H    1.000007
   143  H    1.000092
   144  H    1.000303
   145  H    0.999470
   146  H    0.999705
   147  H    1.000311
   148  H    0.999806
   149  H    1.000285
   150  H    0.999989
   151  H    1.000122
   152  H    1.000849
   153  H    1.000594
   154  H    1.000673
   155  H    1.000569
   156  H    1.000214
   157  H    1.000033
   158  H    1.000314
 Sum of Mulliken charges = 624.00000

 Dipole moment (field-independent basis, Debye):
    X=              8.3826    Y=              7.1471    Z=             -3.1272  Tot=             11.4511
 Quadrupole moment (field-independent basis, Debye-Ang):
   XX=            275.1179   YY=             -0.3602   ZZ=             -0.7125
   XY=            128.5204   XZ=            -54.1447   YZ=              0.5408

 Normal termination of Gaussian 16 at Wed Sep 22 06:30:29 2021.
