 Gaussian 16, Revision A.03,
 Gaussian 16:  ES64L-G16RevA.03 25-Dec-2016

 -----------------------------------
 #p cam-b3lyp/Def2SVP td=(nstates=5)
 -----------------------------------

 --------------------------------
 TDDFT excited states in gaussian
 --------------------------------
 Symbolic Z-matrix:
 Charge =  0 Multiplicity = 1

                         Standard orientation:
 ---------------------------------------------------------------------
 Center     Atomic      Atomic             Coordinates (Angstroms)
 Number     Number       Type             X           Y           Z
 ---------------------------------------------------------------------
      1         12           0        5.060064   -0.613991   -0.397808
      2          6           0        3.136474    2.276022   -1.328490
      3          6           0        7.856830    1.561950   -0.278391
      4          6           0        7.141179   -3.307263    0.384212
      5          6           0        2.447162   -2.627910   -0.924287
      6          7           0        5.438009    1.702475   -0.990711
      7          6           0        4.485099    2.633898   -1.209155
      8          6           0        5.152549    4.033916   -1.459443
      9          6           0        6.670079    3.656493   -1.313505
     10          6           0        6.685766    2.219848   -0.742766
     11          6           0        7.454379    3.806179   -2.663704
     12          6           0        4.709792    5.104196   -0.462078
     13          6           0        4.391498    6.447193   -1.032736
     14          1           0        3.845703    7.536757   -0.098468
     15          7           0        7.105860   -0.840207    0.191849
     16          6           0        8.058872    0.172332    0.157672
     17          6           0        9.316374   -0.377788    0.623551
     18          6           0        9.137770   -1.719584    0.916901
     19          6           0        7.757122   -2.041121    0.421107
     20          6           0       10.623326    0.361768    0.630224
     21          6           0       10.153803   -2.818101    1.434926
     22          8           0        9.927313   -3.980101    1.668530
     23          6           0       11.539815   -2.379428    1.855377
     24          7           0        4.910228   -2.633131   -0.424143
     25          6           0        5.834521   -3.584553   -0.079369
     26          6           0        5.339392   -5.017795   -0.383529
     27          6           0        3.774727   -4.812479   -0.559712
     28          6           0        3.702512   -3.238616   -0.608660
     29          6           0        6.072757   -5.672878   -1.597449
     30          6           0        2.908899   -5.421382    0.584930
     31          6           0        3.043256   -4.745624    1.947688
     32          7           0        3.205994   -0.333731   -1.014913
     33          6           0        2.147786   -1.277070   -1.135755
     34          6           0        0.920278   -0.618102   -1.576444
     35          6           0        1.256413    0.747278   -1.605645
     36          6           0        2.624755    0.889987   -1.253797
     37          6           0       -0.357805   -1.268500   -1.840072
     38          6           0        0.675737    2.054241   -1.896094
     39          8           0       -0.475426    2.347699   -2.172117
     40          6           0        1.899324    3.116872   -1.817344
     41          6           0        1.300790    4.122063   -0.830409
     42          8           0        1.120600    3.989973    0.393605
     43          8           0        0.917258    5.196241   -1.498123
     44          6           0        0.554424    6.457020   -0.732153
     45          1           0        8.694376    2.254184   -0.172681
     46          1           0        7.714264   -4.209647    0.611111
     47          1           0        1.618089   -3.333535   -1.005485
     48          1           0        4.778196    4.335764   -2.437052
     49          1           0        7.167009    4.269756   -0.560596
     50          1           0        8.334768    4.448247   -2.636108
     51          1           0        6.820081    4.016147   -3.525120
     52          1           0        7.982103    2.918474   -3.013121
     53          1           0        5.665567    5.374698   -0.012928
     54          1           0        4.009592    4.731377    0.286284
     55          1           0        3.755336    6.527233   -1.915697
     56          1           0        5.366986    6.809325   -1.357551
     57          1           0       10.482025    1.420148    0.412724
     58          1           0       11.372541   -0.013304   -0.068720
     59          1           0       11.150817    0.377857    1.584091
     60          1           0       11.517031   -1.652838    2.667491
     61          1           0       11.940915   -2.003168    0.914235
     62          1           0       12.051967   -3.323762    2.039952
     63          1           0        5.672792   -5.592504    0.481280
     64          1           0        3.353826   -4.989578   -1.549696
     65          1           0        6.720471   -6.498108   -1.301653
     66          1           0        6.615552   -5.022905   -2.282855
     67          1           0        5.223604   -6.031773   -2.179310
     68          1           0        2.998784   -6.505775    0.519284
     69          1           0        1.864197   -5.268592    0.314625
     70          1           0        3.810082   -3.975609    2.024060
     71          1           0        3.322738   -5.540369    2.638884
     72          1           0        2.184779   -4.158854    2.272489
     73          1           0       -1.155347   -0.602032   -2.169096
     74          1           0       -0.629068   -1.746221   -0.898719
     75          1           0       -0.179579   -2.054008   -2.575821
     76          1           0        2.014354    3.685260   -2.740259
     77          1           0        0.592535    7.265358   -1.462718
     78          1           0        1.289785    6.717779    0.028392
     79          1           0       -0.404783    6.392125   -0.217214
     80         12           0       -4.996707   -0.711372    0.251630
     81          6           0       -2.972021    1.890226    1.019126
     82          6           0       -7.665311    1.478593   -0.132232
     83          6           0       -7.022961   -3.314413   -0.509911
     84          6           0       -2.477904   -2.926197    1.107916
     85          7           0       -5.184851    1.384374    0.329108
     86          6           0       -4.250691    2.298355    0.694311
     87          6           0       -4.713648    3.714629    0.472413
     88          6           0       -6.279798    3.568990    0.375079
     89          6           0       -6.384346    2.025786    0.144104
     90          6           0       -7.211046    4.142325    1.523480
     91          6           0       -4.135797    4.320153   -0.885227
     92          6           0       -4.074320    5.876005   -0.865720
     93          1           0       -5.032542    6.716056   -0.004750
     94          7           0       -7.104339   -0.946659   -0.185299
     95          6           0       -8.016451    0.134918   -0.301223
     96          6           0       -9.309223   -0.368253   -0.655985
     97          6           0       -9.158578   -1.797008   -0.760482
     98          6           0       -7.697532   -2.046497   -0.490288
     99          6           0      -10.499671    0.478216   -0.942432
    100          6           0      -10.200659   -2.855983   -1.102563
    101          8           0      -10.020886   -4.108551   -1.063356
    102          6           0      -11.597552   -2.421081   -1.512139
    103          7           0       -4.816712   -2.808065    0.354481
    104          6           0       -5.737262   -3.698753   -0.199987
    105          6           0       -5.194390   -5.140736   -0.417347
    106          6           0       -3.664977   -4.912127    0.098805
    107          6           0       -3.609858   -3.489459    0.520321
    108          6           0       -6.013578   -6.118075    0.435404
    109          6           0       -2.611515   -5.307809   -0.893454
    110          6           0       -1.630232   -6.310842   -0.357760
    111          7           0       -3.193578   -0.667645    1.011366
    112          6           0       -2.223961   -1.619568    1.301117
    113          6           0       -1.051071   -0.990536    1.784435
    114          6           0       -1.273273    0.412358    1.750310
    115          6           0       -2.549955    0.579734    1.173591
    116          6           0        0.226386   -1.602005    2.215858
    117          6           0       -0.739357    1.702289    2.129052
    118          8           0        0.267382    2.085161    2.692385
    119          6           0       -1.850819    2.711997    1.570775
    120          6           0       -2.098378    3.848908    2.495621
    121          8           0       -2.214783    3.790030    3.693034
    122          8           0       -2.152607    5.037154    1.874057
    123          6           0       -2.414941    6.193631    2.777249
    124          1           0       -8.461239    2.222516   -0.056178
    125          1           0       -7.717177   -4.149133   -0.626496
    126          1           0       -1.598492   -3.547379    1.289781
    127          1           0       -4.558813    4.345289    1.347692
    128          1           0       -6.604849    4.010405   -0.566497
    129          1           0       -6.569021    4.681892    2.219834
    130          1           0       -7.821395    3.433472    2.080787
    131          1           0       -7.935082    4.795411    1.035926
    132          1           0       -4.795689    3.922359   -1.656401
    133          1           0       -3.131032    3.917639   -1.014379
    134          1           0       -4.211151    6.123557   -1.918541
    135          1           0       -3.035065    6.134351   -0.664202
    136          1           0      -10.552024    0.899655   -1.946348
    137          1           0      -10.488821    1.254962   -0.178837
    138          1           0      -11.441195   -0.001780   -0.677185
    139          1           0      -12.138375   -2.244810   -0.582457
    140          1           0      -12.021690   -3.288009   -2.018144
    141          1           0      -11.621848   -1.512684   -2.114333
    142          1           0       -5.372557   -5.372485   -1.467486
    143          1           0       -3.502208   -5.536700    0.977814
    144          1           0       -6.712998   -5.665947    1.138916
    145          1           0       -5.337226   -6.843295    0.887225
    146          1           0       -6.663881   -6.645020   -0.263432
    147          1           0       -1.979755   -4.475919   -1.205083
    148          1           0       -2.996790   -5.708004   -1.831360
    149          1           0       -1.471036   -7.154551   -1.028651
    150          1           0       -1.964575   -6.724736    0.593188
    151          1           0       -0.745982   -5.717101   -0.124226
    152          1           0        0.156141   -2.595006    2.660831
    153          1           0        0.483319   -1.031467    3.108832
    154          1           0        0.944039   -1.583974    1.395574
    155          1           0       -1.263243    3.094425    0.735641
    156          1           0       -1.523936    6.491421    3.331823
    157          1           0       -3.303864    6.039736    3.389224
    158          1           0       -2.673213    7.053595    2.158817
 ---------------------------------------------------------------------

 SCF Done:  E(RCAM-B3LYP) =  -4069.80432274     A.U. after   19 cycles

 Excitation energies and oscillator strengths:

 Excited State   1:      Singlet-A      1.5950 eV  777.31 nm  f=0.9068  <S**2>=0.000
     309 -> 315       -0.11876
     310 -> 316        0.10970
     311 -> 313        0.48799
     312 -> 314       -0.48385
 This state for optimization and/or second-order correction.
 Total Energy, E(TD-HF/TD-DFT) =  -4069.74570579
 Copying the excited state density for this state as the 1-particle RhoCI density.

 Excited State   2:      Singlet-A      1.6786 eV  738.62 nm  f=0.0017  <S**2>=0.000
     309 -> 315       -0.13365
     310 -> 316       -0.12797
     311 -> 313        0.47531
     312 -> 314        0.48842

 Excited State   3:      Singlet-A      2.1176 eV  585.49 nm  f=0.0000  <S**2>=0.000
     312 -> 313        0.68936

 Excited State   4:      Singlet-A      2.2016 eV  563.15 nm  f=0.0151  <S**2>=0.000
     309 -> 313        0.52779
     310 -> 314       -0.33352
     311 -> 315        0.25763
     312 -> 313       -0.10862
     312 -> 316       -0.14066

 Excited State   5:      Singlet-A      2.2260 eV  556.98 nm  f=0.1610  <S**2>=0.000
     309 -> 313        0.32823
     310 -> 314        0.53640
     311 -> 315        0.17265
     312 -> 316        0.24223

 The electronic state is 1-A.
 Alpha  occ. eigenvalues --  -46.88376 -46.86440 -19.25294 -19.24302 -19.19924
 Alpha  occ. eigenvalues --  -19.19608 -19.18363 -19.17931 -19.17840 -19.17716
 Alpha  occ. eigenvalues --  -14.42569 -14.42134 -14.41640 -14.41025 -14.40212
 Alpha  occ. eigenvalues --  -14.39795 -14.38859 -14.37999 -10.38773 -10.37512
 Alpha  occ. eigenvalues --  -10.35858 -10.35680 -10.34672 -10.33726 -10.32437
 Alpha  occ. eigenvalues --  -10.31547 -10.31483 -10.31426 -10.31327 -10.31250
 Alpha  occ. eigenvalues --  -10.31212 -10.30790 -10.30560 -10.30207 -10.30110
 Alpha  occ. eigenvalues --  -10.30075 -10.30037 -10.29862 -10.29448 -10.29173
 Alpha  occ. eigenvalues --  -10.29116 -10.28867 -10.28825 -10.28673 -10.28617
 Alpha  occ. eigenvalues --  -10.28527 -10.28512 -10.28484 -10.28479 -10.28427
 Alpha  occ. eigenvalues --  -10.28253 -10.28239 -10.28095 -10.28055 -10.27736
 Alpha  occ. eigenvalues --  -10.27676 -10.27456 -10.27438 -10.27196 -10.27126
 Alpha  occ. eigenvalues --  -10.27023 -10.26976 -10.26975 -10.26876 -10.26801
 Alpha  occ. eigenvalues --  -10.26780 -10.26741 -10.26690 -10.26658 -10.26309
 Alpha  occ. eigenvalues --  -10.26193 -10.26178 -10.26150 -10.26083 -10.25904
 Alpha  occ. eigenvalues --  -10.25767 -10.25563 -10.25529 -10.25481 -10.25430
 Alpha  occ. eigenvalues --  -10.25293 -10.25242 -10.25214 -10.25116 -10.24564
 Alpha  occ. eigenvalues --  -10.24561  -3.17062  -3.15298  -1.91946  -1.91535
 Alpha  occ. eigenvalues --   -1.91369  -1.90189  -1.89733  -1.89643  -1.16331
 Alpha  occ. eigenvalues --   -1.16294  -1.11542  -1.10581  -1.08636  -1.06857
 Alpha  occ. eigenvalues --   -1.06254  -1.05639  -1.03908  -1.03746  -1.03223
 Alpha  occ. eigenvalues --   -1.02873  -1.02347  -1.02022  -1.01820  -1.00755
 Alpha  occ. eigenvalues --   -0.92325  -0.91053  -0.89393  -0.89300  -0.88871
 Alpha  occ. eigenvalues --   -0.88203  -0.88128  -0.87711  -0.87451  -0.87082
 Alpha  occ. eigenvalues --   -0.87058  -0.86588  -0.86479  -0.85735  -0.84246
 Alpha  occ. eigenvalues --   -0.83822  -0.83735  -0.83053  -0.82496  -0.81781
 Alpha  occ. eigenvalues --   -0.81586  -0.81202  -0.80981  -0.80356  -0.80286
 Alpha  occ. eigenvalues --   -0.79838  -0.78234  -0.77763  -0.77446  -0.77286
 Alpha  occ. eigenvalues --   -0.77047  -0.76602  -0.76119  -0.75716  -0.75245
 Alpha  occ. eigenvalues --   -0.74612  -0.72708  -0.72181  -0.71776  -0.71172
 Alpha  occ. eigenvalues --   -0.70182  -0.68880  -0.68490  -0.68342  -0.67650
 Alpha  occ. eigenvalues --   -0.67310  -0.66378  -0.66029  -0.65579  -0.65314
 Alpha  occ. eigenvalues --   -0.65241  -0.64717  -0.64606  -0.64215  -0.64052
 Alpha  occ. eigenvalues --   -0.63350  -0.62022  -0.61523  -0.59724  -0.59694
 Alpha  occ. eigenvalues --   -0.59432  -0.59140  -0.59046  -0.58283  -0.57838
 Alpha  occ. eigenvalues --   -0.57652  -0.57518  -0.57063  -0.56861  -0.56515
 Alpha  occ. eigenvalues --   -0.55802  -0.55691  -0.55442  -0.55147  -0.54811
 Alpha  occ. eigenvalues --   -0.54708  -0.54472  -0.54335  -0.54052  -0.53533
 Alpha  occ. eigenvalues --   -0.53413  -0.53293  -0.53065  -0.52840  -0.52629
 Alpha  occ. eigenvalues --   -0.52607  -0.52532  -0.52370  -0.52221  -0.52066
 Alpha  occ. eigenvalues --   -0.51806  -0.51686  -0.51637  -0.51405  -0.51123
 Alpha  occ. eigenvalues --   -0.50935  -0.50446  -0.50255  -0.50057  -0.49891
 Alpha  occ. eigenvalues --   -0.49848  -0.49778  -0.49485  -0.49406  -0.49389
 Alpha  occ. eigenvalues --   -0.49328  -0.49072  -0.48769  -0.48581  -0.48557
 Alpha  occ. eigenvalues --   -0.48331  -0.48246  -0.48026  -0.47821  -0.47637
 Alpha  occ. eigenvalues --   -0.47583  -0.47461  -0.47436  -0.47162  -0.46835
 Alpha  occ. eigenvalues --   -0.46788  -0.46744  -0.46634  -0.46527  -0.46337
 Alpha  occ. eigenvalues --   -0.46095  -0.45932  -0.45847  -0.45628  -0.45509
 Alpha  occ. eigenvalues --   -0.45424  -0.45146  -0.45045  -0.44560  -0.44523
 Alpha  occ. eigenvalues --   -0.44297  -0.44289  -0.44164  -0.44033  -0.43885
 Alpha  occ. eigenvalues --   -0.43763  -0.43673  -0.43382  -0.43317  -0.43253
 Alpha  occ. eigenvalues --   -0.43183  -0.43077  -0.42789  -0.42705  -0.42581
 Alpha  occ. eigenvalues --   -0.42414  -0.42224  -0.41929  -0.41746  -0.41716
 Alpha  occ. eigenvalues --   -0.41570  -0.41323  -0.41222  -0.41076  -0.40721
 Alpha  occ. eigenvalues --   -0.40463  -0.40426  -0.40299  -0.40209  -0.39848
 Alpha  occ. eigenvalues --   -0.39792  -0.39714  -0.39687  -0.39439  -0.39254
 Alpha  occ. eigenvalues --   -0.38740  -0.38167  -0.37622  -0.37577  -0.37301
 Alpha  occ. eigenvalues --   -0.36929  -0.36718  -0.36543  -0.36487  -0.36125
 Alpha  occ. eigenvalues --   -0.35808  -0.35740  -0.34004  -0.33928  -0.33343
 Alpha  occ. eigenvalues --   -0.33257  -0.32932  -0.32493  -0.31593  -0.31281
 Alpha  occ. eigenvalues --   -0.31008  -0.30609  -0.30466  -0.30167  -0.30092
 Alpha  occ. eigenvalues --   -0.29592  -0.29085  -0.28761  -0.24228  -0.23538
 Alpha  occ. eigenvalues --   -0.21094  -0.20360
 Alpha virt. eigenvalues --   -0.08858  -0.08237  -0.02160  -0.00893   0.00329
 Alpha virt. eigenvalues --    0.00889   0.02154   0.03063   0.03565   0.03895
 Alpha virt. eigenvalues --    0.04985   0.05132   0.05406   0.05591   0.05947

 Mulliken charges:
               1
     1  Mg   0.852670
     2  C    0.054655
     3  C   -0.060197
     4  C   -0.047450
     5  C   -0.092579
     6  N   -0.249373
     7  C   -0.053097
     8  C   -0.042218
     9  C   -0.033230
    10  C    0.027562
    11  C    0.061748
    12  C    0.089948
    13  C   -0.097227
    14  H    0.016132
    15  N   -0.370846
    16  C    0.164990
    17  C   -0.135513
    18  C   -0.046524
    19  C    0.114904
    20  C    0.100709
    21  C    0.008679
    22  O   -0.184060
    23  C    0.055594
    24  N   -0.324556
    25  C    0.020126
    26  C   -0.032664
    27  C   -0.030266
    28  C    0.035212
    29  C    0.074305
    30  C    0.043905
    31  C    0.005690
    32  N   -0.436630
    33  C    0.137880
    34  C   -0.160821
    35  C    0.007323
    36  C    0.131507
    37  C    0.138185
    38  C    0.053610
    39  O   -0.171281
    40  C   -0.063220
    41  C    0.187108
    42  O   -0.247578
    43  O   -0.309551
    44  C    0.179916
    45  H   -0.025793
    46  H   -0.003978
    47  H   -0.034752
    48  H    0.014234
    49  H    0.011147
    50  H    0.011511
    51  H    0.016309
    52  H    0.004530
    53  H    0.000358
    54  H    0.051542
    55  H    0.025547
    56  H    0.015852
    57  H   -0.001134
    58  H    0.033940
    59  H    0.016932
    60  H    0.055683
    61  H    0.014170
    62  H    0.026953
    63  H    0.014435
    64  H    0.016654
    65  H    0.026499
    66  H    0.025240
    67  H    0.003021
    68  H    0.013894
    69  H   -0.005035
    70  H    0.022845
    71  H    0.023527
    72  H    0.013132
    73  H    0.038266
    74  H    0.036114
    75  H    0.017298
    76  H    0.035591
    77  H    0.038560
    78  H    0.039108
    79  H    0.054802
    80  Mg   0.839214
    81  C    0.054837
    82  C   -0.092136
    83  C   -0.057301
    84  C   -0.123561
    85  N   -0.302111
    86  C   -0.054955
    87  C   -0.000571
    88  C   -0.078497
    89  C    0.036907
    90  C    0.070281
    91  C    0.039936
    92  C   -0.031773
    93  H    0.023125
    94  N   -0.307919
    95  C    0.153824
    96  C   -0.140679
    97  C   -0.030851
    98  C    0.069244
    99  C    0.113916
   100  C    0.007318
   101  O   -0.246790
   102  C    0.041742
   103  N   -0.321141
   104  C    0.037488
   105  C   -0.042630
   106  C    0.025141
   107  C    0.083638
   108  C    0.057586
   109  C    0.039413
   110  C   -0.012924
   111  N   -0.437986
   112  C    0.169192
   113  C   -0.193206
   114  C    0.000920
   115  C    0.103964
   116  C    0.098704
   117  C    0.078568
   118  O   -0.132498
   119  C   -0.044420
   120  C    0.157087
   121  O   -0.203614
   122  O   -0.327825
   123  C    0.183976
   124  H   -0.028712
   125  H   -0.009857
   126  H   -0.049440
   127  H    0.001658
   128  H    0.009598
   129  H    0.019513
   130  H    0.025408
   131  H    0.013887
   132  H    0.011583
   133  H    0.037246
   134  H    0.019930
   135  H    0.030006
   136  H    0.048630
   137  H    0.011925
   138  H    0.007840
   139  H    0.043168
   140  H    0.031323
   141  H    0.028110
   142  H    0.028256
   143  H    0.011585
   144  H    0.039703
   145  H    0.012608
   146  H    0.018275
   147  H    0.003562
   148  H    0.002429
   149  H    0.020053
   150  H    0.003823
   151  H    0.016937
   152  H    0.007433
   153  H    0.035215
   154  H    0.060454
   155  H    0.056782
   156  H    0.050450
   157  H    0.041434
   158  H    0.016075
 Sum of Mulliken charges =  -0.00000

 Dipole moment (field-independent basis, Debye):
    X=              3.3911    Y=              3.3509    Z=             -5.0124  Tot=              6.9175
 Quadrupole moment (field-independent basis, Debye-Ang):
   XX=           -472.5813   YY=           -469.1049   ZZ=           -532.5818
   XY=            -14.1216   XZ=            -10.7540   YZ=             -4.9473

 Normal termination of Gaussian 16 at Wed Sep 15 11:06:47 2021.
