 Gaussian 16, Revision A.03,
 Gaussian 16:  ES64L-G16RevA.03 25-Dec-2016

 ----------------------------------------------------------
 #p cam-b3lyp/Def2SVP td=(nstates=5) density=(transition=1)
 ----------------------------------------------------------

 --------------------------------
 TDDFT excited states in gaussian
 --------------------------------
 Symbolic Z-matrix:
 Charge =  0 Multiplicity = 1

                         Standard orientation:
 ---------------------------------------------------------------------
 Center     Atomic      Atomic             Coordinates (Angstroms)
 Number     Number       Type             X           Y           Z
 ---------------------------------------------------------------------
      1         12           0      -28.467310    0.048372   -0.741607
      2          6           0      -24.996127   -0.289291    0.308069
      3          6           0      -28.824304   -3.310723   -0.126292
      4          6           0      -31.731534    0.566826   -0.233215
      5          6           0      -27.893939    3.326369   -1.428860
      6          7           0      -27.073370   -1.566390    0.205221
      7          6           0      -25.661524   -1.477393    0.482168
      8          6           0      -25.109939   -2.877837    0.763747
      9          6           0      -26.225364   -3.841761    0.262225
     10          6           0      -27.491499   -2.896268    0.070290
     11          6           0      -25.865679   -4.579766   -1.113153
     12          6           0      -24.552849   -3.134367    2.133494
     13          6           0      -24.937301   -2.143990    3.257968
     14          1           0      -24.547639   -2.239969    4.744374
     15          7           0      -30.105872   -1.241646   -0.377800
     16          6           0      -30.029068   -2.595018   -0.133535
     17          6           0      -31.423408   -3.127177   -0.027074
     18          6           0      -32.213650   -1.983449    0.054008
     19          6           0      -31.388196   -0.792167   -0.130521
     20          6           0      -31.677124   -4.587739    0.097639
     21          6           0      -33.747471   -1.990411    0.318614
     22          8           0      -34.278967   -3.060985    0.554128
     23          6           0      -34.590747   -0.765983    0.453118
     24          7           0      -29.570022    1.779029   -0.679369
     25          6           0      -30.957397    1.672831   -0.588212
     26          6           0      -31.627942    3.023583   -0.838657
     27          6           0      -30.478792    3.856600   -1.513790
     28          6           0      -29.275071    2.951136   -1.243375
     29          6           0      -32.933700    3.057915   -1.673826
     30          6           0      -30.297603    5.321060   -1.000376
     31          6           0      -30.778133    6.474536   -1.994813
     32          7           0      -26.788244    1.299168   -0.686555
     33          6           0      -26.707796    2.624851   -1.087380
     34          6           0      -25.323651    3.030054   -1.098307
     35          6           0      -24.684060    1.941975   -0.489064
     36          6           0      -25.637691    0.913659   -0.287990
     37          6           0      -24.846826    4.430356   -1.521167
     38          6           0      -23.423167    1.410568   -0.070775
     39          8           0      -22.324915    1.990926   -0.186697
     40          6           0      -23.508562   -0.124938    0.344057
     41          6           0      -22.853369   -0.183693    1.665949
     42          8           0      -23.071273    0.555226    2.631881
     43          8           0      -22.060472   -1.283078    1.654003
     44          6           0      -21.142235   -1.451344    2.823708
     45          1           0      -28.940181   -4.375068    0.086429
     46          1           0      -32.802062    0.718088   -0.078081
     47          1           0      -27.723015    4.347327   -1.775482
     48          1           0      -24.303777   -2.857029    0.030376
     49          1           0      -26.567145   -4.534251    1.031678
     50          1           0      -25.764700   -5.622452   -0.814590
     51          1           0      -24.963129   -4.138090   -1.536240
     52          1           0      -26.744134   -4.457331   -1.747734
     53          1           0      -23.476205   -3.243134    2.003969
     54          1           0      -24.953663   -4.129097    2.331195
     55          1           0      -26.026333   -2.099914    3.223864
     56          1           0      -24.549030   -1.153651    3.019274
     57          1           0      -32.044454   -4.740172    1.112076
     58          1           0      -30.739811   -5.111757   -0.086858
     59          1           0      -32.375553   -4.900427   -0.679377
     60          1           0      -34.399986   -0.098938    1.292947
     61          1           0      -35.638114   -0.996339    0.645985
     62          1           0      -34.472958   -0.336379   -0.541605
     63          1           0      -31.815558    3.273615    0.206200
     64          1           0      -30.703225    3.813381   -2.579790
     65          1           0      -33.836550    3.134104   -1.067042
     66          1           0      -33.041502    2.120753   -2.218889
     67          1           0      -32.837266    3.869826   -2.395488
     68          1           0      -29.278169    5.568919   -0.703388
     69          1           0      -30.858305    5.340288   -0.065763
     70          1           0      -31.306557    7.145976   -1.318493
     71          1           0      -31.434039    6.144447   -2.800516
     72          1           0      -29.884313    6.853021   -2.489451
     73          1           0      -23.841414    4.473179   -1.940574
     74          1           0      -24.848805    4.942456   -0.559566
     75          1           0      -25.453164    4.800737   -2.347480
     76          1           0      -23.007065   -0.729479   -0.413106
     77          1           0      -20.567487   -2.369800    2.699593
     78          1           0      -21.701757   -1.536855    3.755419
     79          1           0      -20.531327   -0.551971    2.760116
     80         12           0       27.932418    0.708826   -0.304822
     81          6           0       26.704558   -2.501659   -0.643318
     82          6           0       24.967099    1.580122    1.211111
     83          6           0       29.351447    3.712045    0.570527
     84          6           0       30.910541   -0.269564   -1.727750
     85          7           0       26.151269   -0.372830    0.397427
     86          6           0       25.860545   -1.681438    0.065598
     87          6           0       24.479892   -2.101171    0.563025
     88          6           0       23.819613   -0.699343    0.840576
     89          6           0       25.045115    0.202461    0.862575
     90          6           0       22.640373   -0.238991   -0.130865
     91          6           0       24.447970   -3.103977    1.760232
     92          6           0       23.470813   -4.253174    1.629559
     93          1           0       22.310927   -4.133349    2.605833
     94          7           0       27.236093    2.359974    0.747245
     95          6           0       26.011030    2.537198    1.254693
     96          6           0       25.872593    3.870394    1.814731
     97          6           0       27.062754    4.568057    1.693302
     98          6           0       27.982156    3.547408    1.028986
     99          6           0       24.536239    4.362755    2.549449
    100          6           0       27.327535    6.061131    2.084594
    101          8           0       26.404154    6.711161    2.651550
    102          6           0       28.638112    6.711334    1.856024
    103          7           0       30.002016    1.554272   -0.328854
    104          6           0       30.266815    2.817204   -0.085413
    105          6           0       31.597645    3.259624   -0.656894
    106          6           0       32.227044    2.002124   -1.346916
    107          6           0       30.966803    1.019345   -1.216516
    108          6           0       31.712856    4.629029   -1.399633
    109          6           0       33.525064    1.356208   -0.781405
    110          6           0       34.214344    0.445178   -1.776043
    111          7           0       28.689217   -1.066134   -1.044346
    112          6           0       29.923273   -1.311324   -1.689828
    113          6           0       29.901212   -2.661104   -2.183858
    114          6           0       28.635129   -3.190930   -1.834523
    115          6           0       27.998835   -2.179474   -1.120336
    116          6           0       30.912796   -3.298343   -3.124842
    117          6           0       27.858026   -4.321644   -1.963790
    118          8           0       28.027726   -5.435544   -2.379117
    119          6           0       26.570408   -3.987691   -1.045476
    120          6           0       26.839455   -4.747300    0.252660
    121          8           0       27.569360   -4.378487    1.152547
    122          8           0       26.112453   -5.924768    0.183351
    123          6           0       26.310554   -6.861881    1.284358
    124          1           0       23.992865    1.969267    1.513706
    125          1           0       29.734023    4.690455    0.867485
    126          1           0       31.733767   -0.677357   -2.318032
    127          1           0       23.946137   -2.531340   -0.283923
    128          1           0       23.533366   -0.695009    1.892940
    129          1           0       22.679614    0.844796   -0.022020
    130          1           0       21.641145   -0.484451    0.229703
    131          1           0       22.707749   -0.555913   -1.171507
    132          1           0       24.171563   -2.471403    2.604012
    133          1           0       25.408422   -3.458063    2.134170
    134          1           0       24.029454   -5.173285    1.802577
    135          1           0       23.023059   -4.309942    0.637196
    136          1           0       23.746861    3.614161    2.629253
    137          1           0       24.121374    5.235440    2.043954
    138          1           0       24.685771    4.584488    3.605221
    139          1           0       28.870544    6.696702    0.791662
    140          1           0       29.402166    6.323467    2.529860
    141          1           0       28.431938    7.770935    2.001958
    142          1           0       32.393853    3.413899    0.071650
    143          1           0       32.240451    2.085386   -2.433905
    144          1           0       30.789336    5.165939   -1.178632
    145          1           0       31.956145    4.537441   -2.458807
    146          1           0       32.507424    5.275183   -1.026196
    147          1           0       33.234054    0.859717    0.144191
    148          1           0       34.135819    2.206704   -0.478701
    149          1           0       35.284814    0.491169   -1.574290
    150          1           0       34.072928    0.707245   -2.825247
    151          1           0       33.942932   -0.587629   -1.557385
    152          1           0       30.594489   -4.258695   -3.530536
    153          1           0       31.852656   -3.392100   -2.582352
    154          1           0       31.120507   -2.652643   -3.978163
    155          1           0       25.640026   -4.205302   -1.570912
    156          1           0       27.336796   -7.229219    1.268128
    157          1           0       25.587427   -7.676352    1.258734
    158          1           0       26.207020   -6.334098    2.232003
 ---------------------------------------------------------------------

 SCF Done:  E(RCAM-B3LYP) =  -4069.77501995     A.U. after   19 cycles

 Excitation energies and oscillator strengths:

 Excited State   1:      Singlet-A      1.6562 eV  748.62 nm  f=0.3585  <S**2>=0.000
     309 -> 315       -0.15661
     312 -> 313        0.69071
     309 <- 315       -0.10158
 This state for optimization and/or second-order correction.
 Total Energy, E(TD-HF/TD-DFT) =  -4069.71415719
 Copying the excited state density for this state as the 1-particle RhoCI density.

 Excited State   2:      Singlet-A      1.8653 eV  664.70 nm  f=0.3718  <S**2>=0.000
     310 -> 316        0.14281
     311 -> 314        0.68808

 Excited State   3:      Singlet-A      2.2638 eV  547.68 nm  f=0.1281  <S**2>=0.000
     310 -> 314        0.64674
     311 -> 316       -0.24684
     311 -> 317       -0.10326

 Excited State   4:      Singlet-A      2.2760 eV  544.75 nm  f=0.0760  <S**2>=0.000
     309 -> 313        0.61914
     312 -> 315        0.32531

 Excited State   5:      Singlet-A      3.1846 eV  389.32 nm  f=0.0000  <S**2>=0.000
     312 -> 314        0.70711

 The electronic state is 1-A.
 Alpha  occ. eigenvalues --  -46.89392 -46.89313 -19.25370 -19.24512 -19.20214
 Alpha  occ. eigenvalues --  -19.19866 -19.19430 -19.19084 -19.17710 -19.17082
 Alpha  occ. eigenvalues --  -14.42477 -14.42303 -14.42039 -14.41554 -14.40542
 Alpha  occ. eigenvalues --  -14.39734 -14.38750 -14.38480 -10.39143 -10.39081
 Alpha  occ. eigenvalues --  -10.37020 -10.35510 -10.33542 -10.33392 -10.33067
 Alpha  occ. eigenvalues --  -10.32409 -10.32136 -10.31942 -10.31711 -10.31661
 Alpha  occ. eigenvalues --  -10.31138 -10.31071 -10.31013 -10.30882 -10.30820
 Alpha  occ. eigenvalues --  -10.30509 -10.30346 -10.29794 -10.29786 -10.29155
 Alpha  occ. eigenvalues --  -10.29015 -10.28843 -10.28724 -10.28524 -10.28486
 Alpha  occ. eigenvalues --  -10.28404 -10.28400 -10.28381 -10.28337 -10.28289
 Alpha  occ. eigenvalues --  -10.28055 -10.28050 -10.27885 -10.27866 -10.27681
 Alpha  occ. eigenvalues --  -10.27644 -10.27617 -10.27564 -10.27507 -10.27412
 Alpha  occ. eigenvalues --  -10.27306 -10.27244 -10.27224 -10.27182 -10.27174
 Alpha  occ. eigenvalues --  -10.27144 -10.27129 -10.26946 -10.26929 -10.26928
 Alpha  occ. eigenvalues --  -10.26910 -10.26900 -10.26849 -10.26794 -10.26773
 Alpha  occ. eigenvalues --  -10.26746 -10.26435 -10.26399 -10.26266 -10.26041
 Alpha  occ. eigenvalues --  -10.25949 -10.25934 -10.25794 -10.25287 -10.23985
 Alpha  occ. eigenvalues --  -10.23093  -3.17830  -3.17800  -1.92714  -1.92673
 Alpha  occ. eigenvalues --   -1.92292  -1.92278  -1.92134  -1.92082  -1.16090
 Alpha  occ. eigenvalues --   -1.15454  -1.10694  -1.09793  -1.09135  -1.07899
 Alpha  occ. eigenvalues --   -1.07488  -1.06686  -1.04846  -1.04577  -1.04029
 Alpha  occ. eigenvalues --   -1.03832  -1.03184  -1.02829  -1.02540  -1.00359
 Alpha  occ. eigenvalues --   -0.91944  -0.91554  -0.89353  -0.89173  -0.88980
 Alpha  occ. eigenvalues --   -0.88614  -0.88487  -0.87960  -0.87049  -0.86830
 Alpha  occ. eigenvalues --   -0.86656  -0.86623  -0.86092  -0.85817  -0.84496
 Alpha  occ. eigenvalues --   -0.84382  -0.83707  -0.83626  -0.83198  -0.82738
 Alpha  occ. eigenvalues --   -0.82359  -0.82051  -0.80973  -0.80700  -0.80212
 Alpha  occ. eigenvalues --   -0.80174  -0.78029  -0.77763  -0.77635  -0.77153
 Alpha  occ. eigenvalues --   -0.76732  -0.76497  -0.76006  -0.75322  -0.75256
 Alpha  occ. eigenvalues --   -0.75134  -0.73038  -0.72385  -0.71688  -0.71686
 Alpha  occ. eigenvalues --   -0.69716  -0.69644  -0.69106  -0.69019  -0.67897
 Alpha  occ. eigenvalues --   -0.67615  -0.67346  -0.66917  -0.66193  -0.65605
 Alpha  occ. eigenvalues --   -0.65471  -0.65374  -0.64671  -0.64670  -0.64034
 Alpha  occ. eigenvalues --   -0.63548  -0.62126  -0.61696  -0.59963  -0.59632
 Alpha  occ. eigenvalues --   -0.59464  -0.59125  -0.59052  -0.59019  -0.58454
 Alpha  occ. eigenvalues --   -0.58032  -0.57834  -0.57505  -0.57382  -0.57204
 Alpha  occ. eigenvalues --   -0.56778  -0.56429  -0.56288  -0.55482  -0.55182
 Alpha  occ. eigenvalues --   -0.55033  -0.54575  -0.54249  -0.54176  -0.53916
 Alpha  occ. eigenvalues --   -0.53722  -0.53674  -0.53463  -0.53327  -0.53151
 Alpha  occ. eigenvalues --   -0.52864  -0.52708  -0.52556  -0.52299  -0.52002
 Alpha  occ. eigenvalues --   -0.51842  -0.51581  -0.51386  -0.51214  -0.51050
 Alpha  occ. eigenvalues --   -0.51021  -0.50795  -0.50658  -0.50521  -0.50146
 Alpha  occ. eigenvalues --   -0.50000  -0.49980  -0.49803  -0.49669  -0.49539
 Alpha  occ. eigenvalues --   -0.49443  -0.49020  -0.48951  -0.48785  -0.48698
 Alpha  occ. eigenvalues --   -0.48533  -0.48355  -0.48211  -0.48120  -0.47761
 Alpha  occ. eigenvalues --   -0.47610  -0.47575  -0.47355  -0.47169  -0.47158
 Alpha  occ. eigenvalues --   -0.46915  -0.46799  -0.46552  -0.46539  -0.46243
 Alpha  occ. eigenvalues --   -0.46181  -0.46124  -0.45952  -0.45719  -0.45466
 Alpha  occ. eigenvalues --   -0.45210  -0.45193  -0.45183  -0.45037  -0.44960
 Alpha  occ. eigenvalues --   -0.44871  -0.44657  -0.44449  -0.44269  -0.43995
 Alpha  occ. eigenvalues --   -0.43949  -0.43935  -0.43580  -0.43484  -0.43422
 Alpha  occ. eigenvalues --   -0.43402  -0.43075  -0.42829  -0.42738  -0.42698
 Alpha  occ. eigenvalues --   -0.42563  -0.42546  -0.42467  -0.42285  -0.42169
 Alpha  occ. eigenvalues --   -0.42127  -0.42030  -0.41931  -0.41753  -0.41594
 Alpha  occ. eigenvalues --   -0.41079  -0.40771  -0.40764  -0.40401  -0.40147
 Alpha  occ. eigenvalues --   -0.39925  -0.39856  -0.39357  -0.39262  -0.39090
 Alpha  occ. eigenvalues --   -0.38965  -0.38511  -0.38050  -0.37412  -0.37329
 Alpha  occ. eigenvalues --   -0.37102  -0.36588  -0.36478  -0.36350  -0.36319
 Alpha  occ. eigenvalues --   -0.35844  -0.35327  -0.34411  -0.34385  -0.34280
 Alpha  occ. eigenvalues --   -0.33831  -0.33070  -0.32698  -0.32432  -0.31871
 Alpha  occ. eigenvalues --   -0.31532  -0.31178  -0.30848  -0.30111  -0.29651
 Alpha  occ. eigenvalues --   -0.29438  -0.29239  -0.29092  -0.24460  -0.24058
 Alpha  occ. eigenvalues --   -0.21476  -0.20761
 Alpha virt. eigenvalues --   -0.08591  -0.08441  -0.01799  -0.01781   0.00125
 Alpha virt. eigenvalues --    0.00919   0.01464   0.01815   0.02002   0.02491
 Alpha virt. eigenvalues --    0.04879   0.05184   0.05401   0.05843   0.06104

 Mulliken charges:
               1
     1  Mg  11.999746
     2  C    6.034275
     3  C    6.005252
     4  C    5.958549
     5  C    5.994996
     6  N    7.026371
     7  C    5.970411
     8  C    6.004350
     9  C    5.997939
    10  C    6.010727
    11  C    5.997534
    12  C    6.001361
    13  C    6.006870
    14  H    0.997769
    15  N    6.986663
    16  C    6.038815
    17  C    6.028313
    18  C    5.999811
    19  C    6.056787
    20  C    5.993354
    21  C    6.011974
    22  O    8.015051
    23  C    5.997694
    24  N    6.988376
    25  C    6.048553
    26  C    5.986411
    27  C    6.012882
    28  C    5.968702
    29  C    6.000706
    30  C    6.007135
    31  C    5.998211
    32  N    7.001938
    33  C    5.963297
    34  C    5.975263
    35  C    5.997578
    36  C    5.958581
    37  C    6.000257
    38  C    5.985402
    39  O    7.965629
    40  C    5.991246
    41  C    5.995849
    42  O    7.999020
    43  O    7.997739
    44  C    6.000271
    45  H    1.015001
    46  H    1.004180
    47  H    0.981804
    48  H    1.005279
    49  H    0.999460
    50  H    1.005668
    51  H    1.015455
    52  H    0.996940
    53  H    1.002920
    54  H    0.991345
    55  H    0.988915
    56  H    1.007325
    57  H    1.019745
    58  H    1.015910
    59  H    1.020348
    60  H    1.010752
    61  H    1.011559
    62  H    1.007694
    63  H    1.001823
    64  H    0.993011
    65  H    0.997508
    66  H    0.995077
    67  H    1.010113
    68  H    1.006384
    69  H    0.990035
    70  H    0.994678
    71  H    0.993736
    72  H    1.002937
    73  H    0.982707
    74  H    0.982403
    75  H    0.985189
    76  H    0.994196
    77  H    0.995125
    78  H    0.995718
    79  H    1.001402
    80  Mg  12.000002
    81  C    6.000024
    82  C    6.000067
    83  C    5.999961
    84  C    5.999954
    85  N    6.999980
    86  C    5.999981
    87  C    6.000030
    88  C    5.999975
    89  C    5.999997
    90  C    5.999991
    91  C    6.000001
    92  C    5.999993
    93  H    1.000023
    94  N    6.999978
    95  C    5.999975
    96  C    6.000037
    97  C    5.999983
    98  C    6.000060
    99  C    5.999996
   100  C    6.000024
   101  O    8.000033
   102  C    5.999990
   103  N    7.000017
   104  C    6.000023
   105  C    5.999979
   106  C    6.000005
   107  C    5.999989
   108  C    6.000007
   109  C    6.000000
   110  C    6.000007
   111  N    7.000011
   112  C    6.000017
   113  C    5.999941
   114  C    6.000050
   115  C    5.999975
   116  C    5.999990
   117  C    5.999962
   118  O    7.999959
   119  C    5.999978
   120  C    6.000001
   121  O    7.999988
   122  O    8.000004
   123  C    6.000008
   124  H    1.000038
   125  H    0.999997
   126  H    0.999975
   127  H    1.000014
   128  H    1.000011
   129  H    1.000017
   130  H    1.000045
   131  H    1.000016
   132  H    0.999996
   133  H    0.999984
   134  H    0.999978
   135  H    1.000012
   136  H    1.000037
   137  H    1.000048
   138  H    1.000019
   139  H    1.000009
   140  H    0.999992
   141  H    1.000024
   142  H    0.999995
   143  H    1.000001
   144  H    1.000011
   145  H    1.000003
   146  H    0.999988
   147  H    0.999994
   148  H    0.999978
   149  H    0.999970
   150  H    1.000002
   151  H    1.000000
   152  H    0.999975
   153  H    0.999962
   154  H    0.999978
   155  H    1.000000
   156  H    0.999978
   157  H    0.999991
   158  H    0.999998
 Sum of Mulliken charges = 624.00000

 Dipole moment (field-independent basis, Debye):
    X=             -7.5218    Y=             -7.5085    Z=              1.0984  Tot=             10.6847
 Quadrupole moment (field-independent basis, Debye-Ang):
   XX=            424.2856   YY=              0.0901   ZZ=             -2.4519
   XY=            213.7470   XZ=            -30.3513   YZ=              5.7280

 Normal termination of Gaussian 16 at Tue Sep 21 19:50:20 2021.
