 Gaussian 16, Revision A.03,
 Gaussian 16:  ES64L-G16RevA.03 25-Dec-2016

 -----------------------------------
 #p cam-b3lyp/Def2SVP td=(nstates=5)
 -----------------------------------

 --------------------------------
 TDDFT excited states in gaussian
 --------------------------------
 Symbolic Z-matrix:
 Charge =  0 Multiplicity = 1

                         Standard orientation:
 ---------------------------------------------------------------------
 Center     Atomic      Atomic             Coordinates (Angstroms)
 Number     Number       Type             X           Y           Z
 ---------------------------------------------------------------------
      1         12           0        8.255302   -1.015405   -0.214370
      2          6           0       10.601606    1.687648   -0.190382
      3          6           0        5.876650    1.237216    0.739978
      4          6           0        6.272680   -3.453495    0.211716
      5          6           0       10.977598   -3.185158   -0.050252
      6          7           0        8.349568    1.159141    0.189497
      7          6           0        9.296497    2.088249    0.104329
      8          6           0        8.756740    3.538745    0.283485
      9          6           0        7.434601    3.214620    1.113479
     10          6           0        7.183291    1.798362    0.626674
     11          6           0        7.654806    3.183514    2.622467
     12          6           0        8.421083    4.221476   -1.085071
     13          6           0        8.201347    5.735825   -1.023283
     14          1           0        8.646771    6.554255   -2.140922
     15          7           0        6.284072   -1.057199   -0.090451
     16          6           0        5.475537   -0.043043    0.300758
     17          6           0        4.095661   -0.569098    0.224013
     18          6           0        4.180244   -2.028433   -0.061085
     19          6           0        5.601035   -2.245984    0.035881
     20          6           0        2.877893    0.291745    0.364523
     21          6           0        3.143942   -3.064813   -0.361295
     22          8           0        3.409106   -4.315454   -0.348649
     23          6           0        1.771710   -2.575696   -0.586652
     24          7           0        8.557588   -3.024412    0.265369
     25          6           0        7.531647   -3.880022    0.331397
     26          6           0        8.008933   -5.300002    0.407520
     27          6           0        9.581409   -5.253095    0.133898
     28          6           0        9.755942   -3.718338    0.022859
     29          6           0        7.743153   -6.025184    1.733975
     30          6           0       10.122224   -6.141900   -1.014128
     31          6           0        9.615952   -5.627804   -2.343223
     32          7           0       10.415554   -0.828482   -0.311399
     33          6           0       11.357157   -1.861581   -0.198412
     34          6           0       12.691289   -1.234034   -0.216936
     35          6           0       12.431007    0.130795   -0.323423
     36          6           0       11.023061    0.344413   -0.342124
     37          6           0       13.933942   -1.913823   -0.082261
     38          6           0       13.014500    1.460224   -0.400948
     39          8           0       14.159395    1.899170   -0.519412
     40          6           0       11.852997    2.529991   -0.195187
     41          6           0       11.996585    3.569759   -1.272951
     42          8           0       11.801709    3.280337   -2.471126
     43          8           0       12.105276    4.782491   -0.709030
     44          6           0       12.221315    5.863039   -1.724463
     45          1           0        5.103306    1.802007    1.264278
     46          1           0        5.626328   -4.332739    0.251678
     47          1           0       11.874983   -3.805418   -0.088087
     48          1           0        9.406292    4.197398    0.860271
     49          1           0        6.606998    3.864930    0.830827
     50          1           0        8.712776    3.261968    2.872399
     51          1           0        7.255046    2.225424    2.955256
     52          1           0        7.054085    3.947023    3.117407
     53          1           0        7.431113    3.903549   -1.412092
     54          1           0        9.189526    3.998618   -1.826121
     55          1           0        8.556120    6.151887   -0.079917
     56          1           0        7.127896    5.925174   -1.016203
     57          1           0        3.130234    1.285586    0.732148
     58          1           0        2.269320   -0.144383    1.156444
     59          1           0        2.300404    0.339607   -0.558812
     60          1           0        1.432201   -2.036109    0.297727
     61          1           0        1.185395   -3.447344   -0.875293
     62          1           0        1.784417   -1.851384   -1.401612
     63          1           0        7.531850   -5.914322   -0.354994
     64          1           0       10.157687   -5.564635    1.005403
     65          1           0        7.168837   -6.945217    1.622597
     66          1           0        7.239813   -5.328654    2.403891
     67          1           0        8.636458   -6.270523    2.307762
     68          1           0        9.759196   -7.163401   -0.906001
     69          1           0       11.210955   -6.179232   -1.053155
     70          1           0        8.628128   -6.080868   -2.419177
     71          1           0       10.263521   -5.965151   -3.153200
     72          1           0        9.478021   -4.546535   -2.325416
     73          1           0       14.601716   -1.478873   -0.825810
     74          1           0       13.816941   -2.986588   -0.234210
     75          1           0       14.190593   -1.663409    0.946952
     76          1           0       11.987607    2.951231    0.800583
     77          1           0       13.135002    6.414766   -1.503089
     78          1           0       11.280135    6.412620   -1.701071
     79          1           0       12.417070    5.543165   -2.748524
     80         12           0       -8.774967   -0.447848   -0.219456
     81          6           0       -7.060896    2.542263    0.571836
     82          6           0      -11.067551    1.433778   -1.931945
     83          6           0      -10.703780   -3.133970   -0.399048
     84          6           0       -6.624917   -2.141892    1.962048
     85          7           0       -9.117806    1.764811   -0.492860
     86          6           0       -8.203453    2.768168   -0.161236
     87          6           0       -8.579556    4.084477   -0.885198
     88          6           0       -9.887527    3.702781   -1.670029
     89          6           0      -10.059261    2.180944   -1.407342
     90          6           0      -11.093827    4.607392   -1.488303
     91          6           0       -7.499465    4.705636   -1.784539
     92          6           0       -7.165733    6.183117   -1.439929
     93          1           0       -7.309891    7.165625   -2.580924
     94          7           0      -10.602113   -0.794760   -1.138918
     95          6           0      -11.427595    0.089564   -1.768975
     96          6           0      -12.499304   -0.665372   -2.373369
     97          6           0      -12.486315   -2.008697   -1.800696
     98          6           0      -11.232985   -1.980050   -1.062472
     99          6           0      -13.655222    0.028527   -3.263811
    100          6           0      -13.532097   -3.032064   -1.681170
    101          8           0      -13.432939   -4.122726   -1.195498
    102          6           0      -14.903925   -2.649438   -2.228623
    103          7           0       -8.763748   -2.325131    0.851629
    104          6           0       -9.650723   -3.288227    0.533953
    105          6           0       -9.225898   -4.632904    1.128670
    106          6           0       -7.772527   -4.371561    1.555449
    107          6           0       -7.667844   -2.868421    1.425142
    108          6           0      -10.154812   -5.045425    2.360974
    109          6           0       -6.791657   -5.093333    0.497873
    110          6           0       -6.700043   -4.424985   -0.901108
    111          7           0       -7.073187   -0.016214    0.962773
    112          6           0       -6.327519   -0.798437    1.759836
    113          6           0       -5.283160    0.008886    2.330862
    114          6           0       -5.503271    1.289021    1.858170
    115          6           0       -6.654027    1.266916    1.065415
    116          6           0       -4.171170   -0.395243    3.280040
    117          6           0       -4.967550    2.646623    1.989389
    118          8           0       -4.129590    3.223999    2.622970
    119          6           0       -5.904463    3.505696    1.099680
    120          6           0       -6.470135    4.540248    2.000836
    121          8           0       -7.041915    4.242519    3.019354
    122          8           0       -6.194222    5.836519    1.596510
    123          6           0       -6.467994    6.919846    2.599105
    124          1           0      -11.665846    2.010099   -2.640885
    125          1           0      -11.238679   -4.078332   -0.522731
    126          1           0       -5.790289   -2.618164    2.480772
    127          1           0       -8.893937    4.814343   -0.138879
    128          1           0       -9.696387    3.857291   -2.732138
    129          1           0      -10.980778    5.243273   -0.611497
    130          1           0      -12.040692    4.070264   -1.427668
    131          1           0      -11.084785    5.286974   -2.340097
    132          1           0       -7.697978    4.768222   -2.854494
    133          1           0       -6.575467    4.130403   -1.730492
    134          1           0       -6.202291    6.268272   -0.937413
    135          1           0       -7.900313    6.521856   -0.710457
    136          1           0      -13.771830   -0.560151   -4.173667
    137          1           0      -13.452691    1.040087   -3.613671
    138          1           0      -14.636785    0.186539   -2.817032
    139          1           0      -14.712453   -2.486776   -3.289533
    140          1           0      -15.162850   -1.729246   -1.705835
    141          1           0      -15.658264   -3.433655   -2.157652
    142          1           0       -9.192272   -5.441722    0.397976
    143          1           0       -7.446383   -4.600990    2.570134
    144          1           0      -10.166537   -6.135140    2.395300
    145          1           0      -11.201155   -4.738286    2.352032
    146          1           0       -9.625155   -4.656537    3.230508
    147          1           0       -7.026432   -6.148101    0.356230
    148          1           0       -5.757745   -4.975065    0.822418
    149          1           0       -6.177666   -5.002804   -1.662834
    150          1           0       -6.155377   -3.488444   -0.780328
    151          1           0       -7.717120   -4.199780   -1.223599
    152          1           0       -3.471847   -1.123130    2.869294
    153          1           0       -4.702305   -0.856399    4.112295
    154          1           0       -3.644720    0.461360    3.700933
    155          1           0       -5.216636    3.973757    0.395697
    156          1           0       -6.949241    7.638739    1.936012
    157          1           0       -5.560171    7.355472    3.016052
    158          1           0       -7.088851    6.717721    3.471549
 ---------------------------------------------------------------------

 SCF Done:  E(RCAM-B3LYP) =  -4069.82344104     A.U. after   19 cycles

 Excitation energies and oscillator strengths:

 Excited State   1:      Singlet-A      1.6728 eV  741.16 nm  f=0.6773  <S**2>=0.000
     310 -> 315        0.15757
     311 -> 313       -0.28790
     312 -> 314        0.62332
 This state for optimization and/or second-order correction.
 Total Energy, E(TD-HF/TD-DFT) =  -4069.76196519
 Copying the excited state density for this state as the 1-particle RhoCI density.

 Excited State   2:      Singlet-A      1.7083 eV  725.77 nm  f=0.1543  <S**2>=0.000
     309 -> 316        0.16069
     311 -> 313        0.62416
     312 -> 314        0.28583

 Excited State   3:      Singlet-A      2.1897 eV  566.22 nm  f=0.0179  <S**2>=0.000
     309 -> 313        0.54036
     310 -> 314       -0.36574
     311 -> 316       -0.20291
     312 -> 315        0.15711

 Excited State   4:      Singlet-A      2.1935 eV  565.23 nm  f=0.2108  <S**2>=0.000
     309 -> 313        0.37394
     310 -> 314        0.52614
     311 -> 316       -0.14230
     312 -> 315       -0.22903

 Excited State   5:      Singlet-A      2.6273 eV  471.90 nm  f=0.0000  <S**2>=0.000
     312 -> 313        0.70682

 The electronic state is 1-A.
 Alpha  occ. eigenvalues --  -46.89725 -46.87730 -19.26219 -19.25369 -19.19860
 Alpha  occ. eigenvalues --  -19.19500 -19.18956 -19.18790 -19.18556 -19.18105
 Alpha  occ. eigenvalues --  -14.42379 -14.42295 -14.42094 -14.41384 -14.39951
 Alpha  occ. eigenvalues --  -14.39422 -14.39338 -14.38521 -10.39017 -10.39015
 Alpha  occ. eigenvalues --  -10.35426 -10.35403 -10.34528 -10.34325 -10.32030
 Alpha  occ. eigenvalues --  -10.31707 -10.31615 -10.31326 -10.30954 -10.30952
 Alpha  occ. eigenvalues --  -10.30913 -10.30833 -10.30497 -10.30451 -10.30427
 Alpha  occ. eigenvalues --  -10.30157 -10.30145 -10.29865 -10.29814 -10.29566
 Alpha  occ. eigenvalues --  -10.29529 -10.29348 -10.29187 -10.28869 -10.28660
 Alpha  occ. eigenvalues --  -10.28446 -10.28418 -10.28295 -10.28231 -10.28216
 Alpha  occ. eigenvalues --  -10.28132 -10.28032 -10.28016 -10.27966 -10.27725
 Alpha  occ. eigenvalues --  -10.27690 -10.27645 -10.27548 -10.27521 -10.27455
 Alpha  occ. eigenvalues --  -10.27408 -10.27347 -10.27336 -10.27172 -10.27146
 Alpha  occ. eigenvalues --  -10.27091 -10.26821 -10.26735 -10.26710 -10.26618
 Alpha  occ. eigenvalues --  -10.26449 -10.26441 -10.26414 -10.26148 -10.26123
 Alpha  occ. eigenvalues --  -10.26120 -10.26091 -10.25955 -10.25786 -10.25735
 Alpha  occ. eigenvalues --  -10.25400 -10.25251 -10.25198 -10.24766 -10.24728
 Alpha  occ. eigenvalues --  -10.24655  -3.18127  -3.16473  -1.93010  -1.92596
 Alpha  occ. eigenvalues --   -1.92421  -1.91355  -1.90941  -1.90784  -1.16568
 Alpha  occ. eigenvalues --   -1.15914  -1.11928  -1.11221  -1.08563  -1.07846
 Alpha  occ. eigenvalues --   -1.07194  -1.06578  -1.05366  -1.04509  -1.04472
 Alpha  occ. eigenvalues --   -1.04015  -1.03696  -1.03169  -1.02346  -1.02183
 Alpha  occ. eigenvalues --   -0.92565  -0.91904  -0.89465  -0.89098  -0.89033
 Alpha  occ. eigenvalues --   -0.88999  -0.88394  -0.88234  -0.87914  -0.87805
 Alpha  occ. eigenvalues --   -0.87598  -0.87207  -0.86755  -0.86501  -0.84904
 Alpha  occ. eigenvalues --   -0.84604  -0.83889  -0.83663  -0.82926  -0.82675
 Alpha  occ. eigenvalues --   -0.82581  -0.81520  -0.81393  -0.81055  -0.80534
 Alpha  occ. eigenvalues --   -0.80335  -0.78724  -0.78563  -0.77599  -0.77149
 Alpha  occ. eigenvalues --   -0.76972  -0.76861  -0.76341  -0.75843  -0.75390
 Alpha  occ. eigenvalues --   -0.74841  -0.73301  -0.72706  -0.71941  -0.71603
 Alpha  occ. eigenvalues --   -0.69860  -0.69506  -0.69387  -0.68799  -0.68266
 Alpha  occ. eigenvalues --   -0.67582  -0.67488  -0.67150  -0.65664  -0.65485
 Alpha  occ. eigenvalues --   -0.65335  -0.65209  -0.64787  -0.64628  -0.64555
 Alpha  occ. eigenvalues --   -0.64212  -0.62493  -0.62233  -0.60586  -0.60381
 Alpha  occ. eigenvalues --   -0.59914  -0.59723  -0.59488  -0.58934  -0.58922
 Alpha  occ. eigenvalues --   -0.58437  -0.58330  -0.57719  -0.57519  -0.57252
 Alpha  occ. eigenvalues --   -0.56239  -0.56175  -0.55909  -0.55576  -0.55463
 Alpha  occ. eigenvalues --   -0.55365  -0.55286  -0.54751  -0.54467  -0.54410
 Alpha  occ. eigenvalues --   -0.53810  -0.53615  -0.53242  -0.53153  -0.53150
 Alpha  occ. eigenvalues --   -0.52850  -0.52833  -0.52691  -0.52575  -0.52395
 Alpha  occ. eigenvalues --   -0.52295  -0.52076  -0.51854  -0.51705  -0.51542
 Alpha  occ. eigenvalues --   -0.51476  -0.51131  -0.50959  -0.50510  -0.50248
 Alpha  occ. eigenvalues --   -0.49978  -0.49975  -0.49863  -0.49710  -0.49555
 Alpha  occ. eigenvalues --   -0.49489  -0.49449  -0.49204  -0.49145  -0.49015
 Alpha  occ. eigenvalues --   -0.48583  -0.48522  -0.48437  -0.48410  -0.48391
 Alpha  occ. eigenvalues --   -0.48117  -0.47756  -0.47635  -0.47624  -0.47224
 Alpha  occ. eigenvalues --   -0.47213  -0.46728  -0.46640  -0.46476  -0.46355
 Alpha  occ. eigenvalues --   -0.46291  -0.46282  -0.46102  -0.46086  -0.45762
 Alpha  occ. eigenvalues --   -0.45756  -0.45476  -0.45319  -0.45148  -0.44692
 Alpha  occ. eigenvalues --   -0.44514  -0.44450  -0.44228  -0.44084  -0.44009
 Alpha  occ. eigenvalues --   -0.43958  -0.43850  -0.43568  -0.43513  -0.43429
 Alpha  occ. eigenvalues --   -0.43314  -0.43274  -0.43104  -0.42958  -0.42640
 Alpha  occ. eigenvalues --   -0.42604  -0.42600  -0.42467  -0.42267  -0.42138
 Alpha  occ. eigenvalues --   -0.41950  -0.41646  -0.41639  -0.41502  -0.41456
 Alpha  occ. eigenvalues --   -0.41102  -0.41069  -0.40803  -0.40779  -0.40514
 Alpha  occ. eigenvalues --   -0.40466  -0.40154  -0.39914  -0.39397  -0.39215
 Alpha  occ. eigenvalues --   -0.38519  -0.38413  -0.38250  -0.38029  -0.37669
 Alpha  occ. eigenvalues --   -0.37261  -0.37210  -0.37186  -0.36652  -0.36559
 Alpha  occ. eigenvalues --   -0.36436  -0.36130  -0.34587  -0.34300  -0.34220
 Alpha  occ. eigenvalues --   -0.33706  -0.33584  -0.33121  -0.31807  -0.31462
 Alpha  occ. eigenvalues --   -0.31320  -0.30971  -0.30578  -0.30470  -0.30333
 Alpha  occ. eigenvalues --   -0.29965  -0.29386  -0.29257  -0.24358  -0.24013
 Alpha  occ. eigenvalues --   -0.21763  -0.21060
 Alpha virt. eigenvalues --   -0.09360  -0.08708  -0.01689  -0.01605  -0.00000
 Alpha virt. eigenvalues --    0.00354   0.01507   0.02260   0.02316   0.03179
 Alpha virt. eigenvalues --    0.04794   0.05115   0.05163   0.05470   0.06194

 Mulliken charges:
               1
     1  Mg   0.838613
     2  C   -0.002899
     3  C   -0.093818
     4  C   -0.046088
     5  C   -0.064086
     6  N   -0.256759
     7  C   -0.052473
     8  C   -0.014051
     9  C   -0.087003
    10  C    0.046035
    11  C    0.104673
    12  C    0.053409
    13  C   -0.071842
    14  H    0.035829
    15  N   -0.433162
    16  C    0.168149
    17  C   -0.176813
    18  C   -0.004408
    19  C    0.148891
    20  C    0.109853
    21  C    0.012060
    22  O   -0.250270
    23  C    0.062519
    24  N   -0.341164
    25  C    0.041360
    26  C   -0.028141
    27  C   -0.023936
    28  C    0.074797
    29  C    0.076210
    30  C    0.035182
    31  C   -0.004437
    32  N   -0.310426
    33  C    0.080353
    34  C   -0.169853
    35  C    0.008347
    36  C    0.082898
    37  C    0.127337
    38  C    0.046043
    39  O   -0.188588
    40  C   -0.005275
    41  C    0.212856
    42  O   -0.257188
    43  O   -0.304733
    44  C    0.157731
    45  H   -0.016343
    46  H   -0.017262
    47  H   -0.041681
    48  H    0.000958
    49  H   -0.003407
    50  H    0.025257
    51  H    0.016569
    52  H    0.017410
    53  H    0.011283
    54  H    0.043907
    55  H    0.017978
    56  H    0.018361
    57  H    0.007598
    58  H    0.027771
    59  H    0.039537
    60  H    0.037675
    61  H    0.034016
    62  H    0.031703
    63  H    0.016250
    64  H    0.009403
    65  H    0.022853
    66  H    0.012639
    67  H    0.004744
    68  H    0.006140
    69  H    0.004704
    70  H    0.008554
    71  H    0.018015
    72  H    0.029111
    73  H    0.047442
    74  H    0.008965
    75  H    0.045962
    76  H    0.035218
    77  H    0.042853
    78  H    0.046516
    79  H    0.053571
    80  Mg   0.813181
    81  C   -0.023630
    82  C   -0.077221
    83  C   -0.061715
    84  C   -0.064141
    85  N   -0.302517
    86  C   -0.035213
    87  C    0.006872
    88  C   -0.058775
    89  C    0.051000
    90  C    0.068813
    91  C    0.056882
    92  C   -0.088806
    93  H    0.008711
    94  N   -0.363195
    95  C    0.161488
    96  C   -0.116747
    97  C   -0.041238
    98  C    0.130765
    99  C    0.062435
   100  C   -0.022133
   101  O   -0.175887
   102  C    0.054513
   103  N   -0.263279
   104  C    0.030269
   105  C   -0.035423
   106  C   -0.014543
   107  C    0.032413
   108  C    0.066439
   109  C    0.004412
   110  C   -0.014646
   111  N   -0.320524
   112  C    0.064888
   113  C   -0.163271
   114  C   -0.035565
   115  C    0.139935
   116  C    0.116614
   117  C    0.067901
   118  O   -0.138249
   119  C    0.004251
   120  C    0.181212
   121  O   -0.201251
   122  O   -0.351367
   123  C    0.165132
   124  H   -0.033784
   125  H   -0.000502
   126  H   -0.031137
   127  H    0.018662
   128  H    0.008286
   129  H    0.008672
   130  H    0.022685
   131  H    0.009548
   132  H    0.019305
   133  H    0.008526
   134  H    0.045506
   135  H    0.015875
   136  H    0.027573
   137  H    0.004074
   138  H    0.033663
   139  H    0.022038
   140  H    0.036865
   141  H    0.023055
   142  H    0.017014
   143  H    0.013142
   144  H    0.017852
   145  H    0.035628
   146  H    0.016298
   147  H    0.020871
   148  H    0.002383
   149  H    0.024364
   150  H    0.020942
   151  H    0.020914
   152  H    0.027797
   153  H    0.020663
   154  H    0.035147
   155  H    0.032766
   156  H    0.036206
   157  H    0.043574
   158  H    0.056740
 Sum of Mulliken charges =  -0.00000

 Dipole moment (field-independent basis, Debye):
    X=             -4.6029    Y=              1.6320    Z=             -1.0473  Tot=              4.9947
 Quadrupole moment (field-independent basis, Debye-Ang):
   XX=           -583.7575   YY=           -476.0418   ZZ=           -517.0535
   XY=            -45.4161   XZ=             53.0229   YZ=            -10.2694

 Normal termination of Gaussian 16 at Wed Sep  1 15:31:58 2021.
