 Gaussian 16, Revision A.03,
 Gaussian 16:  ES64L-G16RevA.03 25-Dec-2016

 -----------------------------------
 #p cam-b3lyp/Def2SVP td=(nstates=5)
 -----------------------------------

 --------------------------------
 TDDFT excited states in gaussian
 --------------------------------
 Symbolic Z-matrix:
 Charge =  0 Multiplicity = 1

                         Standard orientation:
 ---------------------------------------------------------------------
 Center     Atomic      Atomic             Coordinates (Angstroms)
 Number     Number       Type             X           Y           Z
 ---------------------------------------------------------------------
      1         12           0      -19.651860    0.808616    0.384481
      2          6           0      -18.907790   -2.094485   -1.578473
      3          6           0      -20.632543   -1.436839    2.922149
      4          6           0      -21.040190    3.273306    2.028259
      5          6           0      -18.989689    2.754152   -2.324557
      6          7           0      -19.694888   -1.492361    0.623385
      7          6           0      -19.235701   -2.379179   -0.292038
      8          6           0      -19.221133   -3.762465    0.337362
      9          6           0      -19.736794   -3.630914    1.798166
     10          6           0      -20.012088   -2.114980    1.816566
     11          6           0      -21.024709   -4.577393    2.126030
     12          6           0      -17.776419   -4.423244    0.336487
     13          6           0      -17.685233   -5.868180   -0.155234
     14          1           0      -18.867141   -6.889366    0.091987
     15          7           0      -20.749829    0.895520    2.216593
     16          6           0      -20.992353   -0.085202    3.060234
     17          6           0      -21.736223    0.467063    4.157098
     18          6           0      -21.775299    1.880549    4.051501
     19          6           0      -21.220006    2.062092    2.735892
     20          6           0      -22.110682   -0.347769    5.394025
     21          6           0      -22.161833    3.007093    4.996950
     22          8           0      -22.180429    4.177073    4.661061
     23          6           0      -22.467576    2.605491    6.413699
     24          7           0      -20.278454    2.656066   -0.240973
     25          6           0      -20.658452    3.590360    0.724322
     26          6           0      -20.557628    5.057323    0.224967
     27          6           0      -19.744067    4.814541   -1.101882
     28          6           0      -19.650880    3.295724   -1.247615
     29          6           0      -21.953317    5.674508    0.054391
     30          6           0      -18.246765    5.380608   -1.047740
     31          6           0      -17.928501    6.624327   -1.807922
     32          7           0      -18.973575    0.464128   -1.484901
     33          6           0      -18.781088    1.374403   -2.501607
     34          6           0      -18.426637    0.741303   -3.769204
     35          6           0      -18.456558   -0.664335   -3.455410
     36          6           0      -18.907622   -0.773635   -2.118819
     37          6           0      -17.943775    1.478593   -4.965526
     38          6           0      -18.163521   -2.000850   -3.949772
     39          8           0      -17.724003   -2.306185   -5.073347
     40          6           0      -18.481707   -3.033380   -2.725011
     41          6           0      -19.548729   -3.885717   -3.225142
     42          8           0      -20.608137   -3.466415   -3.637195
     43          8           0      -19.214529   -5.179926   -3.159553
     44          6           0      -20.113581   -6.263991   -3.665776
     45          1           0      -20.880786   -2.081389    3.767851
     46          1           0      -21.080763    4.179404    2.637441
     47          1           0      -18.708084    3.424458   -3.138992
     48          1           0      -19.927394   -4.374712   -0.223419
     49          1           0      -19.005470   -3.989262    2.522832
     50          1           0      -21.073348   -5.419364    1.435442
     51          1           0      -21.885513   -3.914060    2.037833
     52          1           0      -20.964488   -4.935526    3.153623
     53          1           0      -17.240454   -4.364182    1.282786
     54          1           0      -17.133122   -3.873727   -0.350648
     55          1           0      -16.788034   -6.363189    0.216983
     56          1           0      -17.505686   -5.744460   -1.223208
     57          1           0      -21.419313   -0.234866    6.229274
     58          1           0      -22.307338   -1.390789    5.144132
     59          1           0      -23.087361    0.018620    5.709377
     60          1           0      -21.806522    1.847522    6.835007
     61          1           0      -23.476245    2.227381    6.574233
     62          1           0      -22.212763    3.432645    7.076311
     63          1           0      -20.001569    5.616720    0.976785
     64          1           0      -20.283888    5.297443   -1.916543
     65          1           0      -22.764908    5.079255    0.472604
     66          1           0      -22.211717    5.799885   -0.996503
     67          1           0      -21.966847    6.662228    0.516344
     68          1           0      -17.482358    4.686805   -1.397581
     69          1           0      -17.897910    5.545076   -0.028920
     70          1           0      -17.638499    7.420211   -1.123132
     71          1           0      -18.870786    6.852664   -2.306328
     72          1           0      -17.105162    6.448563   -2.500186
     73          1           0      -17.193961    0.905107   -5.509438
     74          1           0      -17.633583    2.461711   -4.611943
     75          1           0      -18.808534    1.613377   -5.616675
     76          1           0      -17.617471   -3.649861   -2.481417
     77          1           0      -20.437753   -6.020985   -4.677856
     78          1           0      -21.005768   -6.389951   -3.051901
     79          1           0      -19.682684   -7.261922   -3.589626
     80         12           0       20.343325    0.531379    0.014713
     81          6           0       17.801887   -1.884132    0.048874
     82          6           0       22.473709   -1.835977    1.322879
     83          6           0       22.710459    2.830985    0.001798
     84          6           0       17.986842    2.852402   -1.169572
     85          7           0       20.121631   -1.615480    0.513992
     86          6           0       18.993017   -2.434745    0.481604
     87          6           0       19.329882   -3.968467    0.648576
     88          6           0       20.743205   -3.837683    1.182542
     89          6           0       21.167698   -2.322763    0.993950
     90          6           0       20.785943   -4.143031    2.749767
     91          6           0       19.342641   -4.525108   -0.844076
     92          6           0       18.675443   -5.948928   -1.092439
     93          1           0       18.877643   -6.822242    0.119380
     94          7           0       22.221570    0.529049    0.706187
     95          6           0       22.920246   -0.487746    1.203265
     96          6           0       24.278216   -0.127443    1.514354
     97          6           0       24.443372    1.165882    0.980298
     98          6           0       23.055576    1.604384    0.572758
     99          6           0       25.285743   -0.996365    2.173572
    100          6           0       25.700099    1.975566    0.735931
    101          8           0       25.718474    2.989821    0.029282
    102          6           0       26.996819    1.610678    1.463919
    103          7           0       20.310760    2.595258   -0.476706
    104          6           0       21.506909    3.272470   -0.444076
    105          6           0       21.295971    4.654233   -1.059388
    106          6           0       19.771634    4.640838   -1.564885
    107          6           0       19.311107    3.279070   -1.115617
    108          6           0       21.714389    5.764308   -0.031631
    109          6           0       19.532121    4.932555   -3.037958
    110          6           0       18.484851    6.061424   -3.293021
    111          7           0       18.312940    0.504020   -0.439890
    112          6           0       17.461524    1.555158   -0.904470
    113          6           0       16.129280    1.086127   -1.044545
    114          6           0       16.237890   -0.265964   -0.678100
    115          6           0       17.564373   -0.531381   -0.279305
    116          6           0       14.892785    1.783373   -1.512909
    117          6           0       15.522348   -1.493178   -0.533491
    118          8           0       14.360408   -1.789184   -0.685207
    119          6           0       16.550296   -2.599201   -0.162261
    120          6           0       16.020370   -3.384522    0.982032
    121          8           0       15.901831   -3.022252    2.149140
    122          8           0       15.740404   -4.605468    0.515872
    123          6           0       15.282618   -5.585888    1.477936
    124          1           0       23.281800   -2.514016    1.604741
    125          1           0       23.534566    3.548112    0.033434
    126          1           0       17.236489    3.522448   -1.594537
    127          1           0       18.492014   -4.378701    1.211455
    128          1           0       21.420078   -4.476732    0.616468
    129          1           0       19.799106   -4.362295    3.157892
    130          1           0       21.193620   -3.268768    3.256908
    131          1           0       21.467208   -4.989804    2.833881
    132          1           0       20.345902   -4.631186   -1.255705
    133          1           0       18.857417   -3.762655   -1.454001
    134          1           0       19.235532   -6.508749   -1.841530
    135          1           0       17.691686   -5.855159   -1.553088
    136          1           0       26.039540   -1.223657    1.418532
    137          1           0       24.847653   -1.939324    2.497715
    138          1           0       25.768044   -0.526709    3.030325
    139          1           0       27.532241    2.554349    1.362037
    140          1           0       27.522917    0.758440    1.032170
    141          1           0       26.940701    1.464420    2.542437
    142          1           0       21.912100    4.882890   -1.928939
    143          1           0       19.213745    5.377067   -0.986097
    144          1           0       22.315132    6.476127   -0.597889
    145          1           0       22.236167    5.382105    0.845791
    146          1           0       20.873539    6.415081    0.211183
    147          1           0       19.235555    4.063632   -3.624590
    148          1           0       20.464672    5.392722   -3.367649
    149          1           0       18.188739    6.531725   -2.355204
    150          1           0       17.531167    5.656707   -3.631224
    151          1           0       18.879926    6.824554   -3.963896
    152          1           0       15.075357    1.837435   -2.586506
    153          1           0       14.841728    2.724591   -0.965990
    154          1           0       13.995755    1.181914   -1.372522
    155          1           0       16.510867   -3.269666   -1.021798
    156          1           0       14.425520   -5.195869    2.027620
    157          1           0       15.978288   -5.856414    2.272982
    158          1           0       14.988975   -6.461742    0.899076
 ---------------------------------------------------------------------

 SCF Done:  E(RCAM-B3LYP) =  -4069.83085963     A.U. after   19 cycles

 Excitation energies and oscillator strengths:

 Excited State   1:      Singlet-A      1.6834 eV  736.50 nm  f=0.4050  <S**2>=0.000
     310 -> 316        0.17291
     312 -> 313        0.68695
     310 <- 316        0.10714
 This state for optimization and/or second-order correction.
 Total Energy, E(TD-HF/TD-DFT) =  -4069.76899487
 Copying the excited state density for this state as the 1-particle RhoCI density.

 Excited State   2:      Singlet-A      1.7259 eV  718.39 nm  f=0.3827  <S**2>=0.000
     309 -> 315       -0.16128
     311 -> 314        0.68772

 Excited State   3:      Singlet-A      2.1993 eV  563.73 nm  f=0.1316  <S**2>=0.000
     310 -> 313        0.65029
     312 -> 316       -0.26294

 Excited State   4:      Singlet-A      2.2842 eV  542.80 nm  f=0.1221  <S**2>=0.000
     309 -> 314        0.63702
     311 -> 315        0.28303

 Excited State   5:      Singlet-A      3.1268 eV  396.52 nm  f=0.0000  <S**2>=0.000
     312 -> 314        0.70710

 The electronic state is 1-A.
 Alpha  occ. eigenvalues --  -46.88582 -46.87772 -19.25265 -19.25225 -19.19923
 Alpha  occ. eigenvalues --  -19.19494 -19.18974 -19.18799 -19.18481 -19.17409
 Alpha  occ. eigenvalues --  -14.42244 -14.41841 -14.41675 -14.41624 -14.40225
 Alpha  occ. eigenvalues --  -14.39336 -14.39050 -14.38472 -10.38464 -10.38319
 Alpha  occ. eigenvalues --  -10.36239 -10.35752 -10.35422 -10.33158 -10.32505
 Alpha  occ. eigenvalues --  -10.31908 -10.31372 -10.31294 -10.31017 -10.30706
 Alpha  occ. eigenvalues --  -10.30684 -10.30631 -10.30481 -10.30453 -10.30231
 Alpha  occ. eigenvalues --  -10.30119 -10.29612 -10.29547 -10.29141 -10.29069
 Alpha  occ. eigenvalues --  -10.29011 -10.28988 -10.28916 -10.28708 -10.28527
 Alpha  occ. eigenvalues --  -10.28443 -10.28343 -10.28170 -10.28144 -10.27982
 Alpha  occ. eigenvalues --  -10.27982 -10.27897 -10.27831 -10.27761 -10.27689
 Alpha  occ. eigenvalues --  -10.27578 -10.27553 -10.27532 -10.27529 -10.27148
 Alpha  occ. eigenvalues --  -10.27099 -10.27078 -10.27049 -10.26966 -10.26699
 Alpha  occ. eigenvalues --  -10.26634 -10.26625 -10.26537 -10.26534 -10.26390
 Alpha  occ. eigenvalues --  -10.26227 -10.26188 -10.26167 -10.26036 -10.26028
 Alpha  occ. eigenvalues --  -10.26024 -10.25891 -10.25803 -10.25768 -10.25713
 Alpha  occ. eigenvalues --  -10.25540 -10.25530 -10.25428 -10.25426 -10.24982
 Alpha  occ. eigenvalues --  -10.23587  -3.17210  -3.16482  -1.92076  -1.91671
 Alpha  occ. eigenvalues --   -1.91521  -1.91391  -1.90917  -1.90813  -1.17106
 Alpha  occ. eigenvalues --   -1.16524  -1.10809  -1.10359  -1.09373  -1.08400
 Alpha  occ. eigenvalues --   -1.07332  -1.07090  -1.04988  -1.04612  -1.03917
 Alpha  occ. eigenvalues --   -1.03472  -1.03107  -1.02925  -1.02348  -1.01847
 Alpha  occ. eigenvalues --   -0.92655  -0.92125  -0.89647  -0.88598  -0.88486
 Alpha  occ. eigenvalues --   -0.88425  -0.88227  -0.88059  -0.87980  -0.87071
 Alpha  occ. eigenvalues --   -0.87037  -0.86985  -0.86640  -0.86369  -0.84190
 Alpha  occ. eigenvalues --   -0.84087  -0.83959  -0.83531  -0.82627  -0.82357
 Alpha  occ. eigenvalues --   -0.81847  -0.81798  -0.81276  -0.81249  -0.80660
 Alpha  occ. eigenvalues --   -0.80382  -0.78910  -0.78229  -0.77638  -0.77428
 Alpha  occ. eigenvalues --   -0.76830  -0.76769  -0.76242  -0.75605  -0.74983
 Alpha  occ. eigenvalues --   -0.74806  -0.73106  -0.72448  -0.71409  -0.71378
 Alpha  occ. eigenvalues --   -0.69189  -0.68874  -0.68714  -0.67763  -0.67613
 Alpha  occ. eigenvalues --   -0.67611  -0.67393  -0.66936  -0.65520  -0.65418
 Alpha  occ. eigenvalues --   -0.65247  -0.65124  -0.65018  -0.64587  -0.64509
 Alpha  occ. eigenvalues --   -0.64463  -0.62479  -0.62387  -0.60792  -0.60466
 Alpha  occ. eigenvalues --   -0.59598  -0.59193  -0.59143  -0.58780  -0.58632
 Alpha  occ. eigenvalues --   -0.58453  -0.58006  -0.57769  -0.57435  -0.57304
 Alpha  occ. eigenvalues --   -0.56645  -0.56047  -0.55722  -0.55668  -0.55332
 Alpha  occ. eigenvalues --   -0.55127  -0.54465  -0.54330  -0.53828  -0.53541
 Alpha  occ. eigenvalues --   -0.53466  -0.53280  -0.53168  -0.52954  -0.52880
 Alpha  occ. eigenvalues --   -0.52598  -0.52584  -0.52546  -0.52324  -0.52158
 Alpha  occ. eigenvalues --   -0.52056  -0.51775  -0.51319  -0.51249  -0.51154
 Alpha  occ. eigenvalues --   -0.51038  -0.50738  -0.50552  -0.50492  -0.50416
 Alpha  occ. eigenvalues --   -0.50303  -0.50035  -0.49985  -0.49938  -0.49642
 Alpha  occ. eigenvalues --   -0.49264  -0.49227  -0.48991  -0.48719  -0.48637
 Alpha  occ. eigenvalues --   -0.48531  -0.48525  -0.48420  -0.48362  -0.48107
 Alpha  occ. eigenvalues --   -0.47902  -0.47682  -0.47679  -0.47542  -0.47394
 Alpha  occ. eigenvalues --   -0.47181  -0.46744  -0.46708  -0.46566  -0.46566
 Alpha  occ. eigenvalues --   -0.46398  -0.46156  -0.46082  -0.46081  -0.45854
 Alpha  occ. eigenvalues --   -0.45277  -0.45269  -0.45067  -0.45064  -0.44710
 Alpha  occ. eigenvalues --   -0.44558  -0.44473  -0.44452  -0.44294  -0.44200
 Alpha  occ. eigenvalues --   -0.43786  -0.43696  -0.43663  -0.43556  -0.43262
 Alpha  occ. eigenvalues --   -0.43086  -0.42983  -0.42852  -0.42722  -0.42618
 Alpha  occ. eigenvalues --   -0.42573  -0.42437  -0.42350  -0.41943  -0.41806
 Alpha  occ. eigenvalues --   -0.41577  -0.41478  -0.41378  -0.41252  -0.41118
 Alpha  occ. eigenvalues --   -0.40973  -0.40819  -0.40513  -0.40380  -0.40254
 Alpha  occ. eigenvalues --   -0.40066  -0.39737  -0.39683  -0.39286  -0.38814
 Alpha  occ. eigenvalues --   -0.38355  -0.38278  -0.37884  -0.37631  -0.37420
 Alpha  occ. eigenvalues --   -0.36936  -0.36914  -0.36515  -0.36472  -0.36314
 Alpha  occ. eigenvalues --   -0.36184  -0.36110  -0.34417  -0.34242  -0.33850
 Alpha  occ. eigenvalues --   -0.33726  -0.32973  -0.32812  -0.32268  -0.31659
 Alpha  occ. eigenvalues --   -0.31394  -0.31201  -0.30903  -0.30702  -0.30050
 Alpha  occ. eigenvalues --   -0.29688  -0.29356  -0.29269  -0.24126  -0.23795
 Alpha  occ. eigenvalues --   -0.21060  -0.20924
 Alpha virt. eigenvalues --   -0.08681  -0.08586  -0.01701  -0.01080   0.00153
 Alpha virt. eigenvalues --    0.00518   0.01821   0.02114   0.02811   0.03410
 Alpha virt. eigenvalues --    0.04805   0.05559   0.05563   0.05879   0.06072

 Mulliken charges:
               1
     1  Mg   0.829370
     2  C   -0.027440
     3  C   -0.081365
     4  C   -0.048360
     5  C   -0.097986
     6  N   -0.248695
     7  C   -0.030241
     8  C    0.007191
     9  C   -0.059245
    10  C    0.026547
    11  C    0.039526
    12  C    0.031786
    13  C   -0.059017
    14  H    0.003970
    15  N   -0.302838
    16  C    0.146137
    17  C   -0.169029
    18  C   -0.020051
    19  C    0.093307
    20  C    0.099941
    21  C    0.033797
    22  O   -0.187007
    23  C    0.024089
    24  N   -0.332242
    25  C   -0.001099
    26  C   -0.024803
    27  C   -0.002647
    28  C    0.080338
    29  C    0.078553
    30  C   -0.015216
    31  C    0.023918
    32  N   -0.395348
    33  C    0.148628
    34  C   -0.178781
    35  C    0.024804
    36  C    0.119063
    37  C    0.137495
    38  C    0.044603
    39  O   -0.191586
    40  C    0.008862
    41  C    0.183312
    42  O   -0.215345
    43  O   -0.324706
    44  C    0.186213
    45  H   -0.034547
    46  H   -0.001839
    47  H   -0.023799
    48  H    0.020257
    49  H    0.020935
    50  H    0.027635
    51  H    0.023958
    52  H    0.016027
    53  H    0.005734
    54  H    0.004878
    55  H    0.020233
    56  H    0.033006
    57  H    0.044423
    58  H    0.015497
    59  H    0.008483
    60  H    0.015430
    61  H    0.052097
    62  H    0.023547
    63  H    0.017660
    64  H    0.012676
    65  H    0.031300
    66  H    0.004821
    67  H    0.019333
    68  H    0.006219
    69  H   -0.004131
    70  H    0.014281
    71  H    0.005069
    72  H    0.017125
    73  H    0.042171
    74  H    0.016925
    75  H    0.031319
    76  H    0.029735
    77  H    0.052756
    78  H    0.029827
    79  H    0.042556
    80  Mg   0.840667
    81  C    0.028125
    82  C   -0.106829
    83  C   -0.066780
    84  C   -0.071322
    85  N   -0.281538
    86  C   -0.102084
    87  C   -0.000404
    88  C   -0.045986
    89  C    0.075568
    90  C    0.067042
    91  C    0.037835
    92  C   -0.060918
    93  H    0.017384
    94  N   -0.375436
    95  C    0.135942
    96  C   -0.158175
    97  C   -0.029507
    98  C    0.112185
    99  C    0.127602
   100  C    0.018921
   101  O   -0.213658
   102  C    0.015298
   103  N   -0.316298
   104  C    0.098099
   105  C   -0.060698
   106  C   -0.001787
   107  C    0.049102
   108  C    0.056777
   109  C    0.053013
   110  C   -0.019143
   111  N   -0.321797
   112  C    0.076452
   113  C   -0.187219
   114  C    0.016448
   115  C    0.096311
   116  C    0.134232
   117  C    0.001218
   118  O   -0.166791
   119  C   -0.002497
   120  C    0.159866
   121  O   -0.226931
   122  O   -0.302923
   123  C    0.183681
   124  H   -0.025720
   125  H    0.002381
   126  H   -0.035531
   127  H    0.026762
   128  H    0.014472
   129  H    0.029572
   130  H    0.022745
   131  H    0.018151
   132  H    0.007162
   133  H    0.019948
   134  H    0.019488
   135  H    0.040688
   136  H    0.029977
   137  H    0.017934
   138  H    0.035623
   139  H    0.033402
   140  H    0.043103
   141  H    0.031296
   142  H    0.017429
   143  H    0.009746
   144  H    0.005340
   145  H    0.040348
   146  H    0.003583
   147  H    0.024256
   148  H    0.003379
   149  H    0.001179
   150  H    0.016278
   151  H    0.023416
   152  H    0.031511
   153  H    0.031546
   154  H    0.036689
   155  H    0.038120
   156  H    0.036711
   157  H    0.027805
   158  H    0.038161
 Sum of Mulliken charges =  -0.00000

 Dipole moment (field-independent basis, Debye):
    X=              6.8162    Y=             -2.2548    Z=              4.0926  Tot=              8.2640
 Quadrupole moment (field-independent basis, Debye-Ang):
   XX=           -379.5617   YY=           -458.0891   ZZ=           -518.1756
   XY=            -14.8347   XZ=            -80.0803   YZ=            -29.0057

 Normal termination of Gaussian 16 at Wed Sep 15 08:10:09 2021.
