 Gaussian 16, Revision A.03,
 Gaussian 16:  ES64L-G16RevA.03 25-Dec-2016

 -----------------------------------
 #p cam-b3lyp/Def2SVP td=(nstates=5)
 -----------------------------------

 --------------------------------
 TDDFT excited states in gaussian
 --------------------------------
 Symbolic Z-matrix:
 Charge =  0 Multiplicity = 1

                         Standard orientation:
 ---------------------------------------------------------------------
 Center     Atomic      Atomic             Coordinates (Angstroms)
 Number     Number       Type             X           Y           Z
 ---------------------------------------------------------------------
      1         12           0       -9.989519    0.376706    0.327791
      2          6           0       -8.705718   -2.279532   -1.506710
      3          6           0       -8.137106   -0.939669    3.093161
      4          6           0      -10.716501    3.081399    2.048668
      5          6           0      -11.100792    1.818935   -2.679328
      6          7           0       -8.499425   -1.331263    0.685248
      7          6           0       -8.233990   -2.323222   -0.231997
      8          6           0       -7.263199   -3.346032    0.364403
      9          6           0       -7.351815   -3.018403    1.880660
     10          6           0       -7.998352   -1.658575    1.914752
     11          6           0       -8.135469   -4.014317    2.822901
     12          6           0       -5.839716   -3.230139   -0.205048
     13          6           0       -4.896898   -4.296647    0.203370
     14          1           0       -3.642904   -4.539313   -0.720593
     15          7           0       -9.490247    1.020471    2.320120
     16          6           0       -8.751716    0.331305    3.294656
     17          6           0       -8.723549    1.136948    4.483457
     18          6           0       -9.361213    2.389587    4.154225
     19          6           0       -9.922854    2.186538    2.774113
     20          6           0       -7.961051    0.717533    5.770541
     21          6           0       -9.449682    3.557834    5.141325
     22          8           0       -9.116431    3.442152    6.309045
     23          6           0       -9.963061    4.862820    4.664939
     24          7           0      -10.996435    2.096446   -0.216702
     25          6           0      -11.203960    3.045198    0.702687
     26          6           0      -11.831019    4.325592    0.016290
     27          6           0      -11.923970    3.989418   -1.521744
     28          6           0      -11.233590    2.518051   -1.501855
     29          6           0      -13.137828    4.898432    0.625189
     30          6           0      -11.093757    5.000703   -2.340920
     31          6           0      -11.601126    5.261114   -3.764457
     32          7           0       -9.957431   -0.069051   -1.723991
     33          6           0      -10.545753    0.527604   -2.803811
     34          6           0      -10.401387   -0.362893   -3.961675
     35          6           0       -9.783305   -1.482159   -3.472189
     36          6           0       -9.467526   -1.258551   -2.151231
     37          6           0      -10.973674   -0.121791   -5.362285
     38          6           0       -9.258410   -2.762302   -3.841449
     39          8           0       -9.273478   -3.373877   -4.881223
     40          6           0       -8.547741   -3.341172   -2.572630
     41          6           0       -9.283305   -4.570847   -2.168535
     42          8           0      -10.467949   -4.693333   -2.023397
     43          8           0       -8.344773   -5.563276   -1.836614
     44          6           0       -8.892335   -6.796026   -1.346264
     45          1           0       -7.620475   -1.468226    3.896436
     46          1           0      -11.046736    4.022366    2.494647
     47          1           0      -11.497203    2.205166   -3.620812
     48          1           0       -7.724723   -4.319664    0.205330
     49          1           0       -6.402015   -2.856620    2.389171
     50          1           0       -7.433106   -4.216570    3.631250
     51          1           0       -8.725725   -4.801933    2.353775
     52          1           0       -8.920419   -3.427966    3.300322
     53          1           0       -5.277909   -2.349145    0.106496
     54          1           0       -5.880041   -3.184364   -1.293396
     55          1           0       -5.479096   -5.215275    0.275949
     56          1           0       -4.555670   -4.094174    1.218440
     57          1           0       -7.114289    1.393720    5.648540
     58          1           0       -7.505302   -0.272701    5.754932
     59          1           0       -8.379700    0.803648    6.773415
     60          1           0       -9.400411    5.060738    3.752613
     61          1           0       -9.689738    5.625939    5.393846
     62          1           0      -11.025236    4.673434    4.508019
     63          1           0      -11.099721    5.120175    0.167088
     64          1           0      -12.935325    3.908643   -1.918893
     65          1           0      -12.886691    5.817680    1.155306
     66          1           0      -13.605897    4.123639    1.231496
     67          1           0      -13.801537    5.228705   -0.173853
     68          1           0      -10.087233    4.583483   -2.357943
     69          1           0      -10.944149    5.959485   -1.844074
     70          1           0      -11.761357    6.339801   -3.770535
     71          1           0      -12.477696    4.678391   -4.047859
     72          1           0      -10.812610    5.058835   -4.489422
     73          1           0      -10.312133   -0.340082   -6.199972
     74          1           0      -11.248788    0.931922   -5.310672
     75          1           0      -11.947356   -0.611824   -5.374979
     76          1           0       -7.525382   -3.569803   -2.873887
     77          1           0       -8.731291   -7.535959   -2.130324
     78          1           0       -9.937863   -6.833551   -1.039440
     79          1           0       -8.332335   -7.063946   -0.450727
     80         12           0        9.781533    0.764266   -0.159025
     81          6           0        8.772603   -2.429809    0.748895
     82          6           0        6.559606    1.708181   -0.478922
     83          6           0       10.879335    3.752471   -1.193597
     84          6           0       13.092995   -0.355974    0.044101
     85          7           0        7.904007   -0.313078    0.156740
     86          6           0        7.710138   -1.532059    0.600306
     87          6           0        6.132815   -1.750174    0.734279
     88          6           0        5.691661   -0.781234   -0.342288
     89          6           0        6.774021    0.336480   -0.206135
     90          6           0        5.617383   -1.496357   -1.708593
     91          6           0        5.669967   -1.582936    2.245259
     92          6           0        4.315958   -2.220451    2.571762
     93          1           0        3.448887   -2.722454    1.430111
     94          7           0        8.867128    2.520441   -0.575271
     95          6           0        7.489348    2.725038   -0.574833
     96          6           0        7.253085    4.193586   -0.711589
     97          6           0        8.540681    4.820166   -0.994462
     98          6           0        9.452480    3.645414   -0.997176
     99          6           0        5.877746    4.812303   -0.628767
    100          6           0        8.947164    6.351889   -1.201507
    101          8           0       10.110286    6.737122   -1.361595
    102          6           0        7.816587    7.359211   -1.174928
    103          7           0       11.647385    1.530595   -0.620751
    104          6           0       11.855956    2.775790   -1.039952
    105          6           0       13.348556    3.050465   -1.400519
    106          6           0       14.008957    1.819700   -0.762847
    107          6           0       12.866791    0.942333   -0.356682
    108          6           0       13.629372    3.217623   -2.920023
    109          6           0       15.144795    2.049438    0.330736
    110          6           0       14.774817    1.839090    1.762206
    111          7           0       10.778467   -1.055525    0.093147
    112          6           0       12.094356   -1.350514    0.216962
    113          6           0       12.337335   -2.724803    0.476242
    114          6           0       11.016681   -3.222814    0.708538
    115          6           0       10.177009   -2.160284    0.463788
    116          6           0       13.578255   -3.577167    0.537971
    117          6           0       10.204943   -4.346217    1.071103
    118          8           0       10.484102   -5.492434    1.349564
    119          6           0        8.730269   -3.872249    1.272489
    120          6           0        7.825455   -4.752498    0.527106
    121          8           0        7.879943   -4.870799   -0.687559
    122          8           0        7.019124   -5.577787    1.352035
    123          6           0        6.178397   -6.563285    0.654335
    124          1           0        5.508431    1.954819   -0.635214
    125          1           0       11.201671    4.723337   -1.573655
    126          1           0       14.135043   -0.681365    0.048769
    127          1           0        5.883609   -2.785071    0.503694
    128          1           0        4.746956   -0.278985   -0.135521
    129          1           0        4.546539   -1.483414   -1.914411
    130          1           0        5.987646   -2.521789   -1.673535
    131          1           0        6.099078   -0.827242   -2.421243
    132          1           0        5.594221   -0.525145    2.498716
    133          1           0        6.413402   -2.129039    2.826397
    134          1           0        3.756751   -1.482404    3.145983
    135          1           0        4.515485   -3.048798    3.251122
    136          1           0        5.238798    4.271245    0.070094
    137          1           0        5.324633    4.920824   -1.561150
    138          1           0        5.975940    5.807981   -0.196492
    139          1           0        7.104084    6.957786   -1.895164
    140          1           0        8.086036    8.354036   -1.528455
    141          1           0        7.437308    7.461871   -0.158080
    142          1           0       13.708046    3.966868   -0.932720
    143          1           0       14.406041    1.242729   -1.597229
    144          1           0       14.545183    2.654309   -3.100746
    145          1           0       13.728870    4.234984   -3.295226
    146          1           0       12.769252    2.823336   -3.461228
    147          1           0       15.594281    3.027354    0.157890
    148          1           0       15.923617    1.300038    0.191386
    149          1           0       15.311364    0.955864    2.109612
    150          1           0       13.751883    1.511722    1.952095
    151          1           0       15.058922    2.654012    2.428096
    152          1           0       14.475322   -3.027128    0.251486
    153          1           0       13.407688   -4.491332   -0.031373
    154          1           0       13.896139   -3.902452    1.528780
    155          1           0        8.439375   -3.889373    2.322483
    156          1           0        5.441683   -7.066248    1.280254
    157          1           0        6.906747   -7.278005    0.270250
    158          1           0        5.749311   -6.027094   -0.191303
 ---------------------------------------------------------------------

 SCF Done:  E(RCAM-B3LYP) =  -4069.82393878     A.U. after   18 cycles

 Excitation energies and oscillator strengths:

 Excited State   1:      Singlet-A      1.7354 eV  714.43 nm  f=0.3879  <S**2>=0.000
     310 -> 316        0.17779
     312 -> 314        0.68636
     310 <- 316        0.10691
 This state for optimization and/or second-order correction.
 Total Energy, E(TD-HF/TD-DFT) =  -4069.76016272
 Copying the excited state density for this state as the 1-particle RhoCI density.

 Excited State   2:      Singlet-A      1.7651 eV  702.41 nm  f=0.3911  <S**2>=0.000
     309 -> 315        0.17239
     311 -> 313        0.68736
     309 <- 315        0.10346

 Excited State   3:      Singlet-A      2.2151 eV  559.73 nm  f=0.1511  <S**2>=0.000
     310 -> 314        0.65484
     312 -> 316       -0.25741

 Excited State   4:      Singlet-A      2.2942 eV  540.43 nm  f=0.1178  <S**2>=0.000
     309 -> 313        0.63720
     311 -> 315       -0.29070

 Excited State   5:      Singlet-A      2.8533 eV  434.53 nm  f=0.0000  <S**2>=0.000
     312 -> 313        0.70698

 The electronic state is 1-A.
 Alpha  occ. eigenvalues --  -46.89801 -46.87780 -19.25057 -19.23932 -19.20611
 Alpha  occ. eigenvalues --  -19.20495 -19.19503 -19.18834 -19.18655 -19.17918
 Alpha  occ. eigenvalues --  -14.42796 -14.42486 -14.42029 -14.41475 -14.40367
 Alpha  occ. eigenvalues --  -14.40126 -14.39234 -14.38648 -10.39622 -10.38890
 Alpha  occ. eigenvalues --  -10.37253 -10.35002 -10.34282 -10.34123 -10.32497
 Alpha  occ. eigenvalues --  -10.31732 -10.31346 -10.31324 -10.31316 -10.31258
 Alpha  occ. eigenvalues --  -10.31216 -10.31153 -10.31083 -10.31014 -10.30704
 Alpha  occ. eigenvalues --  -10.30606 -10.30474 -10.30324 -10.29866 -10.29683
 Alpha  occ. eigenvalues --  -10.29372 -10.29031 -10.28836 -10.28754 -10.28721
 Alpha  occ. eigenvalues --  -10.28487 -10.28394 -10.28365 -10.28321 -10.28311
 Alpha  occ. eigenvalues --  -10.28136 -10.28113 -10.28042 -10.27975 -10.27972
 Alpha  occ. eigenvalues --  -10.27928 -10.27886 -10.27873 -10.27664 -10.27647
 Alpha  occ. eigenvalues --  -10.27611 -10.27567 -10.27549 -10.27308 -10.27254
 Alpha  occ. eigenvalues --  -10.27182 -10.27098 -10.27059 -10.26928 -10.26775
 Alpha  occ. eigenvalues --  -10.26660 -10.26646 -10.26569 -10.26381 -10.26344
 Alpha  occ. eigenvalues --  -10.26220 -10.26183 -10.25909 -10.25776 -10.25759
 Alpha  occ. eigenvalues --  -10.25753 -10.25679 -10.25595 -10.24535 -10.24198
 Alpha  occ. eigenvalues --  -10.24120  -3.18222  -3.16545  -1.93128  -1.92680
 Alpha  occ. eigenvalues --   -1.92509  -1.91456  -1.90965  -1.90892  -1.16732
 Alpha  occ. eigenvalues --   -1.14515  -1.10501  -1.10464  -1.10260  -1.09592
 Alpha  occ. eigenvalues --   -1.08943  -1.06761  -1.05601  -1.04744  -1.04733
 Alpha  occ. eigenvalues --   -1.04163  -1.03929  -1.03862  -1.03177  -1.02964
 Alpha  occ. eigenvalues --   -0.93401  -0.92148  -0.89565  -0.89373  -0.89223
 Alpha  occ. eigenvalues --   -0.88975  -0.88603  -0.88302  -0.88231  -0.87313
 Alpha  occ. eigenvalues --   -0.87135  -0.86598  -0.86277  -0.86087  -0.85355
 Alpha  occ. eigenvalues --   -0.84358  -0.84181  -0.83680  -0.83309  -0.82782
 Alpha  occ. eigenvalues --   -0.82724  -0.82584  -0.81432  -0.80987  -0.80971
 Alpha  occ. eigenvalues --   -0.80087  -0.78605  -0.77900  -0.77483  -0.77257
 Alpha  occ. eigenvalues --   -0.77254  -0.76683  -0.76334  -0.75879  -0.75662
 Alpha  occ. eigenvalues --   -0.75086  -0.73383  -0.72834  -0.72183  -0.71193
 Alpha  occ. eigenvalues --   -0.69477  -0.69265  -0.69208  -0.68772  -0.67955
 Alpha  occ. eigenvalues --   -0.67930  -0.66913  -0.66638  -0.66236  -0.65720
 Alpha  occ. eigenvalues --   -0.65120  -0.65072  -0.64753  -0.64681  -0.64208
 Alpha  occ. eigenvalues --   -0.64024  -0.62818  -0.61267  -0.60653  -0.60380
 Alpha  occ. eigenvalues --   -0.60034  -0.59606  -0.59453  -0.59146  -0.58983
 Alpha  occ. eigenvalues --   -0.58597  -0.58034  -0.57996  -0.57710  -0.57637
 Alpha  occ. eigenvalues --   -0.56644  -0.56032  -0.55818  -0.55690  -0.55613
 Alpha  occ. eigenvalues --   -0.55455  -0.55055  -0.54803  -0.54530  -0.54156
 Alpha  occ. eigenvalues --   -0.54020  -0.53712  -0.53707  -0.53461  -0.53377
 Alpha  occ. eigenvalues --   -0.53292  -0.53013  -0.52782  -0.52677  -0.52352
 Alpha  occ. eigenvalues --   -0.52155  -0.52037  -0.51860  -0.51817  -0.51797
 Alpha  occ. eigenvalues --   -0.51226  -0.50984  -0.50869  -0.50744  -0.50713
 Alpha  occ. eigenvalues --   -0.50504  -0.50425  -0.50361  -0.50006  -0.49909
 Alpha  occ. eigenvalues --   -0.49518  -0.49449  -0.49250  -0.49175  -0.49024
 Alpha  occ. eigenvalues --   -0.48998  -0.48825  -0.48559  -0.48515  -0.48438
 Alpha  occ. eigenvalues --   -0.48239  -0.47773  -0.47677  -0.47519  -0.47398
 Alpha  occ. eigenvalues --   -0.47289  -0.47226  -0.46893  -0.46606  -0.46531
 Alpha  occ. eigenvalues --   -0.46472  -0.46306  -0.46291  -0.46038  -0.45948
 Alpha  occ. eigenvalues --   -0.45801  -0.45587  -0.45465  -0.45266  -0.44960
 Alpha  occ. eigenvalues --   -0.44818  -0.44660  -0.44343  -0.44302  -0.44054
 Alpha  occ. eigenvalues --   -0.44025  -0.43968  -0.43834  -0.43463  -0.43450
 Alpha  occ. eigenvalues --   -0.43375  -0.43341  -0.43243  -0.43095  -0.42992
 Alpha  occ. eigenvalues --   -0.42845  -0.42504  -0.42496  -0.42433  -0.42177
 Alpha  occ. eigenvalues --   -0.42085  -0.42001  -0.41818  -0.41680  -0.41423
 Alpha  occ. eigenvalues --   -0.41044  -0.40989  -0.40745  -0.40538  -0.40407
 Alpha  occ. eigenvalues --   -0.40247  -0.40081  -0.39988  -0.39852  -0.39203
 Alpha  occ. eigenvalues --   -0.38957  -0.38215  -0.38188  -0.38077  -0.37813
 Alpha  occ. eigenvalues --   -0.37583  -0.37064  -0.36645  -0.36637  -0.36231
 Alpha  occ. eigenvalues --   -0.36165  -0.35642  -0.35367  -0.34456  -0.34386
 Alpha  occ. eigenvalues --   -0.33952  -0.33863  -0.33266  -0.32211  -0.31904
 Alpha  occ. eigenvalues --   -0.31179  -0.31168  -0.30784  -0.30521  -0.30261
 Alpha  occ. eigenvalues --   -0.30197  -0.30089  -0.29575  -0.24808  -0.23910
 Alpha  occ. eigenvalues --   -0.21802  -0.21406
 Alpha virt. eigenvalues --   -0.09172  -0.08850  -0.02080  -0.01270  -0.00032
 Alpha virt. eigenvalues --    0.00781   0.01902   0.02459   0.02590   0.03490
 Alpha virt. eigenvalues --    0.04253   0.04779   0.05275   0.05309   0.05670

 Mulliken charges:
               1
     1  Mg   0.819326
     2  C    0.006783
     3  C   -0.063125
     4  C   -0.089741
     5  C   -0.063145
     6  N   -0.264020
     7  C   -0.106280
     8  C    0.076908
     9  C   -0.101729
    10  C    0.005958
    11  C    0.083494
    12  C    0.079606
    13  C   -0.054050
    14  H    0.024641
    15  N   -0.352360
    16  C    0.163868
    17  C   -0.119927
    18  C   -0.079837
    19  C    0.210261
    20  C    0.108999
    21  C   -0.024851
    22  O   -0.198817
    23  C    0.067431
    24  N   -0.318191
    25  C    0.038777
    26  C   -0.072165
    27  C   -0.045939
    28  C    0.073333
    29  C    0.071535
    30  C    0.009659
    31  C    0.015635
    32  N   -0.337753
    33  C    0.071552
    34  C   -0.219984
    35  C    0.070931
    36  C    0.099033
    37  C    0.148675
    38  C    0.009787
    39  O   -0.147329
    40  C   -0.000690
    41  C    0.189546
    42  O   -0.181555
    43  O   -0.348426
    44  C    0.163976
    45  H   -0.031074
    46  H   -0.042585
    47  H   -0.031201
    48  H   -0.002696
    49  H    0.005455
    50  H    0.021144
    51  H    0.026435
    52  H    0.008303
    53  H    0.003681
    54  H    0.011775
    55  H    0.014815
    56  H    0.017839
    57  H    0.035310
    58  H   -0.003328
    59  H    0.050691
    60  H    0.030801
    61  H    0.030835
    62  H    0.058795
    63  H    0.014899
    64  H    0.017748
    65  H    0.014312
    66  H    0.028424
    67  H    0.013034
    68  H    0.008583
    69  H    0.006428
    70  H    0.015454
    71  H    0.023153
    72  H    0.016269
    73  H    0.047998
    74  H   -0.016024
    75  H    0.035328
    76  H    0.042094
    77  H    0.038679
    78  H    0.045078
    79  H    0.023749
    80  Mg   0.842603
    81  C   -0.021618
    82  C   -0.078596
    83  C   -0.075075
    84  C   -0.111282
    85  N   -0.243022
    86  C   -0.062021
    87  C   -0.047403
    88  C   -0.052412
    89  C    0.015654
    90  C    0.105884
    91  C    0.057289
    92  C   -0.053872
    93  H    0.023554
    94  N   -0.393549
    95  C    0.179606
    96  C   -0.141577
    97  C   -0.075154
    98  C    0.104620
    99  C    0.096218
   100  C    0.057927
   101  O   -0.196802
   102  C    0.033344
   103  N   -0.301807
   104  C    0.062649
   105  C   -0.047763
   106  C    0.014848
   107  C    0.029796
   108  C    0.068811
   109  C    0.044630
   110  C    0.006254
   111  N   -0.283345
   112  C    0.112501
   113  C   -0.165571
   114  C    0.022719
   115  C    0.067195
   116  C    0.123690
   117  C    0.018854
   118  O   -0.167205
   119  C    0.053313
   120  C    0.179837
   121  O   -0.224251
   122  O   -0.371177
   123  C    0.187011
   124  H   -0.022552
   125  H   -0.009340
   126  H   -0.031993
   127  H   -0.002113
   128  H   -0.023134
   129  H    0.012691
   130  H    0.048874
   131  H    0.014547
   132  H    0.011119
   133  H    0.016580
   134  H    0.022422
   135  H    0.030046
   136  H    0.017624
   137  H    0.042083
   138  H    0.008635
   139  H    0.038383
   140  H    0.029168
   141  H    0.060193
   142  H    0.009234
   143  H    0.004452
   144  H    0.017377
   145  H    0.022873
   146  H    0.019502
   147  H    0.008894
   148  H    0.003240
   149  H   -0.003652
   150  H    0.027769
   151  H    0.017080
   152  H   -0.005907
   153  H    0.044030
   154  H    0.023707
   155  H    0.036984
   156  H    0.044791
   157  H    0.038922
   158  H    0.032167
 Sum of Mulliken charges =  -0.00000

 Dipole moment (field-independent basis, Debye):
    X=             -3.6370    Y=              6.7154    Z=              2.2292  Tot=              7.9557
 Quadrupole moment (field-independent basis, Debye-Ang):
   XX=           -525.7618   YY=           -513.4204   ZZ=           -551.3500
   XY=              2.6485   XZ=             -8.8854   YZ=            -34.7457

 Normal termination of Gaussian 16 at Thu Sep 16 12:46:55 2021.
