 Gaussian 16, Revision A.03,
 Gaussian 16:  ES64L-G16RevA.03 25-Dec-2016

 ----------------------------------------------------------
 #p cam-b3lyp/Def2SVP td=(nstates=5) density=(transition=1)
 ----------------------------------------------------------

 --------------------------------
 TDDFT excited states in gaussian
 --------------------------------
 Symbolic Z-matrix:
 Charge =  0 Multiplicity = 1

                         Standard orientation:
 ---------------------------------------------------------------------
 Center     Atomic      Atomic             Coordinates (Angstroms)
 Number     Number       Type             X           Y           Z
 ---------------------------------------------------------------------
      1         12           0       24.870048   -0.580441    0.513098
      2          6           0       25.217628    1.895740   -1.903745
      3          6           0       24.160623    1.844383    2.828225
      4          6           0       24.859927   -3.017562    2.895233
      5          6           0       25.875576   -2.886204   -1.998016
      6          7           0       24.742455    1.608346    0.477195
      7          6           0       24.806712    2.368253   -0.660870
      8          6           0       24.490073    3.805595   -0.240422
      9          6           0       24.463093    3.794967    1.277614
     10          6           0       24.416242    2.295109    1.546323
     11          6           0       25.537112    4.510918    2.051812
     12          6           0       23.194176    4.455195   -0.923734
     13          6           0       22.735065    5.831647   -0.343867
     14          1           0       23.288683    7.129683   -0.987820
     15          7           0       24.407885   -0.578203    2.536271
     16          6           0       24.175398    0.509367    3.312600
     17          6           0       24.001032    0.025978    4.657590
     18          6           0       24.211968   -1.384209    4.666964
     19          6           0       24.531015   -1.726078    3.354073
     20          6           0       23.671766    0.975813    5.767625
     21          6           0       24.249933   -2.302575    5.923078
     22          8           0       24.767056   -3.405050    5.896583
     23          6           0       23.791818   -1.885713    7.238460
     24          7           0       25.280178   -2.531638    0.435943
     25          6           0       25.172636   -3.386074    1.532804
     26          6           0       25.466700   -4.851844    1.169129
     27          6           0       25.495496   -4.788403   -0.395913
     28          6           0       25.505065   -3.293308   -0.668796
     29          6           0       26.558396   -5.509846    1.906786
     30          6           0       24.372189   -5.601298   -1.248853
     31          6           0       24.786188   -6.679460   -2.254846
     32          7           0       25.508564   -0.535770   -1.587458
     33          6           0       25.886864   -1.551772   -2.419602
     34          6           0       26.198826   -1.063643   -3.720594
     35          6           0       25.870948    0.340747   -3.599569
     36          6           0       25.540152    0.607709   -2.241456
     37          6           0       26.622321   -1.917884   -4.854167
     38          6           0       25.725546    1.563073   -4.356134
     39          8           0       25.825256    1.845475   -5.534020
     40          6           0       25.285633    2.659108   -3.218160
     41          6           0       26.142791    3.870917   -3.269161
     42          8           0       27.321159    3.873735   -2.987790
     43          8           0       25.463042    4.967253   -3.648411
     44          6           0       26.159071    6.301846   -3.491694
     45          1           0       23.881479    2.606998    3.558638
     46          1           0       24.856608   -3.777658    3.679039
     47          1           0       26.137136   -3.743053   -2.622689
     48          1           0       25.377630    4.309703   -0.622556
     49          1           0       23.553350    4.284444    1.624397
     50          1           0       26.096577    3.646603    2.408345
     51          1           0       25.133376    5.159589    2.829328
     52          1           0       26.229822    5.047650    1.403249
     53          1           0       22.439983    3.693446   -0.725036
     54          1           0       23.359492    4.569723   -1.994373
     55          1           0       23.008147    5.937482    0.705301
     56          1           0       21.646575    5.865425   -0.390037
     57          1           0       23.485134    2.020253    5.515860
     58          1           0       24.560359    1.006367    6.397287
     59          1           0       22.869777    0.617523    6.413328
     60          1           0       24.112403   -0.929426    7.650510
     61          1           0       23.926694   -2.616850    8.035440
     62          1           0       22.710029   -1.882201    7.106616
     63          1           0       24.509468   -5.268684    1.483447
     64          1           0       26.519788   -5.123864   -0.557572
     65          1           0       26.287410   -6.350113    2.546590
     66          1           0       27.032790   -4.752283    2.531153
     67          1           0       27.325838   -5.947851    1.268721
     68          1           0       23.798028   -4.865606   -1.811733
     69          1           0       23.598507   -6.126747   -0.687728
     70          1           0       24.731312   -6.376951   -3.300914
     71          1           0       24.338009   -7.658448   -2.087470
     72          1           0       25.859440   -6.832120   -2.140326
     73          1           0       27.379888   -2.614775   -4.496427
     74          1           0       26.961446   -1.339485   -5.713137
     75          1           0       25.807106   -2.613661   -5.055303
     76          1           0       24.282504    2.977676   -3.499758
     77          1           0       25.591976    6.932593   -4.175911
     78          1           0       27.202464    6.186780   -3.784586
     79          1           0       25.996294    6.618459   -2.461365
     80         12           0      -24.661525   -0.694530   -0.176622
     81          6           0      -25.841767    2.130071    1.515806
     82          6           0      -23.442089    1.210552   -2.554306
     83          6           0      -24.213904   -3.487350   -2.126902
     84          6           0      -26.410117   -2.745102    2.104408
     85          7           0      -24.582606    1.401269   -0.383333
     86          6           0      -25.051976    2.415366    0.422284
     87          6           0      -24.562848    3.780426   -0.044168
     88          6           0      -23.999464    3.442533   -1.461757
     89          6           0      -23.903504    1.956822   -1.432946
     90          6           0      -24.667905    4.019861   -2.690739
     91          6           0      -23.575061    4.493877    0.933332
     92          6           0      -23.099689    5.879885    0.484142
     93          1           0      -23.258407    7.001717    1.499917
     94          7           0      -23.947433   -1.089219   -2.202878
     95          6           0      -23.350663   -0.142847   -2.957174
     96          6           0      -22.787768   -0.756878   -4.127676
     97          6           0      -23.104571   -2.124902   -4.067081
     98          6           0      -23.800030   -2.276268   -2.760068
     99          6           0      -22.063876    0.007209   -5.216124
    100          6           0      -22.747146   -3.231762   -5.004134
    101          8           0      -23.184869   -4.412695   -4.963447
    102          6           0      -21.731196   -2.995239   -6.114934
    103          7           0      -25.249088   -2.765919   -0.039972
    104          6           0      -24.998344   -3.682545   -1.003594
    105          6           0      -25.378719   -5.162578   -0.457569
    106          6           0      -25.633181   -4.890390    1.066619
    107          6           0      -25.709800   -3.397778    1.104173
    108          6           0      -26.624536   -5.703600   -1.262284
    109          6           0      -24.381711   -5.302802    1.924672
    110          6           0      -23.007984   -4.776352    1.539337
    111          7           0      -25.874271   -0.411011    1.567915
    112          6           0      -26.481531   -1.356835    2.347483
    113          6           0      -27.144966   -0.681204    3.363679
    114          6           0      -26.987148    0.715937    3.134321
    115          6           0      -26.199881    0.831463    2.018940
    116          6           0      -27.995433   -1.230941    4.454011
    117          6           0      -27.309622    2.095115    3.565441
    118          8           0      -28.013231    2.558698    4.455595
    119          6           0      -26.476993    3.071655    2.566632
    120          6           0      -27.339235    4.183691    2.085285
    121          8           0      -28.575802    4.081822    1.829427
    122          8           0      -26.612419    5.291102    2.149863
    123          6           0      -27.395184    6.512005    2.168534
    124          1           0      -22.919181    1.793950   -3.315169
    125          1           0      -24.047208   -4.390668   -2.718524
    126          1           0      -26.827865   -3.412197    2.860051
    127          1           0      -25.457040    4.403411   -0.016364
    128          1           0      -22.964130    3.758589   -1.593948
    129          1           0      -25.300675    4.894771   -2.541752
    130          1           0      -25.234687    3.233481   -3.189922
    131          1           0      -23.890344    4.142357   -3.444986
    132          1           0      -22.717575    3.847776    1.123151
    133          1           0      -24.055357    4.601612    1.905311
    134          1           0      -23.804030    6.334051   -0.212582
    135          1           0      -22.091953    5.838412    0.069752
    136          1           0      -22.102374    1.092005   -5.117653
    137          1           0      -22.498635   -0.060756   -6.213055
    138          1           0      -21.012031   -0.264200   -5.311030
    139          1           0      -22.184520   -2.323411   -6.843271
    140          1           0      -21.610782   -3.871798   -6.751120
    141          1           0      -20.749843   -2.696347   -5.744773
    142          1           0      -24.554403   -5.847587   -0.656042
    143          1           0      -26.598737   -5.351192    1.274998
    144          1           0      -26.842720   -5.130484   -2.163585
    145          1           0      -27.557931   -5.693660   -0.699219
    146          1           0      -26.487959   -6.711859   -1.650609
    147          1           0      -24.443705   -6.384121    1.801739
    148          1           0      -24.470784   -5.092674    2.990083
    149          1           0      -23.045733   -4.318049    0.550856
    150          1           0      -22.177384   -5.475498    1.629993
    151          1           0      -22.802517   -4.062127    2.336725
    152          1           0      -27.509356   -1.995098    5.061073
    153          1           0      -28.828905   -1.712375    3.943314
    154          1           0      -28.400770   -0.453845    5.101215
    155          1           0      -25.706994    3.497306    3.209561
    156          1           0      -26.992033    7.202491    2.910400
    157          1           0      -28.447178    6.407565    2.432978
    158          1           0      -27.286170    6.950280    1.175963
 ---------------------------------------------------------------------

 SCF Done:  E(RCAM-B3LYP) =  -4069.82386169     A.U. after   19 cycles

 Excitation energies and oscillator strengths:

 Excited State   1:      Singlet-A      1.6981 eV  730.13 nm  f=0.3884  <S**2>=0.000
     309 -> 315       -0.17920
     312 -> 314        0.68573
     309 <- 315       -0.10835
 This state for optimization and/or second-order correction.
 Total Energy, E(TD-HF/TD-DFT) =  -4069.76145732
 Copying the excited state density for this state as the 1-particle RhoCI density.

 Excited State   2:      Singlet-A      1.7144 eV  723.17 nm  f=0.4020  <S**2>=0.000
     310 -> 316       -0.16595
     311 -> 313        0.68898
     310 <- 316       -0.10309

 Excited State   3:      Singlet-A      2.1453 eV  577.92 nm  f=0.1688  <S**2>=0.000
     310 -> 313        0.66339
     311 -> 316        0.22679

 Excited State   4:      Singlet-A      2.2225 eV  557.87 nm  f=0.0945  <S**2>=0.000
     309 -> 314        0.63226
     312 -> 315        0.30142

 Excited State   5:      Singlet-A      3.0100 eV  411.90 nm  f=0.0000  <S**2>=0.000
     312 -> 313        0.70711

 The electronic state is 1-A.
 Alpha  occ. eigenvalues --  -46.89410 -46.87903 -19.26690 -19.24444 -19.19139
 Alpha  occ. eigenvalues --  -19.19105 -19.19078 -19.18686 -19.18482 -19.18283
 Alpha  occ. eigenvalues --  -14.42931 -14.42739 -14.42068 -14.41853 -14.39792
 Alpha  occ. eigenvalues --  -14.39074 -14.38464 -14.38054 -10.39267 -10.37991
 Alpha  occ. eigenvalues --  -10.35786 -10.35610 -10.34855 -10.34673 -10.32148
 Alpha  occ. eigenvalues --  -10.32132 -10.32047 -10.31624 -10.31152 -10.31139
 Alpha  occ. eigenvalues --  -10.31119 -10.31045 -10.30811 -10.30657 -10.30468
 Alpha  occ. eigenvalues --  -10.30126 -10.29831 -10.29793 -10.29723 -10.29637
 Alpha  occ. eigenvalues --  -10.29283 -10.29019 -10.28554 -10.28342 -10.28334
 Alpha  occ. eigenvalues --  -10.28322 -10.28279 -10.28247 -10.28201 -10.28163
 Alpha  occ. eigenvalues --  -10.28136 -10.28098 -10.27911 -10.27894 -10.27818
 Alpha  occ. eigenvalues --  -10.27794 -10.27732 -10.27559 -10.27557 -10.27550
 Alpha  occ. eigenvalues --  -10.27287 -10.27240 -10.27165 -10.27100 -10.27083
 Alpha  occ. eigenvalues --  -10.27058 -10.26978 -10.26968 -10.26889 -10.26883
 Alpha  occ. eigenvalues --  -10.26530 -10.26516 -10.26508 -10.26501 -10.26277
 Alpha  occ. eigenvalues --  -10.26180 -10.26175 -10.26154 -10.25774 -10.25696
 Alpha  occ. eigenvalues --  -10.25615 -10.25515 -10.25448 -10.25266 -10.24915
 Alpha  occ. eigenvalues --  -10.24303  -3.17798  -3.16563  -1.92707  -1.92223
 Alpha  occ. eigenvalues --   -1.92113  -1.91478  -1.91020  -1.90865  -1.18126
 Alpha  occ. eigenvalues --   -1.15872  -1.11008  -1.09515  -1.08825  -1.08400
 Alpha  occ. eigenvalues --   -1.06757  -1.05949  -1.05441  -1.05267  -1.04392
 Alpha  occ. eigenvalues --   -1.04136  -1.03367  -1.03341  -1.02489  -1.02378
 Alpha  occ. eigenvalues --   -0.92459  -0.91885  -0.89629  -0.89314  -0.89241
 Alpha  occ. eigenvalues --   -0.88735  -0.88435  -0.88359  -0.88016  -0.87597
 Alpha  occ. eigenvalues --   -0.87169  -0.87000  -0.86729  -0.85711  -0.84833
 Alpha  occ. eigenvalues --   -0.84668  -0.83792  -0.83731  -0.82940  -0.82667
 Alpha  occ. eigenvalues --   -0.82498  -0.81888  -0.81437  -0.81365  -0.80768
 Alpha  occ. eigenvalues --   -0.80700  -0.78912  -0.78819  -0.77821  -0.77615
 Alpha  occ. eigenvalues --   -0.77387  -0.77309  -0.76154  -0.75919  -0.75264
 Alpha  occ. eigenvalues --   -0.75174  -0.72805  -0.72780  -0.71842  -0.71778
 Alpha  occ. eigenvalues --   -0.69940  -0.69415  -0.69211  -0.68972  -0.68381
 Alpha  occ. eigenvalues --   -0.68253  -0.67714  -0.66944  -0.65574  -0.65562
 Alpha  occ. eigenvalues --   -0.65450  -0.65231  -0.64708  -0.64705  -0.64593
 Alpha  occ. eigenvalues --   -0.64230  -0.62770  -0.61450  -0.61047  -0.60556
 Alpha  occ. eigenvalues --   -0.59808  -0.59780  -0.59278  -0.58980  -0.58855
 Alpha  occ. eigenvalues --   -0.58563  -0.57984  -0.57641  -0.57326  -0.57258
 Alpha  occ. eigenvalues --   -0.56388  -0.56238  -0.56064  -0.55830  -0.55779
 Alpha  occ. eigenvalues --   -0.55494  -0.55435  -0.55348  -0.54809  -0.54600
 Alpha  occ. eigenvalues --   -0.54426  -0.53830  -0.53304  -0.53183  -0.53169
 Alpha  occ. eigenvalues --   -0.52992  -0.52957  -0.52618  -0.52566  -0.52371
 Alpha  occ. eigenvalues --   -0.52102  -0.51748  -0.51605  -0.51340  -0.51017
 Alpha  occ. eigenvalues --   -0.51008  -0.50868  -0.50595  -0.50518  -0.50480
 Alpha  occ. eigenvalues --   -0.50328  -0.50142  -0.49957  -0.49555  -0.49463
 Alpha  occ. eigenvalues --   -0.49372  -0.49164  -0.49138  -0.49018  -0.48884
 Alpha  occ. eigenvalues --   -0.48650  -0.48609  -0.48520  -0.48389  -0.48255
 Alpha  occ. eigenvalues --   -0.48134  -0.47746  -0.47474  -0.47270  -0.47230
 Alpha  occ. eigenvalues --   -0.47129  -0.46863  -0.46795  -0.46616  -0.46564
 Alpha  occ. eigenvalues --   -0.46525  -0.46414  -0.46277  -0.46091  -0.45991
 Alpha  occ. eigenvalues --   -0.45885  -0.45472  -0.45211  -0.45177  -0.45138
 Alpha  occ. eigenvalues --   -0.44825  -0.44762  -0.44486  -0.44432  -0.44312
 Alpha  occ. eigenvalues --   -0.44265  -0.44036  -0.43891  -0.43755  -0.43708
 Alpha  occ. eigenvalues --   -0.43448  -0.43396  -0.43236  -0.42907  -0.42835
 Alpha  occ. eigenvalues --   -0.42729  -0.42614  -0.42384  -0.42103  -0.41983
 Alpha  occ. eigenvalues --   -0.41851  -0.41798  -0.41534  -0.41468  -0.41309
 Alpha  occ. eigenvalues --   -0.41266  -0.40989  -0.40897  -0.40529  -0.40405
 Alpha  occ. eigenvalues --   -0.40223  -0.39639  -0.39531  -0.39302  -0.39282
 Alpha  occ. eigenvalues --   -0.38813  -0.38701  -0.37927  -0.37800  -0.37338
 Alpha  occ. eigenvalues --   -0.37286  -0.36950  -0.36911  -0.36607  -0.36328
 Alpha  occ. eigenvalues --   -0.36315  -0.36078  -0.34110  -0.34093  -0.34009
 Alpha  occ. eigenvalues --   -0.33981  -0.33009  -0.32935  -0.31980  -0.31333
 Alpha  occ. eigenvalues --   -0.31184  -0.30993  -0.30822  -0.30233  -0.30134
 Alpha  occ. eigenvalues --   -0.29744  -0.29073  -0.28539  -0.24230  -0.24098
 Alpha  occ. eigenvalues --   -0.21802  -0.21152
 Alpha virt. eigenvalues --   -0.09403  -0.08822  -0.01900  -0.01319  -0.00059
 Alpha virt. eigenvalues --    0.00591   0.01763   0.02472   0.02706   0.03351
 Alpha virt. eigenvalues --    0.04413   0.04626   0.04673   0.05218   0.05651

 Mulliken charges:
               1
     1  Mg  12.003234
     2  C    6.023374
     3  C    5.978909
     4  C    5.976628
     5  C    6.016892
     6  N    7.005786
     7  C    5.962251
     8  C    6.007531
     9  C    5.992642
    10  C    6.029571
    11  C    5.998906
    12  C    6.005353
    13  C    5.998604
    14  H    1.000952
    15  N    6.991532
    16  C    6.042205
    17  C    6.028373
    18  C    6.008906
    19  C    6.040783
    20  C    5.993211
    21  C    6.012638
    22  O    8.021824
    23  C    5.991892
    24  N    6.995676
    25  C    6.045845
    26  C    5.989669
    27  C    6.015448
    28  C    5.961633
    29  C    5.997476
    30  C    6.003039
    31  C    6.000349
    32  N    7.006159
    33  C    5.961368
    34  C    5.968305
    35  C    5.996390
    36  C    5.963941
    37  C    6.002874
    38  C    5.984341
    39  O    7.968731
    40  C    5.996403
    41  C    5.996397
    42  O    7.995283
    43  O    7.998931
    44  C    6.001464
    45  H    1.008410
    46  H    1.009038
    47  H    0.988302
    48  H    1.000373
    49  H    0.999639
    50  H    0.995056
    51  H    1.000494
    52  H    1.013199
    53  H    0.993217
    54  H    1.005597
    55  H    0.992612
    56  H    0.997511
    57  H    1.022407
    58  H    1.023454
    59  H    1.021874
    60  H    1.005130
    61  H    1.014818
    62  H    1.007791
    63  H    0.999402
    64  H    0.997377
    65  H    1.002255
    66  H    0.996579
    67  H    1.013501
    68  H    1.003337
    69  H    0.987482
    70  H    1.004577
    71  H    0.994060
    72  H    0.997916
    73  H    0.979998
    74  H    0.984835
    75  H    0.977575
    76  H    0.992759
    77  H    0.996326
    78  H    0.998172
    79  H    0.993204
    80  Mg  11.999900
    81  C    6.000479
    82  C    5.999851
    83  C    5.999574
    84  C    6.000118
    85  N    7.000303
    86  C    5.999383
    87  C    6.000154
    88  C    5.999874
    89  C    6.000443
    90  C    5.999971
    91  C    6.000033
    92  C    5.999959
    93  H    1.000016
    94  N    6.999853
    95  C    6.000566
    96  C    6.000180
    97  C    6.000310
    98  C    6.000478
    99  C    5.999897
   100  C    6.000157
   101  O    8.000452
   102  C    5.999900
   103  N    6.999909
   104  C    6.000445
   105  C    5.999930
   106  C    6.000180
   107  C    5.999601
   108  C    5.999968
   109  C    6.000147
   110  C    6.000036
   111  N    7.000045
   112  C    5.999530
   113  C    5.999556
   114  C    6.000013
   115  C    5.999427
   116  C    6.000077
   117  C    5.999802
   118  O    7.999636
   119  C    5.999903
   120  C    5.999919
   121  O    7.999991
   122  O    7.999968
   123  C    6.000029
   124  H    1.000169
   125  H    1.000047
   126  H    0.999768
   127  H    1.000037
   128  H    1.000037
   129  H    1.000211
   130  H    1.000010
   131  H    1.000009
   132  H    0.999903
   133  H    1.000086
   134  H    0.999981
   135  H    0.999926
   136  H    1.000251
   137  H    1.000297
   138  H    1.000275
   139  H    1.000123
   140  H    1.000230
   141  H    1.000109
   142  H    0.999973
   143  H    0.999958
   144  H    0.999935
   145  H    1.000144
   146  H    1.000006
   147  H    0.999835
   148  H    1.000006
   149  H    0.999801
   150  H    0.999906
   151  H    1.000050
   152  H    0.999683
   153  H    0.999716
   154  H    0.999766
   155  H    0.999920
   156  H    0.999942
   157  H    0.999995
   158  H    0.999931
 Sum of Mulliken charges = 624.00000

 Dipole moment (field-independent basis, Debye):
    X=             -2.0361    Y=             -0.5893    Z=             10.7762  Tot=             10.9826
 Quadrupole moment (field-independent basis, Debye-Ang):
   XX=           -109.1587   YY=             -2.6970   ZZ=             11.5943
   XY=            -13.4837   XZ=            275.7476   YZ=             -5.3761

 Normal termination of Gaussian 16 at Thu Sep 23 00:09:49 2021.
