 Gaussian 16, Revision A.03,
 Gaussian 16:  ES64L-G16RevA.03 25-Dec-2016

 -----------------------------------
 #p cam-b3lyp/Def2SVP td=(nstates=5)
 -----------------------------------

 --------------------------------
 TDDFT excited states in gaussian
 --------------------------------
 Symbolic Z-matrix:
 Charge =  0 Multiplicity = 1

                         Standard orientation:
 ---------------------------------------------------------------------
 Center     Atomic      Atomic             Coordinates (Angstroms)
 Number     Number       Type             X           Y           Z
 ---------------------------------------------------------------------
      1         12           0      -15.658072    0.323281    0.280586
      2          6           0      -14.746113   -2.668562   -1.063736
      3          6           0      -12.294724    0.920433    0.881038
      4          6           0      -16.524633    3.418672    1.250235
      5          6           0      -18.921304   -0.090541   -0.970749
      6          7           0      -13.713793   -0.663547   -0.300726
      7          6           0      -13.649650   -1.909982   -0.810297
      8          6           0      -12.255871   -2.340257   -1.088901
      9          6           0      -11.461784   -1.298054   -0.081062
     10          6           0      -12.552163   -0.245718    0.210805
     11          6           0      -10.872014   -2.003641    1.175645
     12          6           0      -11.926560   -2.097194   -2.553222
     13          6           0      -12.116408   -0.632069   -3.164042
     14          1           0      -11.096780   -0.067766   -4.145530
     15          7           0      -14.578954    1.941263    0.965518
     16          6           0      -13.196758    1.953389    1.281218
     17          6           0      -12.939068    3.168387    1.979447
     18          6           0      -14.092765    3.937514    2.067616
     19          6           0      -15.162692    3.125129    1.464403
     20          6           0      -11.527334    3.423052    2.467241
     21          6           0      -14.222610    5.345501    2.597652
     22          8           0      -13.160113    5.868467    3.016965
     23          6           0      -15.365911    6.186216    2.474776
     24          7           0      -17.428647    1.563480   -0.051407
     25          6           0      -17.543408    2.795655    0.522074
     26          6           0      -18.934830    3.414812    0.247679
     27          6           0      -19.687802    2.248620   -0.476901
     28          6           0      -18.600306    1.192541   -0.579117
     29          6           0      -19.627470    3.921310    1.494781
     30          6           0      -20.276759    2.730618   -1.908105
     31          6           0      -21.688399    2.214154   -2.208971
     32          7           0      -16.736867   -1.099734   -0.824285
     33          6           0      -18.062059   -1.247536   -1.082472
     34          6           0      -18.254063   -2.603731   -1.519216
     35          6           0      -16.985784   -3.281122   -1.509154
     36          6           0      -16.099853   -2.297801   -1.100918
     37          6           0      -19.495950   -3.138042   -2.146509
     38          6           0      -16.234040   -4.456210   -1.812621
     39          8           0      -16.726568   -5.519399   -2.210620
     40          6           0      -14.788054   -4.114475   -1.504057
     41          6           0      -14.287868   -5.061389   -0.477918
     42          8           0      -14.331785   -6.255226   -0.701067
     43          8           0      -13.731090   -4.471448    0.615492
     44          6           0      -13.212623   -5.396363    1.625264
     45          1           0      -11.295521    0.990751    1.315632
     46          1           0      -16.832418    4.321713    1.781177
     47          1           0      -19.948014   -0.364623   -1.223415
     48          1           0      -11.990488   -3.380546   -0.900291
     49          1           0      -10.544986   -0.932019   -0.545062
     50          1           0       -9.794097   -1.851317    1.216385
     51          1           0      -11.051616   -3.071704    1.049983
     52          1           0      -11.323265   -1.701918    2.121756
     53          1           0      -12.462443   -2.852361   -3.128614
     54          1           0      -10.913485   -2.492557   -2.626186
     55          1           0      -12.175320    0.179126   -2.438255
     56          1           0      -13.035493   -0.753213   -3.736633
     57          1           0      -11.003056    3.860174    1.617235
     58          1           0      -11.057563    2.468365    2.700543
     59          1           0      -11.424979    4.067463    3.340888
     60          1           0      -15.090428    7.240073    2.423873
     61          1           0      -16.146194    5.972345    3.206336
     62          1           0      -15.737845    5.997687    1.468603
     63          1           0      -18.709727    4.223984   -0.447944
     64          1           0      -20.440241    1.832820    0.192933
     65          1           0      -19.012202    3.877135    2.393049
     66          1           0      -20.631394    3.589946    1.758801
     67          1           0      -19.642919    4.999235    1.331094
     68          1           0      -19.663408    2.435977   -2.759690
     69          1           0      -20.272296    3.815884   -2.007913
     70          1           0      -22.379380    3.051979   -2.119767
     71          1           0      -21.969631    1.515611   -1.420619
     72          1           0      -21.777503    1.771397   -3.201125
     73          1           0      -20.371087   -3.257926   -1.509004
     74          1           0      -19.206029   -4.097473   -2.576580
     75          1           0      -19.859054   -2.496148   -2.949220
     76          1           0      -14.237058   -4.267008   -2.432545
     77          1           0      -12.472903   -6.035092    1.141772
     78          1           0      -13.991216   -5.967032    2.131707
     79          1           0      -12.812655   -4.848531    2.478371
     80         12           0       15.557052    0.750068   -0.233684
     81          6           0       15.249885   -2.530806    0.964767
     82          6           0       12.835623    1.603105    1.695139
     83          6           0       15.847495    3.823697   -1.399928
     84          6           0       18.216800   -0.340856   -2.253169
     85          7           0       14.297411   -0.362278    1.209722
     86          6           0       14.307341   -1.713030    1.558126
     87          6           0       13.429898   -2.036014    2.830697
     88          6           0       12.619502   -0.755322    2.883532
     89          6           0       13.290421    0.255787    1.864576
     90          6           0       11.126883   -1.009420    2.374830
     91          6           0       14.484228   -2.083193    4.024089
     92          6           0       14.297837   -3.231223    5.111005
     93          1           0       12.830735   -3.527721    5.289236
     94          7           0       14.422581    2.383813   -0.010525
     95          6           0       13.371436    2.560292    0.785122
     96          6           0       12.864674    3.906445    0.743413
     97          6           0       13.815970    4.630821   -0.001903
     98          6           0       14.746344    3.586520   -0.574783
     99          6           0       11.646726    4.405384    1.430704
    100          6           0       14.004509    6.124653   -0.168000
    101          8           0       15.030865    6.622978   -0.644095
    102          6           0       12.853949    7.080351    0.159790
    103          7           0       16.848036    1.596956   -1.689118
    104          6           0       16.759610    2.952541   -1.901306
    105          6           0       17.925203    3.378602   -2.791381
    106          6           0       18.791468    2.040516   -2.987394
    107          6           0       17.969309    1.029167   -2.232696
    108          6           0       17.379159    4.089843   -4.079635
    109          6           0       20.253292    2.099716   -2.572697
    110          6           0       21.241496    1.624057   -3.683272
    111          7           0       16.518049   -1.059932   -0.594600
    112          6           0       17.599002   -1.365348   -1.479979
    113          6           0       17.905556   -2.750114   -1.425825
    114          6           0       16.996447   -3.230323   -0.468147
    115          6           0       16.163025   -2.171889   -0.050814
    116          6           0       18.952735   -3.546843   -2.135105
    117          6           0       16.566119   -4.386936    0.250205
    118          8           0       16.905969   -5.546377    0.219527
    119          6           0       15.492589   -3.932458    1.279165
    120          6           0       14.329397   -4.853134    1.199812
    121          8           0       13.505704   -4.944189    0.293903
    122          8           0       14.304816   -5.543885    2.343776
    123          6           0       13.197379   -6.456742    2.535173
    124          1           0       12.079821    2.037790    2.352412
    125          1           0       15.882734    4.856540   -1.755481
    126          1           0       19.076391   -0.710513   -2.816234
    127          1           0       13.012586   -3.024006    2.638683
    128          1           0       12.649711   -0.331906    3.886921
    129          1           0       10.965085   -2.040008    2.058284
    130          1           0       10.935605   -0.345077    1.532338
    131          1           0       10.507999   -0.735878    3.229452
    132          1           0       14.509228   -1.166975    4.613279
    133          1           0       15.466247   -2.154381    3.555736
    134          1           0       14.552368   -2.862558    6.104754
    135          1           0       15.015530   -4.039260    4.966907
    136          1           0       11.989205    5.083655    2.213401
    137          1           0       11.100186    3.595113    1.911244
    138          1           0       10.964129    4.938157    0.769318
    139          1           0       13.181030    7.955242   -0.401597
    140          1           0       12.722643    7.266803    1.226322
    141          1           0       11.877724    6.853074   -0.268078
    142          1           0       18.595275    4.125813   -2.366295
    143          1           0       18.756670    1.762797   -4.040926
    144          1           0       17.992361    4.982527   -4.203432
    145          1           0       16.313610    4.316681   -4.042880
    146          1           0       17.679835    3.557120   -4.982571
    147          1           0       20.483717    1.547362   -1.662244
    148          1           0       20.462908    3.168345   -2.507944
    149          1           0       20.711411    1.439442   -4.617773
    150          1           0       21.637795    0.631284   -3.471048
    151          1           0       22.025091    2.361359   -3.859029
    152          1           0       19.850310   -3.241718   -1.596473
    153          1           0       18.885894   -3.277855   -3.189048
    154          1           0       18.837787   -4.618771   -1.980569
    155          1           0       15.967730   -4.141728    2.238503
    156          1           0       13.129348   -7.141753    1.689588
    157          1           0       12.199712   -6.018039    2.573134
    158          1           0       13.417377   -7.010046    3.448344
 ---------------------------------------------------------------------

 SCF Done:  E(RCAM-B3LYP) =  -4069.83512469     A.U. after   18 cycles

 Excitation energies and oscillator strengths:

 Excited State   1:      Singlet-A      1.7257 eV  718.48 nm  f=0.3487  <S**2>=0.000
     310 -> 316       -0.16057
     312 -> 314        0.68482
 This state for optimization and/or second-order correction.
 Total Energy, E(TD-HF/TD-DFT) =  -4069.77170793
 Copying the excited state density for this state as the 1-particle RhoCI density.

 Excited State   2:      Singlet-A      1.7417 eV  711.85 nm  f=0.4256  <S**2>=0.000
     309 -> 315       -0.17620
     311 -> 313        0.68231
     309 <- 315       -0.10347

 Excited State   3:      Singlet-A      2.2174 eV  559.13 nm  f=0.1299  <S**2>=0.000
     309 -> 313        0.65047
     311 -> 315        0.25330

 Excited State   4:      Singlet-A      2.2842 eV  542.80 nm  f=0.1218  <S**2>=0.000
     310 -> 314        0.63700
     312 -> 316        0.28305

 Excited State   5:      Singlet-A      2.9331 eV  422.71 nm  f=0.0000  <S**2>=0.000
     312 -> 313        0.70709

 The electronic state is 1-A.
 Alpha  occ. eigenvalues --  -46.89147 -46.87770 -19.26427 -19.25264 -19.19920
 Alpha  occ. eigenvalues --  -19.19510 -19.18796 -19.18313 -19.18207 -19.17406
 Alpha  occ. eigenvalues --  -14.42243 -14.42117 -14.42099 -14.41622 -14.40223
 Alpha  occ. eigenvalues --  -14.39829 -14.38643 -14.38470 -10.39500 -10.38316
 Alpha  occ. eigenvalues --  -10.36236 -10.34881 -10.34483 -10.33156 -10.32777
 Alpha  occ. eigenvalues --  -10.31907 -10.31715 -10.31370 -10.31255 -10.31224
 Alpha  occ. eigenvalues --  -10.31014 -10.30681 -10.30629 -10.30558 -10.30452
 Alpha  occ. eigenvalues --  -10.30425 -10.30250 -10.30117 -10.29239 -10.29081
 Alpha  occ. eigenvalues --  -10.29067 -10.29013 -10.28914 -10.28595 -10.28494
 Alpha  occ. eigenvalues --  -10.28444 -10.28411 -10.28381 -10.28344 -10.28319
 Alpha  occ. eigenvalues --  -10.28246 -10.28059 -10.27980 -10.27831 -10.27770
 Alpha  occ. eigenvalues --  -10.27550 -10.27530 -10.27527 -10.27440 -10.27399
 Alpha  occ. eigenvalues --  -10.27331 -10.27264 -10.27213 -10.27149 -10.27097
 Alpha  occ. eigenvalues --  -10.27075 -10.27029 -10.26810 -10.26697 -10.26632
 Alpha  occ. eigenvalues --  -10.26581 -10.26536 -10.26511 -10.26382 -10.26223
 Alpha  occ. eigenvalues --  -10.26165 -10.26039 -10.25889 -10.25799 -10.25708
 Alpha  occ. eigenvalues --  -10.25649 -10.25603 -10.25422 -10.25005 -10.24589
 Alpha  occ. eigenvalues --  -10.23585  -3.17599  -3.16480  -1.92476  -1.92075
 Alpha  occ. eigenvalues --   -1.91882  -1.91390  -1.90915  -1.90811  -1.17450
 Alpha  occ. eigenvalues --   -1.17104  -1.10357  -1.09371  -1.09086  -1.08443
 Alpha  occ. eigenvalues --   -1.08027  -1.07087  -1.05022  -1.04986  -1.04580
 Alpha  occ. eigenvalues --   -1.03915  -1.02923  -1.02769  -1.02346  -1.01554
 Alpha  occ. eigenvalues --   -0.94108  -0.92653  -0.89645  -0.89321  -0.89082
 Alpha  occ. eigenvalues --   -0.88788  -0.88483  -0.88426  -0.87977  -0.87830
 Alpha  occ. eigenvalues --   -0.87034  -0.86638  -0.86368  -0.85885  -0.85139
 Alpha  occ. eigenvalues --   -0.84165  -0.83958  -0.83529  -0.83393  -0.82841
 Alpha  occ. eigenvalues --   -0.82355  -0.81845  -0.81496  -0.81274  -0.80938
 Alpha  occ. eigenvalues --   -0.80381  -0.78909  -0.78662  -0.78034  -0.77425
 Alpha  occ. eigenvalues --   -0.77097  -0.76768  -0.76202  -0.75604  -0.74999
 Alpha  occ. eigenvalues --   -0.74981  -0.73104  -0.72552  -0.72165  -0.71407
 Alpha  occ. eigenvalues --   -0.70188  -0.69188  -0.69159  -0.68882  -0.68871
 Alpha  occ. eigenvalues --   -0.67610  -0.67393  -0.67171  -0.66598  -0.65418
 Alpha  occ. eigenvalues --   -0.65377  -0.65254  -0.65244  -0.65016  -0.64507
 Alpha  occ. eigenvalues --   -0.64429  -0.63864  -0.62477  -0.60790  -0.60281
 Alpha  occ. eigenvalues --   -0.59774  -0.59596  -0.59379  -0.59142  -0.58864
 Alpha  occ. eigenvalues --   -0.58631  -0.58426  -0.58062  -0.57767  -0.57302
 Alpha  occ. eigenvalues --   -0.56880  -0.56643  -0.56627  -0.55845  -0.55666
 Alpha  occ. eigenvalues --   -0.55330  -0.55197  -0.54557  -0.54463  -0.54289
 Alpha  occ. eigenvalues --   -0.53825  -0.53792  -0.53539  -0.53529  -0.53166
 Alpha  occ. eigenvalues --   -0.53113  -0.52597  -0.52544  -0.52527  -0.52155
 Alpha  occ. eigenvalues --   -0.51926  -0.51861  -0.51775  -0.51471  -0.51316
 Alpha  occ. eigenvalues --   -0.51118  -0.51036  -0.50957  -0.50737  -0.50413
 Alpha  occ. eigenvalues --   -0.50375  -0.50300  -0.49983  -0.49643  -0.49640
 Alpha  occ. eigenvalues --   -0.49509  -0.49264  -0.49156  -0.48795  -0.48723
 Alpha  occ. eigenvalues --   -0.48636  -0.48524  -0.48513  -0.48418  -0.48199
 Alpha  occ. eigenvalues --   -0.47902  -0.47677  -0.47668  -0.47540  -0.47179
 Alpha  occ. eigenvalues --   -0.47135  -0.46763  -0.46742  -0.46564  -0.46472
 Alpha  occ. eigenvalues --   -0.46447  -0.46398  -0.46094  -0.46079  -0.45773
 Alpha  occ. eigenvalues --   -0.45679  -0.45276  -0.45271  -0.45065  -0.44900
 Alpha  occ. eigenvalues --   -0.44708  -0.44694  -0.44657  -0.44578  -0.44556
 Alpha  occ. eigenvalues --   -0.44450  -0.44292  -0.43777  -0.43693  -0.43661
 Alpha  occ. eigenvalues --   -0.43585  -0.43085  -0.42850  -0.42850  -0.42616
 Alpha  occ. eigenvalues --   -0.42477  -0.42348  -0.42343  -0.42282  -0.41944
 Alpha  occ. eigenvalues --   -0.41942  -0.41822  -0.41576  -0.41317  -0.41190
 Alpha  occ. eigenvalues --   -0.41115  -0.41000  -0.40816  -0.40519  -0.40377
 Alpha  occ. eigenvalues --   -0.40064  -0.39736  -0.39564  -0.39231  -0.38815
 Alpha  occ. eigenvalues --   -0.38718  -0.38275  -0.37867  -0.37729  -0.37631
 Alpha  occ. eigenvalues --   -0.37558  -0.37419  -0.36925  -0.36913  -0.36470
 Alpha  occ. eigenvalues --   -0.36312  -0.36006  -0.34730  -0.34240  -0.34031
 Alpha  occ. eigenvalues --   -0.33847  -0.33143  -0.32809  -0.32266  -0.31818
 Alpha  occ. eigenvalues --   -0.31392  -0.30924  -0.30901  -0.30478  -0.30141
 Alpha  occ. eigenvalues --   -0.29686  -0.29266  -0.29025  -0.24335  -0.24124
 Alpha  occ. eigenvalues --   -0.21705  -0.21058
 Alpha virt. eigenvalues --   -0.09179  -0.08584  -0.01921  -0.01698   0.00111
 Alpha virt. eigenvalues --    0.00520   0.01305   0.01976   0.02813   0.03411
 Alpha virt. eigenvalues --    0.04954   0.05474   0.05565   0.05877   0.06048

 Mulliken charges:
               1
     1  Mg   0.798093
     2  C    0.012003
     3  C   -0.057766
     4  C   -0.074857
     5  C   -0.069373
     6  N   -0.239860
     7  C   -0.031570
     8  C   -0.030229
     9  C   -0.077645
    10  C    0.066863
    11  C    0.065570
    12  C    0.047153
    13  C   -0.074971
    14  H    0.019481
    15  N   -0.433539
    16  C    0.128991
    17  C   -0.132452
    18  C   -0.006661
    19  C    0.147984
    20  C    0.133197
    21  C   -0.016230
    22  O   -0.242381
    23  C    0.084007
    24  N   -0.253728
    25  C    0.012182
    26  C   -0.005328
    27  C   -0.034267
    28  C    0.078960
    29  C    0.065253
    30  C    0.032729
    31  C   -0.000112
    32  N   -0.354110
    33  C    0.076942
    34  C   -0.160919
    35  C    0.052252
    36  C    0.082340
    37  C    0.092170
    38  C   -0.004172
    39  O   -0.166083
    40  C   -0.005037
    41  C    0.184390
    42  O   -0.197320
    43  O   -0.322844
    44  C    0.181843
    45  H   -0.028957
    46  H   -0.058570
    47  H   -0.033044
    48  H   -0.003123
    49  H    0.010701
    50  H    0.015688
    51  H    0.005831
    52  H    0.017926
    53  H    0.000224
    54  H    0.007591
    55  H    0.057147
    56  H    0.043869
    57  H    0.028885
    58  H    0.009072
    59  H    0.039341
    60  H    0.033915
    61  H    0.054636
    62  H    0.027282
    63  H    0.023316
    64  H    0.016300
    65  H    0.015892
    66  H    0.029097
    67  H    0.005107
    68  H    0.011806
    69  H    0.004210
    70  H    0.012611
    71  H    0.012490
    72  H    0.025044
    73  H    0.015417
    74  H    0.034460
    75  H    0.015835
    76  H    0.059800
    77  H    0.045719
    78  H    0.040634
    79  H    0.032896
    80  Mg   0.840679
    81  C    0.028126
    82  C   -0.106874
    83  C   -0.066751
    84  C   -0.071306
    85  N   -0.281529
    86  C   -0.102069
    87  C   -0.000418
    88  C   -0.045967
    89  C    0.075564
    90  C    0.067046
    91  C    0.037845
    92  C   -0.060886
    93  H    0.017329
    94  N   -0.375433
    95  C    0.135977
    96  C   -0.158190
    97  C   -0.029501
    98  C    0.112162
    99  C    0.127614
   100  C    0.018923
   101  O   -0.213652
   102  C    0.015280
   103  N   -0.316310
   104  C    0.098078
   105  C   -0.060691
   106  C   -0.001786
   107  C    0.049116
   108  C    0.056772
   109  C    0.052998
   110  C   -0.019151
   111  N   -0.321806
   112  C    0.076450
   113  C   -0.187190
   114  C    0.016459
   115  C    0.096303
   116  C    0.134233
   117  C    0.001234
   118  O   -0.166756
   119  C   -0.002515
   120  C    0.159857
   121  O   -0.226902
   122  O   -0.302929
   123  C    0.183676
   124  H   -0.025761
   125  H    0.002391
   126  H   -0.035509
   127  H    0.026763
   128  H    0.014444
   129  H    0.029558
   130  H    0.022751
   131  H    0.018083
   132  H    0.007143
   133  H    0.019962
   134  H    0.019462
   135  H    0.040701
   136  H    0.029966
   137  H    0.017890
   138  H    0.035620
   139  H    0.033418
   140  H    0.043094
   141  H    0.031305
   142  H    0.017420
   143  H    0.009775
   144  H    0.005341
   145  H    0.040356
   146  H    0.003610
   147  H    0.024241
   148  H    0.003379
   149  H    0.001210
   150  H    0.016282
   151  H    0.023413
   152  H    0.031493
   153  H    0.031587
   154  H    0.036719
   155  H    0.038102
   156  H    0.036769
   157  H    0.027764
   158  H    0.038151
 Sum of Mulliken charges =  -0.00000

 Dipole moment (field-independent basis, Debye):
    X=             -2.6684    Y=              8.0402    Z=              5.3561  Tot=             10.0226
 Quadrupole moment (field-independent basis, Debye-Ang):
   XX=           -487.7659   YY=           -583.1375   ZZ=           -496.7087
   XY=            -31.5162   XZ=            -18.3779   YZ=            -36.2030

 Normal termination of Gaussian 16 at Wed Sep 15 18:50:42 2021.
