 Gaussian 16, Revision A.03,
 Gaussian 16:  ES64L-G16RevA.03 25-Dec-2016

 -----------------------------------
 #p cam-b3lyp/Def2SVP td=(nstates=5)
 -----------------------------------

 --------------------------------
 TDDFT excited states in gaussian
 --------------------------------
 Symbolic Z-matrix:
 Charge =  0 Multiplicity = 1

                         Standard orientation:
 ---------------------------------------------------------------------
 Center     Atomic      Atomic             Coordinates (Angstroms)
 Number     Number       Type             X           Y           Z
 ---------------------------------------------------------------------
      1         12           0        9.244489   -0.347422   -0.287977
      2          6           0        7.146945    2.307342   -0.384170
      3          6           0       11.788285    1.704929    0.887481
      4          6           0       11.343970   -3.001762   -0.197789
      5          6           0        6.875660   -2.279816   -1.912031
      6          7           0        9.341733    1.682109    0.264380
      7          6           0        8.387437    2.636786    0.125454
      8          6           0        8.774011    3.936668    0.781402
      9          6           0       10.338014    3.812464    0.929648
     10          6           0       10.499942    2.273422    0.704068
     11          6           0       11.300541    4.725099    0.060511
     12          6           0        8.100110    4.097874    2.217934
     13          6           0        7.969659    5.587740    2.651661
     14          1           0        8.932231    6.670947    2.136625
     15          7           0       11.335202   -0.642452    0.191872
     16          6           0       12.190433    0.381609    0.676716
     17          6           0       13.484521   -0.167678    0.948594
     18          6           0       13.393230   -1.567177    0.619928
     19          6           0       11.960820   -1.766334    0.197503
     20          6           0       14.619224    0.589250    1.544615
     21          6           0       14.462922   -2.650486    0.701043
     22          8           0       14.342053   -3.840099    0.285118
     23          6           0       15.815775   -2.317215    1.306784
     24          7           0        9.164731   -2.324373   -1.012134
     25          6           0       10.094624   -3.313082   -0.686673
     26          6           0        9.606796   -4.769472   -0.936114
     27          6           0        8.097335   -4.441316   -1.457282
     28          6           0        7.999992   -2.959733   -1.445723
     29          6           0       10.512149   -5.428147   -1.984887
     30          6           0        7.012938   -5.141585   -0.692669
     31          6           0        6.106838   -5.968589   -1.559275
     32          7           0        7.482868   -0.131510   -1.112875
     33          6           0        6.573401   -0.982017   -1.729137
     34          6           0        5.399880   -0.271229   -2.079245
     35          6           0        5.556566    1.064627   -1.621435
     36          6           0        6.792916    1.089703   -0.942210
     37          6           0        4.175269   -0.763340   -2.750118
     38          6           0        4.985327    2.393479   -1.637978
     39          8           0        3.992793    2.897447   -2.126189
     40          6           0        6.019832    3.223814   -0.739717
     41          6           0        6.263331    4.589588   -1.273160
     42          8           0        6.443958    4.890246   -2.425459
     43          8           0        6.231775    5.542284   -0.328393
     44          6           0        6.488014    6.920760   -0.834516
     45          1           0       12.552739    2.459997    1.082901
     46          1           0       12.068154   -3.814002   -0.287832
     47          1           0        6.035708   -2.843820   -2.322744
     48          1           0        8.636320    4.793132    0.121606
     49          1           0       10.593777    3.964978    1.977692
     50          1           0       10.671671    5.428156   -0.485814
     51          1           0       11.970187    4.229751   -0.640769
     52          1           0       11.968258    5.224962    0.762474
     53          1           0        8.736551    3.508609    2.878326
     54          1           0        7.109180    3.647346    2.160193
     55          1           0        8.040637    5.517020    3.737202
     56          1           0        6.931613    5.865024    2.470071
     57          1           0       14.600610    0.696680    2.629195
     58          1           0       14.612826    1.556249    1.043217
     59          1           0       15.593866    0.235424    1.209803
     60          1           0       16.395396   -1.859241    0.505429
     61          1           0       16.251856   -3.282747    1.561886
     62          1           0       15.767970   -1.626883    2.149143
     63          1           0        9.740753   -5.295974    0.008924
     64          1           0        8.008496   -4.782702   -2.489176
     65          1           0       11.225880   -4.769114   -2.479661
     66          1           0        9.893410   -6.006122   -2.670924
     67          1           0       11.148581   -6.119653   -1.431975
     68          1           0        6.329075   -4.456776   -0.191030
     69          1           0        7.366904   -5.790035    0.108880
     70          1           0        5.951395   -6.976895   -1.176600
     71          1           0        6.508162   -6.073687   -2.566891
     72          1           0        5.209968   -5.357234   -1.663360
     73          1           0        4.313086   -1.578267   -3.461375
     74          1           0        3.939344    0.038089   -3.450818
     75          1           0        3.416127   -1.008374   -2.007233
     76          1           0        5.373270    3.326012    0.132326
     77          1           0        5.614324    7.344114   -1.332069
     78          1           0        7.413388    6.979294   -1.407785
     79          1           0        6.674979    7.566560    0.023789
     80         12           0       -8.774337   -0.993498    0.557687
     81          6           0      -10.080826    2.061757   -0.561809
     82          6           0       -7.173364    0.727191    3.073700
     83          6           0       -7.532061   -3.877390    1.573363
     84          6           0      -10.353604   -2.554472   -2.164807
     85          7           0       -8.750334    1.132289    1.180489
     86          6           0       -9.332678    2.250998    0.584351
     87          6           0       -9.305005    3.534161    1.504346
     88          6           0       -8.270705    3.072936    2.512910
     89          6           0       -8.038437    1.526246    2.258852
     90          6           0       -6.872100    3.802571    2.262317
     91          6           0      -10.755374    3.567934    2.162609
     92          6           0      -11.462326    4.988855    2.286317
     93          1           0      -10.421956    6.054600    2.518449
     94          7           0       -7.445098   -1.456506    1.980605
     95          6           0       -6.897037   -0.659385    2.893475
     96          6           0       -6.049594   -1.370899    3.813403
     97          6           0       -6.265543   -2.733663    3.528059
     98          6           0       -7.081986   -2.745658    2.256200
     99          6           0       -5.214513   -0.766055    4.881817
    100          6           0       -5.890147   -3.973920    4.312604
    101          8           0       -6.363868   -5.090027    4.071157
    102          6           0       -4.802623   -3.896938    5.387759
    103          7           0       -8.899116   -2.952312   -0.248307
    104          6           0       -8.314629   -3.969849    0.468245
    105          6           0       -8.730111   -5.300182   -0.156222
    106          6           0       -9.760480   -4.894031   -1.319274
    107          6           0       -9.742891   -3.390461   -1.233793
    108          6           0       -7.454307   -6.118352   -0.564323
    109          6           0      -11.148330   -5.512366   -1.256478
    110          6           0      -11.586373   -6.209712   -2.582374
    111          7           0       -9.948409   -0.377755   -1.046149
    112          6           0      -10.517893   -1.140443   -2.113683
    113          6           0      -11.217194   -0.290331   -3.009658
    114          6           0      -11.062354    0.975075   -2.418895
    115          6           0      -10.248456    0.853695   -1.273522
    116          6           0      -11.990855   -0.603490   -4.249746
    117          6           0      -11.396012    2.359089   -2.529083
    118          8           0      -12.014493    2.991781   -3.352446
    119          6           0      -10.855238    3.078463   -1.261077
    120          6           0      -10.134155    4.309122   -1.676377
    121          8           0       -9.052325    4.386117   -2.251832
    122          8           0      -10.863289    5.345785   -1.252011
    123          6           0      -10.313787    6.667411   -1.470437
    124          1           0       -6.726152    1.120740    3.988749
    125          1           0       -7.080151   -4.796777    1.954059
    126          1           0      -10.911477   -3.005133   -2.988377
    127          1           0       -9.168576    4.368035    0.816460
    128          1           0       -8.640924    3.221950    3.526672
    129          1           0       -6.901314    4.474482    1.404313
    130          1           0       -6.114598    3.038408    2.089181
    131          1           0       -6.680252    4.330602    3.196448
    132          1           0      -10.776307    3.176178    3.179129
    133          1           0      -11.368775    2.884341    1.575051
    134          1           0      -12.030287    5.054381    3.214414
    135          1           0      -12.233459    5.119806    1.526728
    136          1           0       -5.661753   -1.065398    5.830673
    137          1           0       -5.234678    0.321881    4.835448
    138          1           0       -4.175702   -1.093881    4.856934
    139          1           0       -4.543037   -4.953039    5.457313
    140          1           0       -5.140818   -3.464850    6.330319
    141          1           0       -3.861496   -3.420464    5.113909
    142          1           0       -9.258811   -5.987188    0.504473
    143          1           0       -9.318606   -5.167703   -2.277459
    144          1           0       -7.632722   -7.134206   -0.211570
    145          1           0       -6.520829   -5.702308   -0.185208
    146          1           0       -7.438552   -6.316876   -1.636626
    147          1           0      -11.936352   -4.816958   -0.969174
    148          1           0      -11.028308   -6.353575   -0.572328
    149          1           0      -10.762463   -6.233822   -3.295786
    150          1           0      -12.315689   -5.612491   -3.129290
    151          1           0      -11.928433   -7.228694   -2.400172
    152          1           0      -12.895551   -1.042542   -3.828291
    153          1           0      -11.356452   -1.249847   -4.855861
    154          1           0      -12.293752    0.292213   -4.790203
    155          1           0      -11.764851    3.423534   -0.767710
    156          1           0      -10.066087    6.797953   -2.524233
    157          1           0       -9.372814    6.897424   -0.969534
    158          1           0      -11.094750    7.370245   -1.179664
 ---------------------------------------------------------------------

 SCF Done:  E(RCAM-B3LYP) =  -4069.83849549     A.U. after   19 cycles

 Excitation energies and oscillator strengths:

 Excited State   1:      Singlet-A      1.6461 eV  753.20 nm  f=0.4240  <S**2>=0.000
     309 -> 315       -0.16986
     311 -> 313        0.68861
     309 <- 315       -0.10741
 This state for optimization and/or second-order correction.
 Total Energy, E(TD-HF/TD-DFT) =  -4069.77800237
 Copying the excited state density for this state as the 1-particle RhoCI density.

 Excited State   2:      Singlet-A      1.7251 eV  718.70 nm  f=0.3594  <S**2>=0.000
     310 -> 316       -0.16090
     312 -> 314        0.68726

 Excited State   3:      Singlet-A      2.2273 eV  556.67 nm  f=0.1040  <S**2>=0.000
     309 -> 313        0.63790
     311 -> 315        0.29170

 Excited State   4:      Singlet-A      2.2832 eV  543.04 nm  f=0.1237  <S**2>=0.000
     310 -> 314        0.63688
     312 -> 316        0.28240

 Excited State   5:      Singlet-A      2.7502 eV  450.82 nm  f=0.0000  <S**2>=0.000
     312 -> 313        0.70692

 The electronic state is 1-A.
 Alpha  occ. eigenvalues --  -46.87685 -46.87175 -19.25185 -19.25148 -19.19871
 Alpha  occ. eigenvalues --  -19.19235 -19.18771 -19.18675 -19.18518 -19.17316
 Alpha  occ. eigenvalues --  -14.42881 -14.42154 -14.41712 -14.41541 -14.40142
 Alpha  occ. eigenvalues --  -14.39551 -14.38783 -14.38384 -10.38605 -10.38199
 Alpha  occ. eigenvalues --  -10.36189 -10.35247 -10.35159 -10.33064 -10.32058
 Alpha  occ. eigenvalues --  -10.31814 -10.31379 -10.31251 -10.30980 -10.30935
 Alpha  occ. eigenvalues --  -10.30755 -10.30602 -10.30543 -10.30506 -10.30364
 Alpha  occ. eigenvalues --  -10.30137 -10.30041 -10.29877 -10.29398 -10.28993
 Alpha  occ. eigenvalues --  -10.28972 -10.28930 -10.28878 -10.28834 -10.28767
 Alpha  occ. eigenvalues --  -10.28347 -10.28278 -10.28242 -10.28169 -10.28067
 Alpha  occ. eigenvalues --  -10.27907 -10.27907 -10.27889 -10.27817 -10.27770
 Alpha  occ. eigenvalues --  -10.27678 -10.27559 -10.27539 -10.27498 -10.27486
 Alpha  occ. eigenvalues --  -10.27446 -10.27441 -10.27225 -10.27063 -10.27015
 Alpha  occ. eigenvalues --  -10.27009 -10.26839 -10.26618 -10.26607 -10.26447
 Alpha  occ. eigenvalues --  -10.26165 -10.26068 -10.26023 -10.25913 -10.25838
 Alpha  occ. eigenvalues --  -10.25812 -10.25782 -10.25715 -10.25654 -10.25640
 Alpha  occ. eigenvalues --  -10.25496 -10.25405 -10.25367 -10.25264 -10.25148
 Alpha  occ. eigenvalues --  -10.23500  -3.16394  -3.16034  -1.91304  -1.90924
 Alpha  occ. eigenvalues --   -1.90830  -1.90725  -1.90468  -1.90379  -1.17323
 Alpha  occ. eigenvalues --   -1.16988  -1.10310  -1.10150  -1.09279  -1.07431
 Alpha  occ. eigenvalues --   -1.07270  -1.06967  -1.04904  -1.04553  -1.03829
 Alpha  occ. eigenvalues --   -1.03595  -1.02839  -1.02744  -1.02263  -1.01437
 Alpha  occ. eigenvalues --   -0.93398  -0.92562  -0.89745  -0.89570  -0.88837
 Alpha  occ. eigenvalues --   -0.88624  -0.88415  -0.88331  -0.87907  -0.87706
 Alpha  occ. eigenvalues --   -0.87249  -0.86950  -0.86555  -0.86436  -0.84358
 Alpha  occ. eigenvalues --   -0.83867  -0.83850  -0.83447  -0.82508  -0.82289
 Alpha  occ. eigenvalues --   -0.81781  -0.81690  -0.81186  -0.81081  -0.80532
 Alpha  occ. eigenvalues --   -0.80305  -0.78839  -0.78384  -0.77805  -0.77391
 Alpha  occ. eigenvalues --   -0.77352  -0.76678  -0.76553  -0.75506  -0.75243
 Alpha  occ. eigenvalues --   -0.74900  -0.73022  -0.72907  -0.71875  -0.71322
 Alpha  occ. eigenvalues --   -0.69121  -0.69114  -0.68801  -0.68720  -0.68233
 Alpha  occ. eigenvalues --   -0.67533  -0.67308  -0.66733  -0.65892  -0.65386
 Alpha  occ. eigenvalues --   -0.65328  -0.65167  -0.64930  -0.64805  -0.64419
 Alpha  occ. eigenvalues --   -0.64106  -0.62378  -0.62361  -0.60721  -0.60350
 Alpha  occ. eigenvalues --   -0.59961  -0.59510  -0.59058  -0.58996  -0.58547
 Alpha  occ. eigenvalues --   -0.58401  -0.58026  -0.57738  -0.57672  -0.57222
 Alpha  occ. eigenvalues --   -0.56573  -0.56113  -0.55564  -0.55521  -0.55254
 Alpha  occ. eigenvalues --   -0.55213  -0.55002  -0.54363  -0.53972  -0.53748
 Alpha  occ. eigenvalues --   -0.53466  -0.53380  -0.53104  -0.53024  -0.52919
 Alpha  occ. eigenvalues --   -0.52595  -0.52518  -0.52463  -0.52453  -0.52170
 Alpha  occ. eigenvalues --   -0.52093  -0.52004  -0.51688  -0.51329  -0.51229
 Alpha  occ. eigenvalues --   -0.51183  -0.50972  -0.50656  -0.50339  -0.50339
 Alpha  occ. eigenvalues --   -0.50233  -0.50120  -0.50006  -0.49912  -0.49628
 Alpha  occ. eigenvalues --   -0.49544  -0.49182  -0.49035  -0.48903  -0.48556
 Alpha  occ. eigenvalues --   -0.48445  -0.48415  -0.48346  -0.48254  -0.48023
 Alpha  occ. eigenvalues --   -0.47801  -0.47794  -0.47595  -0.47469  -0.47349
 Alpha  occ. eigenvalues --   -0.47244  -0.47102  -0.46733  -0.46654  -0.46631
 Alpha  occ. eigenvalues --   -0.46477  -0.46380  -0.46312  -0.46000  -0.45950
 Alpha  occ. eigenvalues --   -0.45222  -0.45190  -0.44975  -0.44938  -0.44803
 Alpha  occ. eigenvalues --   -0.44629  -0.44578  -0.44471  -0.44372  -0.44202
 Alpha  occ. eigenvalues --   -0.44071  -0.43918  -0.43635  -0.43607  -0.43544
 Alpha  occ. eigenvalues --   -0.43313  -0.43196  -0.42985  -0.42802  -0.42521
 Alpha  occ. eigenvalues --   -0.42433  -0.42378  -0.42257  -0.42065  -0.41979
 Alpha  occ. eigenvalues --   -0.41844  -0.41480  -0.41454  -0.41051  -0.41009
 Alpha  occ. eigenvalues --   -0.40927  -0.40736  -0.40524  -0.40467  -0.40424
 Alpha  occ. eigenvalues --   -0.40310  -0.40081  -0.39993  -0.39655  -0.38724
 Alpha  occ. eigenvalues --   -0.38290  -0.38210  -0.38003  -0.37646  -0.37546
 Alpha  occ. eigenvalues --   -0.37331  -0.37227  -0.37057  -0.36825  -0.36636
 Alpha  occ. eigenvalues --   -0.36371  -0.36210  -0.34623  -0.34156  -0.34155
 Alpha  occ. eigenvalues --   -0.33737  -0.33365  -0.32719  -0.32214  -0.31557
 Alpha  occ. eigenvalues --   -0.31323  -0.30817  -0.30754  -0.30737  -0.29972
 Alpha  occ. eigenvalues --   -0.29603  -0.29595  -0.29178  -0.24343  -0.24038
 Alpha  occ. eigenvalues --   -0.21063  -0.20975
 Alpha virt. eigenvalues --   -0.08991  -0.08505  -0.01648  -0.01623   0.00088
 Alpha virt. eigenvalues --    0.00594   0.02137   0.02897   0.03120   0.03488
 Alpha virt. eigenvalues --    0.04720   0.05438   0.05668   0.05848   0.05968

 Mulliken charges:
               1
     1  Mg   0.841474
     2  C    0.034330
     3  C   -0.093059
     4  C   -0.054439
     5  C   -0.125362
     6  N   -0.303497
     7  C   -0.052247
     8  C    0.000596
     9  C   -0.079177
    10  C    0.037404
    11  C    0.069892
    12  C    0.044576
    13  C   -0.036831
    14  H    0.030062
    15  N   -0.308328
    16  C    0.155142
    17  C   -0.140380
    18  C   -0.029024
    19  C    0.069223
    20  C    0.113440
    21  C    0.007988
    22  O   -0.244586
    23  C    0.041255
    24  N   -0.320950
    25  C    0.036030
    26  C   -0.042195
    27  C    0.024943
    28  C    0.084761
    29  C    0.056683
    30  C    0.037037
    31  C   -0.008453
    32  N   -0.439305
    33  C    0.178988
    34  C   -0.175182
    35  C   -0.013957
    36  C    0.109841
    37  C    0.115549
    38  C    0.073161
    39  O   -0.144319
    40  C   -0.038004
    41  C    0.155744
    42  O   -0.198485
    43  O   -0.329263
    44  C    0.182693
    45  H   -0.027456
    46  H   -0.007682
    47  H   -0.042291
    48  H    0.004054
    49  H    0.010648
    50  H    0.020688
    51  H    0.027235
    52  H    0.015733
    53  H    0.012743
    54  H    0.016853
    55  H    0.020197
    56  H    0.037889
    57  H    0.049575
    58  H    0.012700
    59  H    0.009493
    60  H    0.044281
    61  H    0.032977
    62  H    0.028555
    63  H    0.029273
    64  H    0.012882
    65  H    0.039472
    66  H    0.014950
    67  H    0.019095
    68  H    0.008244
    69  H    0.002539
    70  H    0.020642
    71  H    0.002643
    72  H    0.017181
    73  H    0.005142
    74  H    0.039200
    75  H    0.044575
    76  H    0.038090
    77  H    0.052187
    78  H    0.041719
    79  H    0.022209
    80  Mg   0.841045
    81  C    0.028215
    82  C   -0.106502
    83  C   -0.066936
    84  C   -0.071230
    85  N   -0.281560
    86  C   -0.101632
    87  C   -0.000364
    88  C   -0.046170
    89  C    0.075645
    90  C    0.067053
    91  C    0.037896
    92  C   -0.060870
    93  H    0.017492
    94  N   -0.375387
    95  C    0.136040
    96  C   -0.158077
    97  C   -0.029774
    98  C    0.112288
    99  C    0.127617
   100  C    0.018818
   101  O   -0.213911
   102  C    0.015454
   103  N   -0.316263
   104  C    0.098141
   105  C   -0.060650
   106  C   -0.001828
   107  C    0.049122
   108  C    0.056892
   109  C    0.053089
   110  C   -0.019158
   111  N   -0.321875
   112  C    0.076550
   113  C   -0.187029
   114  C    0.016469
   115  C    0.096528
   116  C    0.134214
   117  C    0.001422
   118  O   -0.166656
   119  C   -0.002624
   120  C    0.159787
   121  O   -0.226220
   122  O   -0.303117
   123  C    0.183567
   124  H   -0.025945
   125  H    0.002047
   126  H   -0.035595
   127  H    0.027047
   128  H    0.014151
   129  H    0.030151
   130  H    0.023346
   131  H    0.017814
   132  H    0.006943
   133  H    0.019839
   134  H    0.019221
   135  H    0.040666
   136  H    0.029606
   137  H    0.018127
   138  H    0.035370
   139  H    0.032962
   140  H    0.042930
   141  H    0.031021
   142  H    0.017189
   143  H    0.009825
   144  H    0.005019
   145  H    0.040261
   146  H    0.003569
   147  H    0.024214
   148  H    0.003192
   149  H    0.001249
   150  H    0.016313
   151  H    0.023229
   152  H    0.031304
   153  H    0.031708
   154  H    0.036804
   155  H    0.037963
   156  H    0.037016
   157  H    0.028059
   158  H    0.037875
 Sum of Mulliken charges =  -0.00000

 Dipole moment (field-independent basis, Debye):
    X=              3.4578    Y=             -0.0558    Z=              9.4747  Tot=             10.0861
 Quadrupole moment (field-independent basis, Debye-Ang):
   XX=           -503.4448   YY=           -485.8754   ZZ=           -515.9124
   XY=             57.5367   XZ=             -8.4281   YZ=             50.9945

 Normal termination of Gaussian 16 at Wed Sep 15 22:01:43 2021.
