 Gaussian 16, Revision A.03,
 Gaussian 16:  ES64L-G16RevA.03 25-Dec-2016

 -----------------------------------
 #p cam-b3lyp/Def2SVP td=(nstates=5)
 -----------------------------------

 --------------------------------
 TDDFT excited states in gaussian
 --------------------------------
 Symbolic Z-matrix:
 Charge =  0 Multiplicity = 1

                         Standard orientation:
 ---------------------------------------------------------------------
 Center     Atomic      Atomic             Coordinates (Angstroms)
 Number     Number       Type             X           Y           Z
 ---------------------------------------------------------------------
      1         12           0        8.656630    0.535910    0.111748
      2          6           0        7.076648   -1.644604   -2.146396
      3          6           0        7.603284    3.179865   -1.817530
      4          6           0        9.490947    2.500644    2.639451
      5          6           0        9.454875   -2.263921    2.146839
      6          7           0        7.276958    0.740258   -1.601275
      7          6           0        6.731970   -0.300015   -2.397469
      8          6           0        6.233794    0.177009   -3.699120
      9          6           0        6.507309    1.740410   -3.610983
     10          6           0        7.208903    1.913094   -2.273064
     11          6           0        7.235051    2.287897   -4.862650
     12          6           0        4.762273   -0.007505   -3.912442
     13          6           0        3.855519    0.196499   -2.689601
     14          1           0        2.420210    0.838337   -2.827877
     15          7           0        8.606924    2.593395    0.397581
     16          6           0        8.258348    3.474363   -0.559525
     17          6           0        8.532910    4.804260   -0.075839
     18          6           0        9.152070    4.646605    1.188611
     19          6           0        9.143807    3.201899    1.469339
     20          6           0        8.187907    6.088907   -0.780055
     21          6           0        9.696995    5.776816    2.061358
     22          8           0        9.616558    6.936862    1.707399
     23          6           0       10.267043    5.666753    3.444492
     24          7           0        9.124949    0.183713    2.185797
     25          6           0        9.491487    1.190658    3.038482
     26          6           0       10.172443    0.628361    4.329456
     27          6           0        9.842322   -0.892071    4.234889
     28          6           0        9.470489   -1.011635    2.773161
     29          6           0       11.700759    0.852723    4.427571
     30          6           0        8.536340   -1.378844    5.023477
     31          6           0        8.669354   -2.608229    5.847228
     32          7           0        8.460378   -1.475368    0.028770
     33          6           0        8.986671   -2.431527    0.805941
     34          6           0        9.003422   -3.749976    0.066828
     35          6           0        8.290481   -3.426393   -1.131276
     36          6           0        7.857479   -2.073448   -1.037876
     37          6           0        9.569087   -5.103845    0.470966
     38          6           0        7.703360   -4.025722   -2.294807
     39          8           0        7.700180   -5.185570   -2.675972
     40          6           0        6.910666   -2.863497   -3.018377
     41          6           0        5.439685   -3.214441   -2.933687
     42          8           0        4.754851   -3.241348   -1.965046
     43          8           0        4.973745   -3.397857   -4.218204
     44          6           0        3.511621   -3.459598   -4.311508
     45          1           0        7.440592    3.992162   -2.528714
     46          1           0        9.934479    3.129112    3.413524
     47          1           0        9.855055   -3.071153    2.763818
     48          1           0        6.780789   -0.356195   -4.476667
     49          1           0        5.636030    2.369075   -3.427541
     50          1           0        6.614833    3.156327   -5.085304
     51          1           0        7.195012    1.505382   -5.620474
     52          1           0        8.244774    2.639481   -4.649704
     53          1           0        4.505611   -0.910544   -4.466924
     54          1           0        4.312921    0.690256   -4.619405
     55          1           0        4.456312    0.782977   -1.993654
     56          1           0        3.804410   -0.811231   -2.276953
     57          1           0        7.723204    6.798544   -0.094732
     58          1           0        7.575305    5.877162   -1.656318
     59          1           0        9.153752    6.479985   -1.100798
     60          1           0        9.565139    5.355207    4.217367
     61          1           0       10.452004    6.715844    3.675847
     62          1           0       11.261924    5.220616    3.464895
     63          1           0        9.709598    1.117021    5.186732
     64          1           0       10.690824   -1.535276    4.469627
     65          1           0       12.198109   -0.113499    4.344896
     66          1           0       11.960681    1.515109    5.253112
     67          1           0       12.022080    1.421690    3.555878
     68          1           0        7.689342   -1.490021    4.346864
     69          1           0        8.303020   -0.538888    5.678022
     70          1           0        8.392470   -2.454747    6.890037
     71          1           0        9.664548   -3.051900    5.810117
     72          1           0        7.994938   -3.395116    5.510565
     73          1           0        8.733008   -5.802989    0.453701
     74          1           0       10.130950   -4.965948    1.395582
     75          1           0       10.212028   -5.406890   -0.355306
     76          1           0        7.233722   -2.721677   -4.049455
     77          1           0        3.010114   -2.874389   -3.540837
     78          1           0        3.295855   -4.520473   -4.184281
     79          1           0        3.273779   -3.243430   -5.352694
     80         12           0       -8.682815    0.167577   -0.069433
     81          6           0       -6.133242   -2.193960   -0.248383
     82          6           0       -6.735742    2.414411   -1.654385
     83          6           0      -11.038553    2.509570    0.555907
     84          6           0      -10.412230   -2.015508    1.963558
     85          7           0       -6.610560    0.082574   -0.850388
     86          6           0       -5.850026   -1.049949   -0.993686
     87          6           0       -4.618746   -0.750981   -1.761331
     88          6           0       -4.720001    0.716854   -2.192116
     89          6           0       -6.112926    1.155528   -1.565004
     90          6           0       -3.569514    1.659104   -1.873600
     91          6           0       -4.418734   -1.796425   -2.999532
     92          6           0       -3.156980   -2.690914   -2.988190
     93          1           0       -2.401425   -2.979509   -4.262062
     94          7           0       -8.920445    2.141913   -0.590746
     95          6           0       -7.983549    2.925907   -1.247116
     96          6           0       -8.471896    4.251608   -1.364909
     97          6           0       -9.736577    4.314148   -0.719408
     98          6           0       -9.956553    2.948071   -0.233536
     99          6           0       -7.643868    5.280468   -2.229928
    100          6           0      -10.573665    5.579459   -0.540127
    101          8           0      -11.639566    5.651939    0.089965
    102          6           0      -10.168629    6.816943   -1.212514
    103          7           0      -10.377551    0.372781    1.289065
    104          6           0      -11.244535    1.364106    1.281243
    105          6           0      -12.351570    1.139943    2.335922
    106          6           0      -12.334063   -0.439406    2.322616
    107          6           0      -10.936286   -0.743158    1.792703
    108          6           0      -12.185550    1.682822    3.803569
    109          6           0      -13.468990   -1.172656    1.459070
    110          6           0      -13.536143   -0.888856    0.014419
    111          7           0       -8.392122   -1.771285    0.809101
    112          6           0       -9.219558   -2.561857    1.630528
    113          6           0       -8.563739   -3.799129    1.911301
    114          6           0       -7.343956   -3.696323    1.272715
    115          6           0       -7.333751   -2.475367    0.521869
    116          6           0       -8.969842   -4.786226    2.892834
    117          6           0       -6.226976   -4.425821    0.893759
    118          8           0       -5.848570   -5.563660    1.190690
    119          6           0       -5.320366   -3.487428   -0.026264
    120          6           0       -4.115557   -3.170824    0.796690
    121          8           0       -3.992515   -2.627912    1.874580
    122          8           0       -3.086285   -3.658057    0.101514
    123          6           0       -1.728127   -3.443659    0.700121
    124          1           0       -6.113036    2.966458   -2.361409
    125          1           0      -11.838996    3.250217    0.598136
    126          1           0      -11.000742   -2.720771    2.553721
    127          1           0       -3.807773   -0.886621   -1.046849
    128          1           0       -4.865705    0.757855   -3.271329
    129          1           0       -3.986996    2.043429   -0.943699
    130          1           0       -3.335321    2.397296   -2.640831
    131          1           0       -2.585741    1.252260   -1.641154
    132          1           0       -4.459146   -1.239501   -3.935175
    133          1           0       -5.183757   -2.571929   -3.045001
    134          1           0       -3.496206   -3.680886   -2.681890
    135          1           0       -2.454792   -2.398208   -2.208709
    136          1           0       -7.476463    6.175897   -1.631660
    137          1           0       -8.422127    5.483578   -2.965665
    138          1           0       -6.641172    4.999006   -2.551765
    139          1           0       -9.161327    7.109965   -0.919834
    140          1           0      -10.739204    7.609851   -0.729522
    141          1           0      -10.338862    6.839506   -2.289209
    142          1           0      -13.311557    1.372280    1.874680
    143          1           0      -12.496343   -0.703095    3.367445
    144          1           0      -11.188085    1.592026    4.231911
    145          1           0      -12.927232    1.099095    4.349982
    146          1           0      -12.441633    2.741430    3.854294
    147          1           0      -14.480574   -0.952148    1.800796
    148          1           0      -13.266929   -2.239935    1.369045
    149          1           0      -12.764465   -1.536902   -0.398725
    150          1           0      -13.319658    0.118564   -0.342329
    151          1           0      -14.446939   -1.147986   -0.524398
    152          1           0       -8.585224   -4.384950    3.831220
    153          1           0       -8.568677   -5.788371    2.744370
    154          1           0      -10.042955   -4.980461    2.894466
    155          1           0       -5.102888   -3.918881   -1.003386
    156          1           0       -1.284491   -2.660871    0.084465
    157          1           0       -1.168741   -4.378785    0.685362
    158          1           0       -1.684176   -3.063619    1.721165
 ---------------------------------------------------------------------

 SCF Done:  E(RCAM-B3LYP) =  -4069.77716367     A.U. after   19 cycles

 Excitation energies and oscillator strengths:

 Excited State   1:      Singlet-A      1.6644 eV  744.90 nm  f=0.2774  <S**2>=0.000
     309 -> 315       -0.17064
     312 -> 314        0.68177
     309 <- 315       -0.10670
 This state for optimization and/or second-order correction.
 Total Energy, E(TD-HF/TD-DFT) =  -4069.71599679
 Copying the excited state density for this state as the 1-particle RhoCI density.

 Excited State   2:      Singlet-A      1.7056 eV  726.92 nm  f=0.4471  <S**2>=0.000
     310 -> 316       -0.17377
     311 -> 313        0.67990
     310 <- 316       -0.10520

 Excited State   3:      Singlet-A      2.1764 eV  569.68 nm  f=0.1451  <S**2>=0.000
     310 -> 313        0.65140
     311 -> 316        0.26281

 Excited State   4:      Singlet-A      2.2663 eV  547.07 nm  f=0.0995  <S**2>=0.000
     309 -> 314        0.62885
     312 -> 315        0.31045

 Excited State   5:      Singlet-A      2.7876 eV  444.78 nm  f=0.0000  <S**2>=0.000
     312 -> 313        0.70705

 The electronic state is 1-A.
 Alpha  occ. eigenvalues --  -46.89296 -46.88696 -19.24864 -19.24767 -19.20598
 Alpha  occ. eigenvalues --  -19.19235 -19.18929 -19.18634 -19.18344 -19.18142
 Alpha  occ. eigenvalues --  -14.42501 -14.41994 -14.41954 -14.41785 -14.39709
 Alpha  occ. eigenvalues --  -14.39659 -14.39646 -14.38938 -10.39408 -10.38471
 Alpha  occ. eigenvalues --  -10.35106 -10.35040 -10.34699 -10.34084 -10.31605
 Alpha  occ. eigenvalues --  -10.31425 -10.31375 -10.31339 -10.31157 -10.31048
 Alpha  occ. eigenvalues --  -10.30947 -10.30758 -10.30691 -10.30586 -10.30576
 Alpha  occ. eigenvalues --  -10.30238 -10.30065 -10.30060 -10.29743 -10.29435
 Alpha  occ. eigenvalues --  -10.29062 -10.28934 -10.28824 -10.28639 -10.28628
 Alpha  occ. eigenvalues --  -10.28594 -10.28581 -10.28503 -10.28497 -10.28460
 Alpha  occ. eigenvalues --  -10.28296 -10.28268 -10.28123 -10.28106 -10.27982
 Alpha  occ. eigenvalues --  -10.27853 -10.27813 -10.27796 -10.27763 -10.27556
 Alpha  occ. eigenvalues --  -10.27493 -10.27463 -10.27455 -10.27439 -10.27146
 Alpha  occ. eigenvalues --  -10.27114 -10.26859 -10.26701 -10.26641 -10.26632
 Alpha  occ. eigenvalues --  -10.26614 -10.26456 -10.26453 -10.26431 -10.26350
 Alpha  occ. eigenvalues --  -10.26227 -10.26210 -10.25988 -10.25762 -10.25628
 Alpha  occ. eigenvalues --  -10.25570 -10.25556 -10.25409 -10.25240 -10.24706
 Alpha  occ. eigenvalues --  -10.24605  -3.17704  -3.17341  -1.92607  -1.92202
 Alpha  occ. eigenvalues --   -1.92139  -1.92022  -1.91801  -1.91659  -1.17432
 Alpha  occ. eigenvalues --   -1.16840  -1.10504  -1.10062  -1.09126  -1.09092
 Alpha  occ. eigenvalues --   -1.08488  -1.07205  -1.05380  -1.04697  -1.04210
 Alpha  occ. eigenvalues --   -1.04107  -1.03455  -1.03339  -1.02747  -1.02583
 Alpha  occ. eigenvalues --   -0.93310  -0.92149  -0.90048  -0.89518  -0.89179
 Alpha  occ. eigenvalues --   -0.88706  -0.88484  -0.88326  -0.87922  -0.87649
 Alpha  occ. eigenvalues --   -0.87556  -0.86823  -0.86443  -0.85914  -0.84863
 Alpha  occ. eigenvalues --   -0.84587  -0.84261  -0.84247  -0.83010  -0.82859
 Alpha  occ. eigenvalues --   -0.81974  -0.81812  -0.81474  -0.80989  -0.80657
 Alpha  occ. eigenvalues --   -0.80640  -0.78708  -0.78042  -0.77626  -0.77622
 Alpha  occ. eigenvalues --   -0.77319  -0.76999  -0.76178  -0.75873  -0.75299
 Alpha  occ. eigenvalues --   -0.75250  -0.73432  -0.72821  -0.71818  -0.71617
 Alpha  occ. eigenvalues --   -0.69790  -0.69350  -0.69048  -0.68937  -0.68757
 Alpha  occ. eigenvalues --   -0.67737  -0.67206  -0.67174  -0.65956  -0.65715
 Alpha  occ. eigenvalues --   -0.65329  -0.65207  -0.64771  -0.64693  -0.64506
 Alpha  occ. eigenvalues --   -0.63882  -0.62251  -0.61946  -0.60399  -0.60113
 Alpha  occ. eigenvalues --   -0.59865  -0.59526  -0.59255  -0.59209  -0.59055
 Alpha  occ. eigenvalues --   -0.58572  -0.58279  -0.58190  -0.57848  -0.57497
 Alpha  occ. eigenvalues --   -0.56682  -0.56393  -0.56250  -0.55655  -0.55567
 Alpha  occ. eigenvalues --   -0.55442  -0.55236  -0.54989  -0.54787  -0.54725
 Alpha  occ. eigenvalues --   -0.54597  -0.54195  -0.53349  -0.53216  -0.53173
 Alpha  occ. eigenvalues --   -0.52964  -0.52926  -0.52612  -0.52466  -0.52437
 Alpha  occ. eigenvalues --   -0.52201  -0.52139  -0.51849  -0.51717  -0.51556
 Alpha  occ. eigenvalues --   -0.51244  -0.51095  -0.51067  -0.51033  -0.50337
 Alpha  occ. eigenvalues --   -0.50240  -0.49734  -0.49724  -0.49656  -0.49538
 Alpha  occ. eigenvalues --   -0.49414  -0.49371  -0.49163  -0.49098  -0.48901
 Alpha  occ. eigenvalues --   -0.48871  -0.48691  -0.48495  -0.48461  -0.48303
 Alpha  occ. eigenvalues --   -0.48029  -0.47672  -0.47328  -0.47320  -0.47207
 Alpha  occ. eigenvalues --   -0.47059  -0.47009  -0.46893  -0.46759  -0.46599
 Alpha  occ. eigenvalues --   -0.46495  -0.46201  -0.46120  -0.46007  -0.45947
 Alpha  occ. eigenvalues --   -0.45733  -0.45610  -0.45358  -0.45209  -0.44767
 Alpha  occ. eigenvalues --   -0.44572  -0.44479  -0.44414  -0.44173  -0.44075
 Alpha  occ. eigenvalues --   -0.44058  -0.43989  -0.43726  -0.43682  -0.43360
 Alpha  occ. eigenvalues --   -0.43301  -0.43133  -0.42950  -0.42878  -0.42649
 Alpha  occ. eigenvalues --   -0.42501  -0.42405  -0.42289  -0.42269  -0.42182
 Alpha  occ. eigenvalues --   -0.42070  -0.41989  -0.41778  -0.41565  -0.41235
 Alpha  occ. eigenvalues --   -0.41018  -0.40926  -0.40884  -0.40677  -0.40568
 Alpha  occ. eigenvalues --   -0.40096  -0.39907  -0.39491  -0.39241  -0.38901
 Alpha  occ. eigenvalues --   -0.38670  -0.38033  -0.38031  -0.37998  -0.37651
 Alpha  occ. eigenvalues --   -0.37501  -0.37158  -0.36936  -0.36577  -0.36247
 Alpha  occ. eigenvalues --   -0.36082  -0.35943  -0.35270  -0.34432  -0.34360
 Alpha  occ. eigenvalues --   -0.34170  -0.33434  -0.33139  -0.31496  -0.31431
 Alpha  occ. eigenvalues --   -0.31216  -0.31004  -0.30632  -0.30486  -0.30388
 Alpha  occ. eigenvalues --   -0.30013  -0.29934  -0.29763  -0.24426  -0.23968
 Alpha  occ. eigenvalues --   -0.21397  -0.21162
 Alpha virt. eigenvalues --   -0.08932  -0.08893  -0.01911  -0.01574   0.00108
 Alpha virt. eigenvalues --    0.00331   0.01273   0.02054   0.02417   0.02505
 Alpha virt. eigenvalues --    0.04717   0.05300   0.05380   0.05738   0.06121

 Mulliken charges:
               1
     1  Mg   0.832680
     2  C   -0.065725
     3  C   -0.082379
     4  C   -0.051641
     5  C   -0.083789
     6  N   -0.298299
     7  C   -0.026856
     8  C    0.018707
     9  C   -0.084439
    10  C    0.035813
    11  C    0.085243
    12  C    0.008315
    13  C   -0.054014
    14  H    0.021446
    15  N   -0.351582
    16  C    0.137664
    17  C   -0.183686
    18  C   -0.001030
    19  C    0.138212
    20  C    0.160178
    21  C   -0.032164
    22  O   -0.207901
    23  C    0.057824
    24  N   -0.289651
    25  C    0.015936
    26  C   -0.027259
    27  C   -0.062445
    28  C    0.016042
    29  C    0.089607
    30  C    0.056653
    31  C    0.010003
    32  N   -0.344927
    33  C    0.137188
    34  C   -0.195118
    35  C   -0.004353
    36  C    0.133722
    37  C    0.146303
    38  C    0.051178
    39  O   -0.169253
    40  C    0.007099
    41  C    0.187309
    42  O   -0.181998
    43  O   -0.345400
    44  C    0.175817
    45  H   -0.026949
    46  H   -0.055443
    47  H   -0.024311
    48  H    0.014959
    49  H    0.027762
    50  H    0.015733
    51  H    0.023468
    52  H    0.024714
    53  H   -0.006572
    54  H   -0.001519
    55  H    0.031884
    56  H    0.037240
    57  H    0.042153
    58  H   -0.001549
    59  H    0.032268
    60  H    0.043919
    61  H    0.018447
    62  H    0.031728
    63  H    0.007223
    64  H    0.007533
    65  H    0.019063
    66  H    0.023968
    67  H    0.006531
    68  H    0.033123
    69  H   -0.000106
    70  H    0.016603
    71  H    0.005180
    72  H    0.013933
    73  H    0.046743
    74  H    0.016450
    75  H    0.034589
    76  H    0.034293
    77  H    0.054852
    78  H    0.036354
    79  H    0.036712
    80  Mg   0.804231
    81  C   -0.001669
    82  C   -0.056757
    83  C   -0.056605
    84  C   -0.102631
    85  N   -0.309814
    86  C   -0.028177
    87  C   -0.016346
    88  C   -0.002716
    89  C   -0.048552
    90  C    0.052243
    91  C    0.041233
    92  C   -0.079174
    93  H    0.016883
    94  N   -0.378154
    95  C    0.181591
    96  C   -0.165936
    97  C   -0.026733
    98  C    0.105771
    99  C    0.128307
   100  C    0.003871
   101  O   -0.216956
   102  C    0.054153
   103  N   -0.227542
   104  C    0.004233
   105  C    0.006905
   106  C   -0.066194
   107  C    0.078692
   108  C    0.091308
   109  C    0.063836
   110  C   -0.038666
   111  N   -0.322753
   112  C    0.102318
   113  C   -0.118932
   114  C    0.060548
   115  C    0.066393
   116  C    0.105488
   117  C    0.014081
   118  O   -0.190887
   119  C   -0.024865
   120  C    0.199641
   121  O   -0.212958
   122  O   -0.318703
   123  C    0.159394
   124  H   -0.031198
   125  H   -0.013053
   126  H   -0.027949
   127  H    0.023336
   128  H    0.006760
   129  H    0.027903
   130  H    0.019165
   131  H    0.018972
   132  H    0.017145
   133  H    0.019239
   134  H    0.036872
   135  H    0.019195
   136  H    0.016257
   137  H    0.039037
   138  H    0.029980
   139  H    0.018215
   140  H    0.019308
   141  H    0.052757
   142  H   -0.008590
   143  H   -0.003771
   144  H    0.027836
   145  H    0.020140
   146  H    0.028484
   147  H    0.010700
   148  H    0.003867
   149  H    0.002590
   150  H    0.016299
   151  H    0.015196
   152  H    0.051170
   153  H    0.031584
   154  H    0.014346
   155  H    0.028690
   156  H    0.031589
   157  H    0.052066
   158  H    0.056455
 Sum of Mulliken charges =  -0.00000

 Dipole moment (field-independent basis, Debye):
    X=              2.4023    Y=              2.5672    Z=             -2.1307  Tot=              4.1111
 Quadrupole moment (field-independent basis, Debye-Ang):
   XX=           -460.0319   YY=           -579.0505   ZZ=           -475.3629
   XY=              3.7794   XZ=             34.8653   YZ=            -23.2357

 Normal termination of Gaussian 16 at Tue Sep 14 17:33:08 2021.
