 Gaussian 16, Revision A.03,
 Gaussian 16:  ES64L-G16RevA.03 25-Dec-2016

 -----------------------------------
 #p cam-b3lyp/Def2SVP td=(nstates=5)
 -----------------------------------

 --------------------------------
 TDDFT excited states in gaussian
 --------------------------------
 Symbolic Z-matrix:
 Charge =  0 Multiplicity = 1

                         Standard orientation:
 ---------------------------------------------------------------------
 Center     Atomic      Atomic             Coordinates (Angstroms)
 Number     Number       Type             X           Y           Z
 ---------------------------------------------------------------------
      1         12           0       24.114818   -0.941721    0.048598
      2          6           0       25.604090    2.318092   -0.223861
      3          6           0       22.659311    0.220064    3.065656
      4          6           0       22.678624   -4.080068    0.581923
      5          6           0       25.846483   -2.046347   -2.586063
      6          7           0       24.339038    1.067120    1.380767
      7          6           0       24.890011    2.232149    0.977726
      8          6           0       24.738146    3.314643    2.106144
      9          6           0       23.973008    2.483648    3.197316
     10          6           0       23.543050    1.175474    2.494639
     11          6           0       24.837704    2.251641    4.485355
     12          6           0       23.966275    4.555125    1.657046
     13          6           0       24.533148    5.872404    2.074219
     14          1           0       23.861446    7.158574    1.571747
     15          7           0       22.712375   -1.760490    1.443919
     16          6           0       22.266740   -1.115789    2.593007
     17          6           0       21.337444   -1.997288    3.271503
     18          6           0       21.235125   -3.178346    2.555261
     19          6           0       22.299264   -3.081510    1.499981
     20          6           0       20.718811   -1.720129    4.611498
     21          6           0       20.397922   -4.494397    2.828233
     22          8           0       20.358808   -5.495917    2.156265
     23          6           0       19.391859   -4.489285    3.958745
     24          7           0       24.329870   -2.799078   -0.728606
     25          6           0       23.678971   -3.962452   -0.410360
     26          6           0       24.256734   -5.181290   -1.166981
     27          6           0       25.080265   -4.500059   -2.341328
     28          6           0       25.057000   -2.997697   -1.864858
     29          6           0       25.071375   -6.143286   -0.244223
     30          6           0       24.464464   -4.693052   -3.760543
     31          6           0       23.138718   -3.977463   -4.009819
     32          7           0       25.455476   -0.136156   -1.155827
     33          6           0       26.081733   -0.695643   -2.304335
     34          6           0       26.968568    0.281055   -2.932669
     35          6           0       26.763663    1.457275   -2.189285
     36          6           0       25.845471    1.182967   -1.141333
     37          6           0       27.800128    0.055670   -4.108987
     38          6           0       27.194561    2.850072   -2.124911
     39          8           0       27.923159    3.472405   -2.879448
     40          6           0       26.527016    3.465026   -0.780006
     41          6           0       25.836099    4.693348   -1.377126
     42          8           0       24.821982    4.736274   -2.096743
     43          8           0       26.535336    5.769553   -1.061459
     44          6           0       25.924943    7.143189   -1.281610
     45          1           0       22.157999    0.612512    3.952514
     46          1           0       22.282814   -5.094753    0.671112
     47          1           0       26.322923   -2.451953   -3.480687
     48          1           0       25.760388    3.632195    2.309003
     49          1           0       23.042363    2.969132    3.494142
     50          1           0       24.391200    2.576034    5.425302
     51          1           0       25.873873    2.576621    4.389441
     52          1           0       24.978776    1.213852    4.788173
     53          1           0       23.131370    4.542724    2.357898
     54          1           0       23.620202    4.495932    0.624549
     55          1           0       25.597632    6.073589    1.943349
     56          1           0       24.379808    5.870819    3.153435
     57          1           0       20.909303   -0.696497    4.932949
     58          1           0       21.046051   -2.377240    5.418742
     59          1           0       19.631645   -1.789397    4.652029
     60          1           0       18.626086   -3.724459    3.829852
     61          1           0       20.040642   -4.347846    4.823196
     62          1           0       19.063132   -5.527690    4.001015
     63          1           0       23.370738   -5.752947   -1.445480
     64          1           0       26.163797   -4.620084   -2.329464
     65          1           0       24.576453   -7.103099   -0.096427
     66          1           0       25.411695   -5.766574    0.719698
     67          1           0       25.984931   -6.260377   -0.827433
     68          1           0       24.552447   -5.749978   -4.012460
     69          1           0       25.150600   -4.237055   -4.474052
     70          1           0       22.689556   -3.491566   -3.144408
     71          1           0       22.445955   -4.754699   -4.331481
     72          1           0       23.181942   -3.119107   -4.679249
     73          1           0       28.399789    0.911074   -4.420754
     74          1           0       27.101250   -0.223163   -4.897509
     75          1           0       28.433579   -0.807879   -3.901293
     76          1           0       27.271337    3.881239   -0.101168
     77          1           0       26.514632    7.827526   -0.671252
     78          1           0       24.906192    7.220372   -0.902970
     79          1           0       25.881680    7.436708   -2.331099
     80         12           0      -24.680850   -0.547547   -0.127602
     81          6           0      -23.543513    2.811187   -0.439768
     82          6           0      -25.207603    0.032080    3.220405
     83          6           0      -25.642598   -3.706922   -0.016848
     84          6           0      -23.613517   -1.157868   -3.505121
     85          7           0      -24.337700    1.252743    1.306294
     86          6           0      -23.964823    2.509550    0.866166
     87          6           0      -24.028374    3.445973    2.121212
     88          6           0      -24.538347    2.521580    3.351015
     89          6           0      -24.686995    1.199623    2.591001
     90          6           0      -23.637959    2.499994    4.603739
     91          6           0      -24.792148    4.824234    1.954370
     92          6           0      -23.979570    6.055778    2.230533
     93          1           0      -22.807833    6.088595    3.175920
     94          7           0      -25.487273   -1.694567    1.436532
     95          6           0      -25.603752   -1.267165    2.721660
     96          6           0      -26.335477   -2.296654    3.413963
     97          6           0      -26.380745   -3.410015    2.547360
     98          6           0      -25.799081   -3.010516    1.224709
     99          6           0      -26.735428   -2.099252    4.885878
    100          6           0      -26.798889   -4.807480    2.891488
    101          8           0      -26.685999   -5.747450    2.069319
    102          6           0      -27.305122   -5.100416    4.255071
    103          7           0      -24.548640   -2.203317   -1.603780
    104          6           0      -25.079850   -3.341437   -1.320703
    105          6           0      -25.113120   -4.451059   -2.501720
    106          6           0      -24.439399   -3.617105   -3.602071
    107          6           0      -24.186637   -2.295045   -2.919685
    108          6           0      -24.320662   -5.730418   -2.045222
    109          6           0      -25.234334   -3.438687   -4.943161
    110          6           0      -26.463496   -2.500087   -4.899393
    111          7           0      -23.686735    0.513447   -1.565318
    112          6           0      -23.313107    0.102750   -2.866604
    113          6           0      -22.755665    1.270267   -3.562943
    114          6           0      -22.835897    2.350986   -2.652191
    115          6           0      -23.452543    1.849672   -1.456303
    116          6           0      -22.233402    1.283143   -5.030827
    117          6           0      -22.566582    3.686291   -2.547483
    118          8           0      -22.036530    4.474559   -3.303703
    119          6           0      -23.052914    4.115731   -1.135130
    120          6           0      -21.959861    4.771163   -0.454857
    121          8           0      -21.102926    4.193573    0.223542
    122          8           0      -21.879660    6.106154   -0.868639
    123          6           0      -20.678012    6.826187   -0.379069
    124          1           0      -25.180246    0.004441    4.312059
    125          1           0      -25.810015   -4.781371    0.083908
    126          1           0      -23.276069   -1.287978   -4.535440
    127          1           0      -22.979506    3.738862    2.144079
    128          1           0      -25.476142    2.927180    3.728049
    129          1           0      -24.204546    2.787332    5.490393
    130          1           0      -22.728472    3.099309    4.565430
    131          1           0      -23.329970    1.457448    4.683405
    132          1           0      -25.680041    4.837470    2.586790
    133          1           0      -25.066718    4.872575    0.900598
    134          1           0      -24.612150    6.710112    2.831411
    135          1           0      -23.685894    6.481889    1.271871
    136          1           0      -26.688650   -1.052578    5.187397
    137          1           0      -26.080800   -2.689358    5.525949
    138          1           0      -27.761229   -2.462714    4.937806
    139          1           0      -28.167039   -4.453156    4.417218
    140          1           0      -26.567438   -4.845249    5.016835
    141          1           0      -27.511899   -6.163887    4.368001
    142          1           0      -26.136483   -4.705694   -2.778485
    143          1           0      -23.423827   -3.979778   -3.762404
    144          1           0      -23.545200   -5.409287   -1.349838
    145          1           0      -23.822360   -6.149686   -2.920010
    146          1           0      -24.879639   -6.535963   -1.568349
    147          1           0      -25.438719   -4.414179   -5.383325
    148          1           0      -24.538804   -3.041078   -5.681583
    149          1           0      -27.016121   -2.457927   -3.961411
    150          1           0      -27.103974   -2.742851   -5.748060
    151          1           0      -26.067026   -1.510679   -5.126866
    152          1           0      -22.642446    2.100925   -5.624225
    153          1           0      -22.393886    0.341056   -5.553844
    154          1           0      -21.200655    1.632647   -5.034735
    155          1           0      -23.839752    4.826980   -1.384192
    156          1           0      -19.778983    6.443392   -0.861422
    157          1           0      -20.491135    6.718549    0.688768
    158          1           0      -20.900201    7.889380   -0.472078
 ---------------------------------------------------------------------

 SCF Done:  E(RCAM-B3LYP) =  -4069.79442997     A.U. after   19 cycles

 Excitation energies and oscillator strengths:

 Excited State   1:      Singlet-A      1.6510 eV  750.97 nm  f=0.3684  <S**2>=0.000
     309 -> 315        0.18398
     312 -> 313        0.68517
     309 <- 315        0.11254
 This state for optimization and/or second-order correction.
 Total Energy, E(TD-HF/TD-DFT) =  -4069.73375749
 Copying the excited state density for this state as the 1-particle RhoCI density.

 Excited State   2:      Singlet-A      1.7536 eV  707.03 nm  f=0.3742  <S**2>=0.000
     310 -> 316       -0.18838
     311 -> 314        0.68194
     310 <- 316       -0.10758

 Excited State   3:      Singlet-A      2.2093 eV  561.18 nm  f=0.1072  <S**2>=0.000
     310 -> 314        0.64205
     311 -> 316        0.28089

 Excited State   4:      Singlet-A      2.2173 eV  559.17 nm  f=0.0927  <S**2>=0.000
     309 -> 313        0.62581
     312 -> 315       -0.32030

 Excited State   5:      Singlet-A      3.1851 eV  389.26 nm  f=0.0000  <S**2>=0.000
     312 -> 314        0.70711

 The electronic state is 1-A.
 Alpha  occ. eigenvalues --  -46.89811 -46.88274 -19.24920 -19.24262 -19.19496
 Alpha  occ. eigenvalues --  -19.19344 -19.19287 -19.18766 -19.17979 -19.17519
 Alpha  occ. eigenvalues --  -14.42668 -14.42439 -14.41876 -14.41530 -14.40084
 Alpha  occ. eigenvalues --  -14.39758 -14.39670 -14.39658 -10.38605 -10.38444
 Alpha  occ. eigenvalues --  -10.35570 -10.35372 -10.35061 -10.33294 -10.32184
 Alpha  occ. eigenvalues --  -10.31897 -10.31712 -10.31411 -10.31384 -10.31351
 Alpha  occ. eigenvalues --  -10.31218 -10.31094 -10.31068 -10.31019 -10.30891
 Alpha  occ. eigenvalues --  -10.30782 -10.30608 -10.30195 -10.29982 -10.29893
 Alpha  occ. eigenvalues --  -10.29847 -10.29354 -10.28848 -10.28818 -10.28770
 Alpha  occ. eigenvalues --  -10.28756 -10.28722 -10.28578 -10.28395 -10.28392
 Alpha  occ. eigenvalues --  -10.28371 -10.28348 -10.28338 -10.28268 -10.28119
 Alpha  occ. eigenvalues --  -10.28097 -10.28052 -10.27981 -10.27976 -10.27974
 Alpha  occ. eigenvalues --  -10.27944 -10.27684 -10.27513 -10.27400 -10.27329
 Alpha  occ. eigenvalues --  -10.27266 -10.27220 -10.27129 -10.27019 -10.26870
 Alpha  occ. eigenvalues --  -10.26814 -10.26595 -10.26594 -10.26350 -10.26323
 Alpha  occ. eigenvalues --  -10.26203 -10.26075 -10.26051 -10.25999 -10.25998
 Alpha  occ. eigenvalues --  -10.25966 -10.25864 -10.25689 -10.25401 -10.25381
 Alpha  occ. eigenvalues --  -10.23890  -3.18147  -3.16964  -1.93061  -1.92637
 Alpha  occ. eigenvalues --   -1.92403  -1.91850  -1.91436  -1.91270  -1.15922
 Alpha  occ. eigenvalues --   -1.14348  -1.11434  -1.10016  -1.09240  -1.08458
 Alpha  occ. eigenvalues --   -1.06305  -1.06104  -1.05264  -1.03769  -1.03692
 Alpha  occ. eigenvalues --   -1.03107  -1.03026  -1.02197  -1.01696  -1.01682
 Alpha  occ. eigenvalues --   -0.92275  -0.90843  -0.89741  -0.89234  -0.88730
 Alpha  occ. eigenvalues --   -0.88278  -0.87976  -0.87820  -0.87335  -0.87246
 Alpha  occ. eigenvalues --   -0.86935  -0.86785  -0.86429  -0.85470  -0.84315
 Alpha  occ. eigenvalues --   -0.84101  -0.83563  -0.83365  -0.82532  -0.82346
 Alpha  occ. eigenvalues --   -0.82217  -0.81488  -0.81009  -0.80667  -0.80146
 Alpha  occ. eigenvalues --   -0.80041  -0.78315  -0.78114  -0.77571  -0.77284
 Alpha  occ. eigenvalues --   -0.76935  -0.76437  -0.75958  -0.75723  -0.75106
 Alpha  occ. eigenvalues --   -0.74972  -0.72574  -0.72516  -0.71628  -0.71551
 Alpha  occ. eigenvalues --   -0.70458  -0.70047  -0.69030  -0.68732  -0.67833
 Alpha  occ. eigenvalues --   -0.67517  -0.66907  -0.66257  -0.65460  -0.65309
 Alpha  occ. eigenvalues --   -0.65100  -0.64899  -0.64637  -0.64549  -0.64228
 Alpha  occ. eigenvalues --   -0.64037  -0.61758  -0.61410  -0.60221  -0.59575
 Alpha  occ. eigenvalues --   -0.59496  -0.59259  -0.58920  -0.58598  -0.58123
 Alpha  occ. eigenvalues --   -0.57932  -0.57684  -0.57517  -0.57344  -0.56273
 Alpha  occ. eigenvalues --   -0.56220  -0.56014  -0.55624  -0.55471  -0.55263
 Alpha  occ. eigenvalues --   -0.55005  -0.54943  -0.54647  -0.53945  -0.53587
 Alpha  occ. eigenvalues --   -0.53311  -0.53233  -0.53195  -0.53009  -0.52874
 Alpha  occ. eigenvalues --   -0.52831  -0.52699  -0.52619  -0.52406  -0.52100
 Alpha  occ. eigenvalues --   -0.52016  -0.51545  -0.51500  -0.51282  -0.50947
 Alpha  occ. eigenvalues --   -0.50873  -0.50800  -0.50447  -0.50093  -0.49843
 Alpha  occ. eigenvalues --   -0.49780  -0.49587  -0.49502  -0.49269  -0.49240
 Alpha  occ. eigenvalues --   -0.49207  -0.49207  -0.48947  -0.48932  -0.48855
 Alpha  occ. eigenvalues --   -0.48633  -0.48565  -0.48419  -0.48113  -0.47972
 Alpha  occ. eigenvalues --   -0.47921  -0.47502  -0.47500  -0.47432  -0.47307
 Alpha  occ. eigenvalues --   -0.46728  -0.46706  -0.46635  -0.46603  -0.46507
 Alpha  occ. eigenvalues --   -0.46321  -0.46165  -0.46155  -0.45813  -0.45811
 Alpha  occ. eigenvalues --   -0.45483  -0.45479  -0.45218  -0.44922  -0.44892
 Alpha  occ. eigenvalues --   -0.44589  -0.44393  -0.44215  -0.44140  -0.43947
 Alpha  occ. eigenvalues --   -0.43772  -0.43739  -0.43621  -0.43510  -0.43437
 Alpha  occ. eigenvalues --   -0.43195  -0.43136  -0.42971  -0.42948  -0.42715
 Alpha  occ. eigenvalues --   -0.42477  -0.42469  -0.42356  -0.42126  -0.41856
 Alpha  occ. eigenvalues --   -0.41816  -0.41795  -0.41573  -0.41388  -0.41366
 Alpha  occ. eigenvalues --   -0.41248  -0.41135  -0.40891  -0.40581  -0.40346
 Alpha  occ. eigenvalues --   -0.40168  -0.40110  -0.39770  -0.39561  -0.39181
 Alpha  occ. eigenvalues --   -0.39110  -0.38613  -0.38029  -0.37500  -0.36934
 Alpha  occ. eigenvalues --   -0.36621  -0.36603  -0.36357  -0.36090  -0.36036
 Alpha  occ. eigenvalues --   -0.35616  -0.35487  -0.33927  -0.33885  -0.33664
 Alpha  occ. eigenvalues --   -0.33106  -0.33039  -0.32707  -0.31419  -0.31307
 Alpha  occ. eigenvalues --   -0.31199  -0.30965  -0.30779  -0.30336  -0.30321
 Alpha  occ. eigenvalues --   -0.29962  -0.29955  -0.29549  -0.24088  -0.23783
 Alpha  occ. eigenvalues --   -0.21236  -0.20937
 Alpha virt. eigenvalues --   -0.08679  -0.08534  -0.02012  -0.01777   0.00149
 Alpha virt. eigenvalues --    0.00675   0.02331   0.02411   0.02594   0.03433
 Alpha virt. eigenvalues --    0.05017   0.05175   0.05287   0.05547   0.06308

 Mulliken charges:
               1
     1  Mg   0.847290
     2  C    0.045352
     3  C   -0.060563
     4  C   -0.047694
     5  C   -0.098774
     6  N   -0.248848
     7  C   -0.052986
     8  C   -0.041250
     9  C   -0.032701
    10  C    0.025039
    11  C    0.061899
    12  C    0.091702
    13  C   -0.097217
    14  H    0.015915
    15  N   -0.370667
    16  C    0.163355
    17  C   -0.136130
    18  C   -0.047587
    19  C    0.113899
    20  C    0.100990
    21  C    0.008295
    22  O   -0.184747
    23  C    0.055710
    24  N   -0.324678
    25  C    0.018152
    26  C   -0.032850
    27  C   -0.028931
    28  C    0.038259
    29  C    0.074277
    30  C    0.042200
    31  C    0.003865
    32  N   -0.436332
    33  C    0.150825
    34  C   -0.152953
    35  C    0.006763
    36  C    0.125953
    37  C    0.128417
    38  C    0.055346
    39  O   -0.163326
    40  C   -0.066578
    41  C    0.185912
    42  O   -0.258960
    43  O   -0.310148
    44  C    0.186773
    45  H   -0.026634
    46  H   -0.004531
    47  H   -0.031268
    48  H    0.015135
    49  H    0.010167
    50  H    0.011122
    51  H    0.016483
    52  H    0.004588
    53  H   -0.000449
    54  H    0.045818
    55  H    0.026989
    56  H    0.015935
    57  H   -0.001694
    58  H    0.033546
    59  H    0.015888
    60  H    0.054948
    61  H    0.014220
    62  H    0.026511
    63  H    0.013912
    64  H    0.017074
    65  H    0.026034
    66  H    0.025170
    67  H    0.002865
    68  H    0.013548
    69  H   -0.002124
    70  H    0.021592
    71  H    0.022770
    72  H    0.019898
    73  H    0.040175
    74  H    0.029350
    75  H    0.021981
    76  H    0.037303
    77  H    0.039481
    78  H    0.037725
    79  H    0.054207
    80  Mg   0.811811
    81  C    0.029159
    82  C   -0.077367
    83  C   -0.042153
    84  C   -0.081026
    85  N   -0.244489
    86  C   -0.056741
    87  C   -0.021345
    88  C   -0.055005
    89  C    0.051350
    90  C    0.065156
    91  C    0.043249
    92  C   -0.087146
    93  H    0.017155
    94  N   -0.401996
    95  C    0.117230
    96  C   -0.164244
    97  C   -0.023772
    98  C    0.133594
    99  C    0.120917
   100  C   -0.011721
   101  O   -0.230999
   102  C    0.068121
   103  N   -0.203187
   104  C   -0.004697
   105  C   -0.058826
   106  C    0.082957
   107  C   -0.064800
   108  C    0.045404
   109  C    0.013629
   110  C    0.021062
   111  N   -0.385630
   112  C    0.134172
   113  C   -0.166521
   114  C    0.054422
   115  C    0.106921
   116  C    0.127408
   117  C   -0.040192
   118  O   -0.163480
   119  C    0.002746
   120  C    0.206324
   121  O   -0.235951
   122  O   -0.349706
   123  C    0.191044
   124  H   -0.014112
   125  H    0.003607
   126  H   -0.032089
   127  H    0.035333
   128  H    0.018427
   129  H    0.012694
   130  H    0.029364
   131  H    0.013541
   132  H    0.007436
   133  H    0.012009
   134  H    0.024947
   135  H    0.041454
   136  H    0.024800
   137  H    0.041271
   138  H    0.023656
   139  H    0.030377
   140  H    0.029316
   141  H    0.031566
   142  H    0.025047
   143  H    0.007628
   144  H    0.023939
   145  H    0.014071
   146  H    0.042019
   147  H    0.005572
   148  H    0.000360
   149  H    0.029203
   150  H    0.017375
   151  H    0.017710
   152  H    0.021155
   153  H    0.010616
   154  H    0.028633
   155  H    0.044047
   156  H    0.045803
   157  H    0.025251
   158  H    0.035134
 Sum of Mulliken charges =  -0.00000

 Dipole moment (field-independent basis, Debye):
    X=             -3.6905    Y=             -2.4699    Z=              6.5637  Tot=              7.9248
 Quadrupole moment (field-independent basis, Debye-Ang):
   XX=           -378.7251   YY=           -514.0157   ZZ=           -469.7596
   XY=            -20.4980   XZ=             26.3218   YZ=             51.5317

 Normal termination of Gaussian 16 at Wed Sep 15 09:23:09 2021.
