 Gaussian 16, Revision A.03,
 Gaussian 16:  ES64L-G16RevA.03 25-Dec-2016

 ----------------------------------------------------------
 #p cam-b3lyp/Def2SVP td=(nstates=5) density=(transition=1)
 ----------------------------------------------------------

 --------------------------------
 TDDFT excited states in gaussian
 --------------------------------
 Symbolic Z-matrix:
 Charge =  0 Multiplicity = 1

                         Standard orientation:
 ---------------------------------------------------------------------
 Center     Atomic      Atomic             Coordinates (Angstroms)
 Number     Number       Type             X           Y           Z
 ---------------------------------------------------------------------
      1         12           0      -13.502658   -0.587644    0.281098
      2          6           0      -13.325324    2.717415   -1.007058
      3          6           0      -12.067163    0.745470    3.226294
      4          6           0      -13.267976   -3.620393    1.460800
      5          6           0      -14.630928   -1.679495   -2.822361
      6          7           0      -12.754922    1.536773    1.036938
      7          6           0      -12.912158    2.696664    0.318592
      8          6           0      -12.541585    3.942389    1.105468
      9          6           0      -12.014992    3.245007    2.432345
     10          6           0      -12.325572    1.750777    2.254890
     11          6           0      -10.566993    3.633269    2.716538
     12          6           0      -13.780637    4.836822    1.329670
     13          6           0      -13.593714    6.401841    1.312469
     14          1           0      -12.174094    6.968685    1.549491
     15          7           0      -12.840085   -1.343957    2.128466
     16          6           0      -12.216372   -0.638265    3.157781
     17          6           0      -11.907163   -1.587237    4.239056
     18          6           0      -12.352062   -2.863698    3.763229
     19          6           0      -12.884415   -2.605014    2.411674
     20          6           0      -11.217548   -1.215339    5.440976
     21          6           0      -12.283465   -4.215828    4.465935
     22          8           0      -12.623093   -5.257753    3.883015
     23          6           0      -11.980005   -4.302414    5.910141
     24          7           0      -13.797290   -2.409099   -0.599143
     25          6           0      -13.732727   -3.522267    0.136101
     26          6           0      -14.034179   -4.787228   -0.731584
     27          6           0      -14.647495   -4.142254   -2.014856
     28          6           0      -14.349341   -2.684566   -1.853748
     29          6           0      -12.796521   -5.729015   -0.954516
     30          6           0      -16.195494   -4.424409   -1.918417
     31          6           0      -17.154569   -3.363991   -1.275723
     32          7           0      -14.005673    0.293170   -1.517415
     33          6           0      -14.443913   -0.307041   -2.711735
     34          6           0      -14.569624    0.751339   -3.744402
     35          6           0      -14.091082    1.898697   -3.122641
     36          6           0      -13.788430    1.643477   -1.801860
     37          6           0      -14.810928    0.397115   -5.132465
     38          6           0      -13.715651    3.278348   -3.422076
     39          8           0      -13.774204    3.857809   -4.500731
     40          6           0      -13.165511    3.885557   -2.047134
     41          6           0      -11.774558    4.378228   -2.196311
     42          8           0      -10.751524    3.748384   -1.943690
     43          8           0      -11.806525    5.706669   -2.660968
     44          6           0      -10.592628    6.433321   -2.957197
     45          1           0      -11.862589    1.099817    4.239129
     46          1           0      -13.234565   -4.658065    1.800404
     47          1           0      -15.029846   -2.135319   -3.730633
     48          1           0      -11.760536    4.528736    0.620772
     49          1           0      -12.559608    3.715475    3.250518
     50          1           0      -10.392369    4.069001    3.699652
     51          1           0      -10.101856    4.311418    2.001052
     52          1           0      -10.000183    2.701762    2.746366
     53          1           0      -14.273399    4.587676    2.269386
     54          1           0      -14.418903    4.493764    0.514664
     55          1           0      -14.160065    6.859022    2.123158
     56          1           0      -14.148085    6.741872    0.437752
     57          1           0      -11.833363   -1.571567    6.267047
     58          1           0      -10.888690   -0.177509    5.397033
     59          1           0      -10.287046   -1.767168    5.304057
     60          1           0      -10.935487   -4.099847    6.148808
     61          1           0      -12.170187   -5.317434    6.258424
     62          1           0      -12.523898   -3.500793    6.408994
     63          1           0      -14.742203   -5.267989   -0.056509
     64          1           0      -14.274402   -4.613381   -2.924568
     65          1           0      -12.813400   -6.544400   -0.231234
     66          1           0      -11.912269   -5.093016   -0.928787
     67          1           0      -12.905510   -6.128201   -1.962779
     68          1           0      -16.352884   -5.443933   -1.565849
     69          1           0      -16.526990   -4.302348   -2.950017
     70          1           0      -17.809865   -3.968635   -0.649421
     71          1           0      -17.773014   -2.846806   -2.010440
     72          1           0      -16.687263   -2.624314   -0.626544
     73          1           0      -14.120098   -0.397428   -5.411627
     74          1           0      -14.567136    1.281261   -5.722363
     75          1           0      -15.873817    0.245656   -5.318725
     76          1           0      -13.828845    4.732089   -1.867039
     77          1           0      -10.320122    6.408888   -4.012020
     78          1           0       -9.815922    6.227191   -2.220604
     79          1           0      -10.881051    7.438136   -2.647236
     80         12           0       12.644240   -0.748864   -0.296028
     81          6           0       14.799475    2.049428    0.499523
     82          6           0       10.224715    1.062612    0.844953
     83          6           0       10.904624   -3.496143   -0.833371
     84          6           0       15.566223   -2.861122   -0.754315
     85          7           0       12.543487    1.414081    0.471635
     86          6           0       13.494085    2.379527    0.730721
     87          6           0       12.856560    3.589028    1.313424
     88          6           0       11.503236    3.060417    1.854451
     89          6           0       11.410246    1.740219    1.053560
     90          6           0       11.488085    2.784039    3.373885
     91          6           0       12.585319    4.633733    0.188279
     92          6           0       12.939926    6.134422    0.522633
     93          1           0       13.154603    7.175632   -0.646907
     94          7           0       10.703275   -1.124722   -0.048281
     95          6           0        9.818947   -0.238726    0.325435
     96          6           0        8.503917   -0.843920    0.229944
     97          6           0        8.740582   -2.101999   -0.372478
     98          6           0       10.166216   -2.284649   -0.410704
     99          6           0        7.236110   -0.040561    0.572415
    100          6           0        7.696400   -3.086815   -0.819500
    101          8           0        8.021776   -4.136166   -1.288923
    102          6           0        6.255313   -2.696777   -0.764537
    103          7           0       13.244283   -2.995200   -0.465265
    104          6           0       12.256329   -3.808012   -0.833933
    105          6           0       12.762575   -5.095580   -1.366833
    106          6           0       14.296889   -4.921390   -1.134575
    107          6           0       14.435803   -3.474395   -0.741343
    108          6           0       12.129960   -6.421845   -0.810894
    109          6           0       15.117374   -5.328883   -2.420130
    110          6           0       15.909090   -6.666172   -2.436899
    111          7           0       14.668338   -0.556946   -0.180322
    112          6           0       15.747928   -1.426024   -0.454616
    113          6           0       17.020282   -0.688957   -0.310041
    114          6           0       16.670418    0.611735    0.027052
    115          6           0       15.291881    0.665843    0.144551
    116          6           0       18.430833   -1.323770   -0.368730
    117          6           0       17.277738    1.947066    0.332048
    118          8           0       18.409006    2.371779    0.335645
    119          6           0       16.081325    2.905153    0.825410
    120          6           0       16.169037    4.196275    0.248591
    121          8           0       15.583428    4.487654   -0.803646
    122          8           0       16.983071    5.119227    0.897828
    123          6           0       16.957806    6.546243    0.452350
    124          1           0        9.315952    1.579870    1.157689
    125          1           0       10.325073   -4.389720   -1.073999
    126          1           0       16.453561   -3.479524   -0.898077
    127          1           0       13.427166    3.929302    2.177951
    128          1           0       10.632015    3.693540    1.687567
    129          1           0       10.734949    3.399737    3.866517
    130          1           0       12.479764    3.033327    3.750269
    131          1           0       11.319710    1.741456    3.645104
    132          1           0       11.512906    4.567518    0.003937
    133          1           0       13.112766    4.264842   -0.691158
    134          1           0       13.816760    6.127948    1.169538
    135          1           0       12.075661    6.446460    1.110167
    136          1           0        6.655281    0.090367   -0.341522
    137          1           0        7.396348    0.915785    1.069053
    138          1           0        6.560928   -0.645977    1.176470
    139          1           0        6.028919   -1.845822   -1.406438
    140          1           0        5.884356   -2.319373    0.188319
    141          1           0        5.655839   -3.520354   -1.153224
    142          1           0       12.583673   -5.098090   -2.442057
    143          1           0       14.590583   -5.476626   -0.243493
    144          1           0       11.302936   -6.118191   -0.169920
    145          1           0       12.802515   -7.137384   -0.336531
    146          1           0       11.745871   -6.996740   -1.653721
    147          1           0       15.871580   -4.565447   -2.612955
    148          1           0       14.438543   -5.133739   -3.250306
    149          1           0       15.725414   -7.192960   -3.373163
    150          1           0       15.614428   -7.273174   -1.580678
    151          1           0       16.982232   -6.478150   -2.386349
    152          1           0       18.390316   -2.154204   -1.073039
    153          1           0       18.657327   -1.777694    0.596305
    154          1           0       19.193133   -0.603241   -0.666012
    155          1           0       16.150215    2.992414    1.909327
    156          1           0       15.970833    6.986427    0.601413
    157          1           0       17.440190    6.671657   -0.516277
    158          1           0       17.505685    7.112683    1.205288
 ---------------------------------------------------------------------

 SCF Done:  E(RCAM-B3LYP) =  -4069.78046454     A.U. after   18 cycles

 Excitation energies and oscillator strengths:

 Excited State   1:      Singlet-A      1.7382 eV  713.29 nm  f=0.4009  <S**2>=0.000
     310 -> 316       -0.16280
     311 -> 313        0.68450
     310 <- 316       -0.10212
 This state for optimization and/or second-order correction.
 Total Energy, E(TD-HF/TD-DFT) =  -4069.71658724
 Copying the excited state density for this state as the 1-particle RhoCI density.

 Excited State   2:      Singlet-A      1.7491 eV  708.86 nm  f=0.3553  <S**2>=0.000
     309 -> 315       -0.18866
     312 -> 314        0.67692
     309 <- 315       -0.10737

 Excited State   3:      Singlet-A      2.1721 eV  570.80 nm  f=0.2225  <S**2>=0.000
     310 -> 313        0.67443
     311 -> 316        0.20206

 Excited State   4:      Singlet-A      2.2727 eV  545.53 nm  f=0.0729  <S**2>=0.000
     309 -> 314        0.62313
     312 -> 315        0.32197

 Excited State   5:      Singlet-A      2.8423 eV  436.21 nm  f=0.0000  <S**2>=0.000
     312 -> 313        0.70707

 The electronic state is 1-A.
 Alpha  occ. eigenvalues --  -46.89438 -46.88579 -19.24064 -19.23973 -19.19967
 Alpha  occ. eigenvalues --  -19.19641 -19.19393 -19.19247 -19.18808 -19.18530
 Alpha  occ. eigenvalues --  -14.42199 -14.41759 -14.41357 -14.40169 -14.39821
 Alpha  occ. eigenvalues --  -14.39769 -14.39758 -14.38991 -10.39565 -10.38518
 Alpha  occ. eigenvalues --  -10.35956 -10.35449 -10.35358 -10.35119 -10.31622
 Alpha  occ. eigenvalues --  -10.31271 -10.31136 -10.31084 -10.31022 -10.30841
 Alpha  occ. eigenvalues --  -10.30595 -10.30523 -10.30459 -10.30389 -10.30292
 Alpha  occ. eigenvalues --  -10.30037 -10.30021 -10.29835 -10.29370 -10.29311
 Alpha  occ. eigenvalues --  -10.29310 -10.29261 -10.29102 -10.28948 -10.28947
 Alpha  occ. eigenvalues --  -10.28709 -10.28311 -10.28246 -10.28190 -10.28115
 Alpha  occ. eigenvalues --  -10.28100 -10.28000 -10.27909 -10.27657 -10.27619
 Alpha  occ. eigenvalues --  -10.27527 -10.27475 -10.27361 -10.27313 -10.27261
 Alpha  occ. eigenvalues --  -10.27207 -10.27160 -10.27135 -10.27116 -10.26886
 Alpha  occ. eigenvalues --  -10.26800 -10.26579 -10.26520 -10.26501 -10.26430
 Alpha  occ. eigenvalues --  -10.26337 -10.26299 -10.26279 -10.26049 -10.25916
 Alpha  occ. eigenvalues --  -10.25817 -10.25727 -10.25704 -10.25529 -10.25439
 Alpha  occ. eigenvalues --  -10.25432 -10.25383 -10.25337 -10.25161 -10.25099
 Alpha  occ. eigenvalues --  -10.24770  -3.17961  -3.17122  -1.92848  -1.92424
 Alpha  occ. eigenvalues --   -1.92261  -1.92029  -1.91590  -1.91410  -1.14738
 Alpha  occ. eigenvalues --   -1.14186  -1.12156  -1.10849  -1.09732  -1.09276
 Alpha  occ. eigenvalues --   -1.07330  -1.06406  -1.05657  -1.04954  -1.04881
 Alpha  occ. eigenvalues --   -1.04833  -1.04115  -1.03164  -1.01447  -1.00983
 Alpha  occ. eigenvalues --   -0.92054  -0.91255  -0.89957  -0.89259  -0.88866
 Alpha  occ. eigenvalues --   -0.88736  -0.88451  -0.87987  -0.87791  -0.87635
 Alpha  occ. eigenvalues --   -0.87408  -0.86806  -0.86255  -0.85191  -0.84343
 Alpha  occ. eigenvalues --   -0.84208  -0.83371  -0.83054  -0.82717  -0.82133
 Alpha  occ. eigenvalues --   -0.82061  -0.82009  -0.80953  -0.80903  -0.80513
 Alpha  occ. eigenvalues --   -0.80400  -0.79019  -0.78764  -0.77171  -0.77124
 Alpha  occ. eigenvalues --   -0.76930  -0.76697  -0.76223  -0.75863  -0.75403
 Alpha  occ. eigenvalues --   -0.74851  -0.72773  -0.72197  -0.71374  -0.71099
 Alpha  occ. eigenvalues --   -0.69297  -0.69212  -0.68986  -0.68779  -0.67931
 Alpha  occ. eigenvalues --   -0.67911  -0.67338  -0.66777  -0.66110  -0.65619
 Alpha  occ. eigenvalues --   -0.65078  -0.64971  -0.64747  -0.64527  -0.64257
 Alpha  occ. eigenvalues --   -0.64220  -0.61609  -0.61431  -0.61042  -0.60400
 Alpha  occ. eigenvalues --   -0.60105  -0.59436  -0.59115  -0.59060  -0.58135
 Alpha  occ. eigenvalues --   -0.58048  -0.57942  -0.57566  -0.57237  -0.57177
 Alpha  occ. eigenvalues --   -0.56543  -0.56347  -0.55743  -0.55561  -0.55504
 Alpha  occ. eigenvalues --   -0.55405  -0.54341  -0.54029  -0.54006  -0.53924
 Alpha  occ. eigenvalues --   -0.53872  -0.53395  -0.53387  -0.53225  -0.53027
 Alpha  occ. eigenvalues --   -0.52842  -0.52634  -0.52429  -0.52386  -0.51980
 Alpha  occ. eigenvalues --   -0.51879  -0.51850  -0.51571  -0.51373  -0.51310
 Alpha  occ. eigenvalues --   -0.50832  -0.50673  -0.50539  -0.50234  -0.50078
 Alpha  occ. eigenvalues --   -0.49972  -0.49855  -0.49853  -0.49700  -0.49627
 Alpha  occ. eigenvalues --   -0.49550  -0.49269  -0.49089  -0.48980  -0.48834
 Alpha  occ. eigenvalues --   -0.48737  -0.48600  -0.48450  -0.48307  -0.48149
 Alpha  occ. eigenvalues --   -0.47934  -0.47775  -0.47662  -0.47552  -0.47436
 Alpha  occ. eigenvalues --   -0.47434  -0.47024  -0.46745  -0.46426  -0.46230
 Alpha  occ. eigenvalues --   -0.46172  -0.46063  -0.45782  -0.45527  -0.45451
 Alpha  occ. eigenvalues --   -0.45400  -0.45091  -0.44914  -0.44776  -0.44676
 Alpha  occ. eigenvalues --   -0.44547  -0.44457  -0.44323  -0.44296  -0.44114
 Alpha  occ. eigenvalues --   -0.44016  -0.43999  -0.43727  -0.43488  -0.43435
 Alpha  occ. eigenvalues --   -0.43383  -0.43332  -0.43030  -0.42990  -0.42745
 Alpha  occ. eigenvalues --   -0.42652  -0.42621  -0.42213  -0.42024  -0.41873
 Alpha  occ. eigenvalues --   -0.41757  -0.41368  -0.41299  -0.41082  -0.41038
 Alpha  occ. eigenvalues --   -0.40741  -0.40633  -0.40410  -0.40363  -0.40192
 Alpha  occ. eigenvalues --   -0.39910  -0.39892  -0.39849  -0.39447  -0.38649
 Alpha  occ. eigenvalues --   -0.38321  -0.37814  -0.37658  -0.37491  -0.37178
 Alpha  occ. eigenvalues --   -0.37036  -0.36702  -0.36518  -0.36199  -0.36058
 Alpha  occ. eigenvalues --   -0.35748  -0.35729  -0.34251  -0.34106  -0.33590
 Alpha  occ. eigenvalues --   -0.33362  -0.33052  -0.32602  -0.31835  -0.31520
 Alpha  occ. eigenvalues --   -0.31261  -0.31093  -0.31028  -0.30891  -0.30739
 Alpha  occ. eigenvalues --   -0.30222  -0.29676  -0.29409  -0.23947  -0.23530
 Alpha  occ. eigenvalues --   -0.21618  -0.20850
 Alpha virt. eigenvalues --   -0.09065  -0.08211  -0.01772  -0.00347   0.00170
 Alpha virt. eigenvalues --    0.00944   0.02118   0.02325   0.02667   0.03268
 Alpha virt. eigenvalues --    0.04534   0.04755   0.05015   0.05155   0.05661

 Mulliken charges:
               1
     1  Mg  12.000197
     2  C    5.997319
     3  C    6.000865
     4  C    6.003957
     5  C    5.998624
     6  N    6.998866
     7  C    6.003404
     8  C    5.998054
     9  C    6.001790
    10  C    5.996418
    11  C    6.000143
    12  C    5.999807
    13  C    5.999854
    14  H    1.000403
    15  N    7.001470
    16  C    5.994194
    17  C    5.998149
    18  C    5.997678
    19  C    5.996178
    20  C    6.000820
    21  C    5.998443
    22  O    7.996582
    23  C    6.000595
    24  N    7.001069
    25  C    5.995369
    26  C    6.000545
    27  C    5.998686
    28  C    6.003327
    29  C    6.000332
    30  C    5.999724
    31  C    5.999063
    32  N    6.999151
    33  C    6.004516
    34  C    6.004244
    35  C    5.999637
    36  C    6.004418
    37  C    5.999420
    38  C    6.001863
    39  O    8.002949
    40  C    6.000428
    41  C    6.000215
    42  O    8.000617
    43  O    8.000123
    44  C    5.999595
    45  H    0.998618
    46  H    0.999865
    47  H    1.001430
    48  H    1.000005
    49  H    0.999514
    50  H    0.999653
    51  H    0.998226
    52  H    1.000039
    53  H    1.001301
    54  H    0.999176
    55  H    1.000592
    56  H    0.999659
    57  H    0.998108
    58  H    0.997994
    59  H    0.997455
    60  H    0.998739
    61  H    0.998435
    62  H    0.999652
    63  H    1.000721
    64  H    1.000435
    65  H    1.000457
    66  H    0.999621
    67  H    0.998902
    68  H    1.001507
    69  H    1.000043
    70  H    1.001378
    71  H    0.999830
    72  H    1.000479
    73  H    1.002202
    74  H    1.001880
    75  H    1.002726
    76  H    1.001007
    77  H    1.000126
    78  H    1.000407
    79  H    1.000715
    80  Mg  11.996463
    81  C    6.023916
    82  C    5.994115
    83  C    5.977741
    84  C    6.011477
    85  N    7.016293
    86  C    5.970189
    87  C    6.006365
    88  C    5.993277
    89  C    6.025200
    90  C    5.994724
    91  C    6.003623
    92  C    6.001987
    93  H    0.998640
    94  N    6.985292
    95  C    6.039574
    96  C    6.022926
    97  C    6.010717
    98  C    6.041036
    99  C    5.995499
   100  C    6.012848
   101  O    8.024480
   102  C    5.993424
   103  N    6.999312
   104  C    6.034351
   105  C    5.986127
   106  C    6.010820
   107  C    5.978548
   108  C    6.000211
   109  C    6.001597
   110  C    5.999737
   111  N    6.999338
   112  C    5.957053
   113  C    5.966732
   114  C    6.000392
   115  C    5.960498
   116  C    6.000590
   117  C    5.985752
   118  O    7.975107
   119  C    5.994830
   120  C    5.996392
   121  O    7.991743
   122  O    8.000157
   123  C    6.002872
   124  H    1.011569
   125  H    1.005974
   126  H    0.988961
   127  H    1.001436
   128  H    1.001350
   129  H    1.002938
   130  H    1.015372
   131  H    0.997873
   132  H    0.985121
   133  H    1.004398
   134  H    1.003668
   135  H    0.993810
   136  H    1.019898
   137  H    1.018669
   138  H    1.019331
   139  H    1.007485
   140  H    1.005905
   141  H    1.015019
   142  H    1.002157
   143  H    0.997481
   144  H    0.993578
   145  H    1.009111
   146  H    1.002015
   147  H    1.008393
   148  H    0.992094
   149  H    0.995333
   150  H    0.995656
   151  H    1.003370
   152  H    0.981232
   153  H    0.976796
   154  H    0.982349
   155  H    0.991763
   156  H    0.994011
   157  H    0.998075
   158  H    0.995844
 Sum of Mulliken charges = 624.00000

 Dipole moment (field-independent basis, Debye):
    X=            -10.9267    Y=             -1.3171    Z=             -0.7239  Tot=             11.0296
 Quadrupole moment (field-independent basis, Debye-Ang):
   XX=           -257.8303   YY=             -1.1687   ZZ=              0.3519
   XY=            -18.5160   XZ=             20.4362   YZ=              1.7170

 Normal termination of Gaussian 16 at Wed Sep 22 07:34:49 2021.
