 Gaussian 16, Revision A.03,
 Gaussian 16:  ES64L-G16RevA.03 25-Dec-2016

 ----------------------------------------------------------
 #p cam-b3lyp/Def2SVP td=(nstates=5) density=(transition=1)
 ----------------------------------------------------------

 --------------------------------
 TDDFT excited states in gaussian
 --------------------------------
 Symbolic Z-matrix:
 Charge =  0 Multiplicity = 1

                         Standard orientation:
 ---------------------------------------------------------------------
 Center     Atomic      Atomic             Coordinates (Angstroms)
 Number     Number       Type             X           Y           Z
 ---------------------------------------------------------------------
      1         12           0      -22.299867   -0.644241   -0.325548
      2          6           0      -24.123359    1.726831    1.448237
      3          6           0      -20.256646    1.855278   -1.474685
      4          6           0      -20.756111   -2.963513   -2.288205
      5          6           0      -24.695445   -3.021566    0.789287
      6          7           0      -22.221511    1.532874   -0.075777
      7          6           0      -23.005148    2.239857    0.797648
      8          6           0      -22.488909    3.680665    0.773971
      9          6           0      -21.486471    3.741091   -0.364774
     10          6           0      -21.279862    2.255080   -0.635069
     11          6           0      -21.803413    4.538448   -1.601405
     12          6           0      -21.941303    4.240862    2.172023
     13          6           0      -21.213413    5.622376    2.115055
     14          1           0      -22.049613    6.910867    2.330991
     15          7           0      -20.638784   -0.565616   -1.567099
     16          6           0      -19.957219    0.546670   -1.938359
     17          6           0      -18.955228    0.120757   -2.880526
     18          6           0      -19.112785   -1.277044   -3.114057
     19          6           0      -20.205965   -1.666964   -2.342520
     20          6           0      -17.984278    1.107309   -3.452146
     21          6           0      -18.331062   -2.132163   -4.153451
     22          8           0      -18.744733   -3.211459   -4.537595
     23          6           0      -17.130064   -1.673250   -4.832331
     24          7           0      -22.666363   -2.577515   -0.656401
     25          6           0      -21.876551   -3.382648   -1.476577
     26          6           0      -22.338907   -4.850093   -1.483364
     27          6           0      -23.373030   -4.859972   -0.306631
     28          6           0      -23.553916   -3.380513   -0.009403
     29          6           0      -22.695645   -5.424849   -2.791530
     30          6           0      -23.069620   -5.759934    1.015540
     31          6           0      -24.038146   -6.865969    1.445068
     32          7           0      -24.145406   -0.672172    0.864092
     33          6           0      -24.974137   -1.709438    1.188310
     34          6           0      -26.052598   -1.270800    2.008487
     35          6           0      -25.721523    0.122402    2.217866
     36          6           0      -24.590279    0.439215    1.414696
     37          6           0      -27.110450   -2.159034    2.543328
     38          6           0      -26.097603    1.300005    2.965814
     39          8           0      -26.934965    1.530090    3.816105
     40          6           0      -25.023911    2.429042    2.453695
     41          6           0      -25.708245    3.672697    2.016877
     42          8           0      -26.424926    3.739424    1.042379
     43          8           0      -25.433000    4.719597    2.814424
     44          6           0      -25.859856    6.088752    2.331347
     45          1           0      -19.569830    2.639092   -1.801681
     46          1           0      -20.248088   -3.684917   -2.931321
     47          1           0      -25.300640   -3.895146    1.041115
     48          1           0      -23.411987    4.203628    0.524282
     49          1           0      -20.567400    4.207041   -0.010265
     50          1           0      -22.001164    3.716854   -2.289180
     51          1           0      -20.991333    5.205449   -1.891138
     52          1           0      -22.750157    5.072943   -1.520456
     53          1           0      -21.239085    3.457782    2.458773
     54          1           0      -22.759658    4.311331    2.887594
     55          1           0      -20.742859    5.789598    1.146993
     56          1           0      -20.413076    5.607209    2.854861
     57          1           0      -18.002750    2.129630   -3.073210
     58          1           0      -18.254629    1.205851   -4.502958
     59          1           0      -16.955693    0.746068   -3.448970
     60          1           0      -17.106174   -0.685582   -5.291664
     61          1           0      -16.718858   -2.359202   -5.572810
     62          1           0      -16.390312   -1.722407   -4.033574
     63          1           0      -21.406384   -5.292181   -1.131504
     64          1           0      -24.259422   -5.158507   -0.866122
     65          1           0      -22.076785   -6.244586   -3.157417
     66          1           0      -22.652116   -4.618805   -3.524458
     67          1           0      -23.694495   -5.859387   -2.829192
     68          1           0      -22.994380   -5.077142    1.861632
     69          1           0      -22.117656   -6.290799    1.054126
     70          1           0      -24.672313   -6.616179    2.296078
     71          1           0      -23.589992   -7.854208    1.544257
     72          1           0      -24.782884   -6.966843    0.655461
     73          1           0      -27.458176   -2.804994    1.737496
     74          1           0      -27.923545   -1.608127    3.015299
     75          1           0      -26.620182   -2.897908    3.178025
     76          1           0      -24.440397    2.690546    3.335839
     77          1           0      -25.868691    6.661348    3.258519
     78          1           0      -26.845267    6.004739    1.873526
     79          1           0      -25.068669    6.446732    1.672415
     80         12           0       22.454858   -0.668554    0.458774
     81          6           0       22.644149    2.417162   -1.347857
     82          6           0       23.077366    1.050306    3.365990
     83          6           0       22.756413   -3.561870    2.175050
     84          6           0       22.801938   -2.317381   -2.639978
     85          7           0       22.801690    1.479367    0.920203
     86          6           0       22.770564    2.592297    0.065223
     87          6           0       22.924492    3.847931    0.884601
     88          6           0       23.562074    3.298707    2.229932
     89          6           0       23.171508    1.793289    2.156337
     90          6           0       25.113795    3.528452    2.157548
     91          6           0       21.611680    4.698897    1.009970
     92          6           0       21.899622    6.103051    0.823610
     93          1           0       20.609436    7.034776    0.574543
     94          7           0       22.692634   -1.087909    2.538011
     95          6           0       22.893171   -0.247242    3.559951
     96          6           0       22.887345   -0.983892    4.786377
     97          6           0       22.815350   -2.327463    4.483875
     98          6           0       22.688884   -2.408398    2.955676
     99          6           0       23.162580   -0.304692    6.165520
    100          6           0       22.743780   -3.536199    5.439511
    101          8           0       22.718795   -4.648071    4.975745
    102          6           0       22.613425   -3.335944    6.931021
    103          7           0       23.015280   -2.634853   -0.177357
    104          6           0       22.928320   -3.666495    0.750951
    105          6           0       22.909741   -4.994950    0.067366
    106          6           0       22.902008   -4.602859   -1.490256
    107          6           0       22.839263   -3.093968   -1.457014
    108          6           0       24.013670   -5.896291    0.506904
    109          6           0       21.738004   -5.252951   -2.421661
    110          6           0       22.148825   -6.115973   -3.548498
    111          7           0       22.630708   -0.132450   -1.603045
    112          6           0       22.766308   -0.939067   -2.710391
    113          6           0       22.766143   -0.039216   -3.944533
    114          6           0       22.605170    1.276565   -3.465949
    115          6           0       22.580836    1.170296   -2.031139
    116          6           0       22.940654   -0.538658   -5.385240
    117          6           0       22.618494    2.640352   -3.901124
    118          8           0       22.672745    3.122875   -5.054829
    119          6           0       22.815499    3.450296   -2.554476
    120          6           0       21.812527    4.639932   -2.638859
    121          8           0       20.729780    4.604020   -2.025985
    122          8           0       22.356170    5.649738   -3.361708
    123          6           0       21.300672    6.693228   -3.600776
    124          1           0       23.050603    1.599294    4.309963
    125          1           0       22.834026   -4.512067    2.708806
    126          1           0       22.808697   -2.737594   -3.647732
    127          1           0       23.711703    4.422645    0.397167
    128          1           0       23.170413    3.817832    3.103976
    129          1           0       25.625328    2.842589    1.482707
    130          1           0       25.522592    3.476599    3.165761
    131          1           0       25.300797    4.545162    1.811180
    132          1           0       21.314441    4.645456    2.057569
    133          1           0       20.812677    4.313978    0.375861
    134          1           0       22.437081    6.273770   -0.109332
    135          1           0       22.439449    6.445097    1.706956
    136          1           0       22.292524   -0.594024    6.754853
    137          1           0       23.201641    0.784244    6.141744
    138          1           0       24.117076   -0.648899    6.563492
    139          1           0       22.661804   -4.292633    7.451242
    140          1           0       21.618798   -2.890813    6.906907
    141          1           0       23.403517   -2.656832    7.251301
    142          1           0       21.938889   -5.395875    0.359180
    143          1           0       23.855730   -4.937432   -1.897631
    144          1           0       23.512818   -6.676053    1.079282
    145          1           0       24.688078   -5.426551    1.222716
    146          1           0       24.626747   -6.313743   -0.292156
    147          1           0       21.293357   -4.366782   -2.874451
    148          1           0       21.002569   -5.708296   -1.759756
    149          1           0       21.853662   -5.683546   -4.504171
    150          1           0       21.463639   -6.934522   -3.330711
    151          1           0       23.175825   -6.474189   -3.465326
    152          1           0       24.006238   -0.456180   -5.596370
    153          1           0       22.379531    0.057183   -6.105050
    154          1           0       22.553458   -1.555109   -5.456407
    155          1           0       23.852805    3.776673   -2.615381
    156          1           0       20.545082    6.421294   -4.337640
    157          1           0       21.683788    7.673602   -3.882082
    158          1           0       20.844245    6.871867   -2.626986
 ---------------------------------------------------------------------

 SCF Done:  E(RCAM-B3LYP) =  -4069.78282130     A.U. after   18 cycles

 Excitation energies and oscillator strengths:

 Excited State   1:      Singlet-A      1.6981 eV  730.13 nm  f=0.3928  <S**2>=0.000
     310 -> 316       -0.17920
     311 -> 313        0.68573
     310 <- 316       -0.10834
 This state for optimization and/or second-order correction.
 Total Energy, E(TD-HF/TD-DFT) =  -4069.72041646
 Copying the excited state density for this state as the 1-particle RhoCI density.

 Excited State   2:      Singlet-A      1.7187 eV  721.36 nm  f=0.3606  <S**2>=0.000
     309 -> 315       -0.18753
     312 -> 314        0.68228
     309 <- 315       -0.10713

 Excited State   3:      Singlet-A      2.2224 eV  557.87 nm  f=0.0942  <S**2>=0.000
     310 -> 313        0.63227
     311 -> 316        0.30141

 Excited State   4:      Singlet-A      2.2689 eV  546.46 nm  f=0.0058  <S**2>=0.000
     309 -> 314        0.54882
     312 -> 315        0.43684

 Excited State   5:      Singlet-A      2.9036 eV  427.01 nm  f=0.0000  <S**2>=0.000
     312 -> 313        0.70710

 The electronic state is 1-A.
 Alpha  occ. eigenvalues --  -46.89451 -46.87874 -19.26179 -19.24416 -19.19778
 Alpha  occ. eigenvalues --  -19.19506 -19.19076 -19.18767 -19.18657 -19.18254
 Alpha  occ. eigenvalues --  -14.42710 -14.42288 -14.42039 -14.41933 -14.39385
 Alpha  occ. eigenvalues --  -14.39172 -14.39045 -14.38435 -10.39740 -10.37963
 Alpha  occ. eigenvalues --  -10.35696 -10.35580 -10.34926 -10.34644 -10.32104
 Alpha  occ. eigenvalues --  -10.31595 -10.31555 -10.31392 -10.31327 -10.31225
 Alpha  occ. eigenvalues --  -10.31124 -10.31110 -10.30948 -10.30500 -10.30439
 Alpha  occ. eigenvalues --  -10.29802 -10.29694 -10.29606 -10.29193 -10.29023
 Alpha  occ. eigenvalues --  -10.28990 -10.28988 -10.28788 -10.28681 -10.28636
 Alpha  occ. eigenvalues --  -10.28293 -10.28173 -10.28134 -10.28131 -10.28127
 Alpha  occ. eigenvalues --  -10.28108 -10.28069 -10.28061 -10.27825 -10.27530
 Alpha  occ. eigenvalues --  -10.27528 -10.27520 -10.27388 -10.27370 -10.27258
 Alpha  occ. eigenvalues --  -10.27212 -10.27136 -10.27055 -10.27035 -10.27029
 Alpha  occ. eigenvalues --  -10.26953 -10.26947 -10.26939 -10.26860 -10.26854
 Alpha  occ. eigenvalues --  -10.26440 -10.26406 -10.26311 -10.26267 -10.26249
 Alpha  occ. eigenvalues --  -10.26150 -10.25971 -10.25898 -10.25745 -10.25588
 Alpha  occ. eigenvalues --  -10.25488 -10.25378 -10.25237 -10.25122 -10.25045
 Alpha  occ. eigenvalues --  -10.24949  -3.17788  -3.16534  -1.92684  -1.92230
 Alpha  occ. eigenvalues --   -1.92089  -1.91449  -1.90991  -1.90836  -1.16064
 Alpha  occ. eigenvalues --   -1.15843  -1.11757  -1.10978  -1.09487  -1.07867
 Alpha  occ. eigenvalues --   -1.07148  -1.06729  -1.05238  -1.04107  -1.04101
 Alpha  occ. eigenvalues --   -1.03313  -1.03051  -1.02720  -1.02349  -1.01452
 Alpha  occ. eigenvalues --   -0.92430  -0.91238  -0.89211  -0.88955  -0.88707
 Alpha  occ. eigenvalues --   -0.88706  -0.88330  -0.88208  -0.87568  -0.87522
 Alpha  occ. eigenvalues --   -0.87266  -0.86971  -0.86700  -0.85489  -0.84639
 Alpha  occ. eigenvalues --   -0.84428  -0.83801  -0.83703  -0.82637  -0.82627
 Alpha  occ. eigenvalues --   -0.82532  -0.82468  -0.81408  -0.80739  -0.80693
 Alpha  occ. eigenvalues --   -0.80475  -0.78790  -0.78232  -0.77793  -0.77558
 Alpha  occ. eigenvalues --   -0.77280  -0.76553  -0.75890  -0.75488  -0.75145
 Alpha  occ. eigenvalues --   -0.74941  -0.72776  -0.72186  -0.71813  -0.71455
 Alpha  occ. eigenvalues --   -0.69385  -0.68944  -0.68815  -0.68224  -0.67882
 Alpha  occ. eigenvalues --   -0.67430  -0.66914  -0.66388  -0.65545  -0.65421
 Alpha  occ. eigenvalues --   -0.65125  -0.64976  -0.64676  -0.64450  -0.64313
 Alpha  occ. eigenvalues --   -0.64201  -0.62055  -0.61422  -0.60527  -0.59937
 Alpha  occ. eigenvalues --   -0.59751  -0.59130  -0.58951  -0.58826  -0.58449
 Alpha  occ. eigenvalues --   -0.58252  -0.57955  -0.57434  -0.57297  -0.57111
 Alpha  occ. eigenvalues --   -0.56359  -0.55998  -0.55750  -0.55572  -0.55406
 Alpha  occ. eigenvalues --   -0.55074  -0.54781  -0.54572  -0.54339  -0.54023
 Alpha  occ. eigenvalues --   -0.53991  -0.53802  -0.53565  -0.53154  -0.52983
 Alpha  occ. eigenvalues --   -0.52962  -0.52759  -0.52606  -0.52589  -0.52469
 Alpha  occ. eigenvalues --   -0.52343  -0.52073  -0.51927  -0.51311  -0.51269
 Alpha  occ. eigenvalues --   -0.50988  -0.50840  -0.50568  -0.50489  -0.50434
 Alpha  occ. eigenvalues --   -0.50298  -0.50230  -0.50139  -0.49928  -0.49528
 Alpha  occ. eigenvalues --   -0.49434  -0.49343  -0.49136  -0.49132  -0.48988
 Alpha  occ. eigenvalues --   -0.48948  -0.48664  -0.48621  -0.48226  -0.48214
 Alpha  occ. eigenvalues --   -0.48014  -0.47859  -0.47718  -0.47447  -0.47446
 Alpha  occ. eigenvalues --   -0.47100  -0.46834  -0.46632  -0.46588  -0.46560
 Alpha  occ. eigenvalues --   -0.46535  -0.46248  -0.46248  -0.46107  -0.46062
 Alpha  occ. eigenvalues --   -0.45863  -0.45399  -0.45148  -0.45109  -0.44796
 Alpha  occ. eigenvalues --   -0.44650  -0.44558  -0.44403  -0.44365  -0.44237
 Alpha  occ. eigenvalues --   -0.44101  -0.44008  -0.43762  -0.43680  -0.43472
 Alpha  occ. eigenvalues --   -0.43366  -0.43172  -0.43041  -0.42856  -0.42806
 Alpha  occ. eigenvalues --   -0.42699  -0.42381  -0.42017  -0.41953  -0.41931
 Alpha  occ. eigenvalues --   -0.41822  -0.41506  -0.41481  -0.41280  -0.41144
 Alpha  occ. eigenvalues --   -0.40961  -0.40796  -0.40376  -0.40241  -0.40196
 Alpha  occ. eigenvalues --   -0.39857  -0.39502  -0.39273  -0.38860  -0.38785
 Alpha  occ. eigenvalues --   -0.38566  -0.37885  -0.37769  -0.37285  -0.37258
 Alpha  occ. eigenvalues --   -0.37101  -0.36971  -0.36882  -0.36286  -0.36163
 Alpha  occ. eigenvalues --   -0.36050  -0.34804  -0.34064  -0.34013  -0.33980
 Alpha  occ. eigenvalues --   -0.33840  -0.33115  -0.32980  -0.31750  -0.31417
 Alpha  occ. eigenvalues --   -0.31303  -0.30964  -0.30646  -0.30205  -0.30095
 Alpha  occ. eigenvalues --   -0.29715  -0.29351  -0.29044  -0.24271  -0.24201
 Alpha  occ. eigenvalues --   -0.21124  -0.20221
 Alpha virt. eigenvalues --   -0.08793  -0.07592  -0.02528  -0.01871  -0.00012
 Alpha virt. eigenvalues --    0.00620   0.01794   0.02381   0.02735   0.03381
 Alpha virt. eigenvalues --    0.04703   0.04843   0.05247   0.05437   0.05995

 Mulliken charges:
               1
     1  Mg  12.003239
     2  C    6.023371
     3  C    5.978919
     4  C    5.976612
     5  C    6.016904
     6  N    7.005781
     7  C    5.962246
     8  C    6.007538
     9  C    5.992631
    10  C    6.029574
    11  C    5.998907
    12  C    6.005357
    13  C    5.998601
    14  H    1.000953
    15  N    6.991531
    16  C    6.042202
    17  C    6.028368
    18  C    6.008914
    19  C    6.040791
    20  C    5.993212
    21  C    6.012639
    22  O    8.021817
    23  C    5.991891
    24  N    6.995665
    25  C    6.045867
    26  C    5.989659
    27  C    6.015449
    28  C    5.961629
    29  C    5.997475
    30  C    6.003036
    31  C    6.000350
    32  N    7.006163
    33  C    5.961355
    34  C    5.968321
    35  C    5.996379
    36  C    5.963957
    37  C    6.002877
    38  C    5.984331
    39  O    7.968726
    40  C    5.996403
    41  C    5.996402
    42  O    7.995281
    43  O    7.998933
    44  C    6.001462
    45  H    1.008410
    46  H    1.009036
    47  H    0.988304
    48  H    1.000375
    49  H    0.999642
    50  H    0.995057
    51  H    1.000495
    52  H    1.013200
    53  H    0.993217
    54  H    1.005598
    55  H    0.992611
    56  H    0.997513
    57  H    1.022405
    58  H    1.023452
    59  H    1.021873
    60  H    1.005128
    61  H    1.014816
    62  H    1.007791
    63  H    0.999405
    64  H    0.997379
    65  H    1.002254
    66  H    0.996582
    67  H    1.013502
    68  H    1.003338
    69  H    0.987482
    70  H    1.004579
    71  H    0.994061
    72  H    0.997916
    73  H    0.979996
    74  H    0.984835
    75  H    0.977574
    76  H    0.992758
    77  H    0.996325
    78  H    0.998173
    79  H    0.993205
    80  Mg  11.999911
    81  C    6.000414
    82  C    5.999883
    83  C    5.999494
    84  C    6.000232
    85  N    7.000223
    86  C    5.999450
    87  C    6.000080
    88  C    5.999806
    89  C    6.000445
    90  C    5.999919
    91  C    6.000072
    92  C    6.000008
    93  H    0.999943
    94  N    6.999744
    95  C    6.000499
    96  C    6.000245
    97  C    6.000187
    98  C    6.000665
    99  C    5.999960
   100  C    6.000154
   101  O    8.000328
   102  C    5.999992
   103  N    6.999930
   104  C    6.000663
   105  C    5.999786
   106  C    6.000229
   107  C    5.999522
   108  C    5.999971
   109  C    6.000034
   110  C    6.000047
   111  N    7.000060
   112  C    5.999439
   113  C    5.999480
   114  C    6.000007
   115  C    5.999479
   116  C    6.000087
   117  C    5.999731
   118  O    7.999617
   119  C    6.000011
   120  C    5.999944
   121  O    7.999845
   122  O    8.000030
   123  C    6.000048
   124  H    1.000178
   125  H    1.000097
   126  H    0.999862
   127  H    1.000072
   128  H    1.000078
   129  H    1.000146
   130  H    1.000034
   131  H    1.000208
   132  H    0.999832
   133  H    1.000014
   134  H    1.000078
   135  H    0.999958
   136  H    1.000200
   137  H    1.000251
   138  H    1.000283
   139  H    1.000220
   140  H    1.000045
   141  H    1.000106
   142  H    0.999981
   143  H    0.999944
   144  H    1.000009
   145  H    0.999984
   146  H    1.000183
   147  H    1.000041
   148  H    0.999815
   149  H    1.000006
   150  H    0.999892
   151  H    0.999987
   152  H    0.999740
   153  H    0.999698
   154  H    0.999706
   155  H    0.999930
   156  H    0.999932
   157  H    0.999956
   158  H    0.999925
 Sum of Mulliken charges = 624.00000

 Dipole moment (field-independent basis, Debye):
    X=              8.6757    Y=             -0.1799    Z=             -6.8332  Tot=             11.0451
 Quadrupole moment (field-independent basis, Debye-Ang):
   XX=           -388.2287   YY=             -3.0729   ZZ=              6.4653
   XY=             -1.7830   XZ=            156.1060   YZ=              3.6367

 Normal termination of Gaussian 16 at Thu Sep 23 00:53:34 2021.
