 Gaussian 16, Revision A.03,
 Gaussian 16:  ES64L-G16RevA.03 25-Dec-2016

 -----------------------------------
 #p cam-b3lyp/Def2SVP td=(nstates=5)
 -----------------------------------

 --------------------------------
 TDDFT excited states in gaussian
 --------------------------------
 Symbolic Z-matrix:
 Charge =  0 Multiplicity = 1

                         Standard orientation:
 ---------------------------------------------------------------------
 Center     Atomic      Atomic             Coordinates (Angstroms)
 Number     Number       Type             X           Y           Z
 ---------------------------------------------------------------------
      1         12           0        8.936646    0.599549   -0.174795
      2          6           0        6.590234   -1.989438   -0.893953
      3          6           0        6.624378    2.716175   -1.263508
      4          6           0       10.596355    3.109392    1.363890
      5          6           0       10.665983   -1.855135    1.744610
      6          7           0        6.973270    0.384968   -1.064038
      7          6           0        6.212777   -0.767299   -1.358905
      8          6           0        4.843220   -0.442355   -2.034239
      9          6           0        4.937162    1.103102   -2.178244
     10          6           0        6.303992    1.439320   -1.545241
     11          6           0        4.756557    1.439307   -3.667897
     12          6           0        3.521258   -0.896361   -1.277181
     13          6           0        2.675228   -1.966918   -1.956638
     14          1           0        1.195447   -1.632304   -2.234402
     15          7           0        8.734801    2.601436   -0.041001
     16          6           0        7.660249    3.308559   -0.580054
     17          6           0        7.864201    4.694218   -0.445885
     18          6           0        9.081415    4.889450    0.180278
     19          6           0        9.535818    3.563978    0.549072
     20          6           0        6.948021    5.877674   -0.932641
     21          6           0        9.676327    6.258001    0.415738
     22          8           0        9.216561    7.273864   -0.014138
     23          6           0       11.088251    6.274361    1.183781
     24          7           0       10.371748    0.646401    1.391860
     25          6           0       10.925223    1.825344    1.811170
     26          6           0       11.870855    1.481590    3.033838
     27          6           0       12.010087   -0.048804    3.091540
     28          6           0       10.935134   -0.471830    2.019103
     29          6           0       13.153838    2.261828    3.080415
     30          6           0       11.575575   -0.546965    4.464306
     31          6           0       12.104774   -1.883012    4.913646
     32          7           0        8.845753   -1.557527    0.142942
     33          6           0        9.624817   -2.386638    0.914206
     34          6           0        9.205999   -3.732833    0.764352
     35          6           0        8.023516   -3.704044   -0.012258
     36          6           0        7.804631   -2.317938   -0.251372
     37          6           0        9.767554   -4.928698    1.422620
     38          6           0        6.903758   -4.429786   -0.626953
     39          8           0        6.712002   -5.652071   -0.679586
     40          6           0        5.926093   -3.363108   -1.253864
     41          6           0        5.973114   -3.465684   -2.688066
     42          8           0        6.952778   -3.028931   -3.337279
     43          8           0        4.860571   -4.116971   -3.080382
     44          6           0        4.554475   -4.191417   -4.535298
     45          1           0        5.902380    3.439675   -1.648757
     46          1           0       11.151214    3.948040    1.789905
     47          1           0       11.227463   -2.666071    2.212503
     48          1           0        4.807279   -0.892081   -3.026439
     49          1           0        4.186929    1.640717   -1.599193
     50          1           0        4.986825    2.498329   -3.780649
     51          1           0        3.762007    1.265647   -4.078548
     52          1           0        5.436375    0.874080   -4.306434
     53          1           0        2.884467   -0.012538   -1.315930
     54          1           0        3.752556   -1.159076   -0.244854
     55          1           0        2.736847   -2.865479   -1.341767
     56          1           0        3.098045   -2.186942   -2.937535
     57          1           0        6.783022    6.500293   -0.053074
     58          1           0        5.988855    5.522895   -1.309458
     59          1           0        7.314767    6.441690   -1.790206
     60          1           0       11.420471    7.311843    1.162127
     61          1           0       11.693846    5.586693    0.592992
     62          1           0       10.812604    5.889208    2.165456
     63          1           0       11.291615    1.817519    3.894638
     64          1           0       12.996045   -0.461954    2.878935
     65          1           0       13.909150    1.647974    3.570359
     66          1           0       12.931778    3.165366    3.648576
     67          1           0       13.483968    2.645262    2.115670
     68          1           0       10.492352   -0.578785    4.584960
     69          1           0       11.820943    0.161662    5.255318
     70          1           0       12.904386   -2.259371    4.275880
     71          1           0       11.276658   -2.591737    4.892491
     72          1           0       12.356030   -1.861663    5.974033
     73          1           0       10.827585   -4.805261    1.646683
     74          1           0        9.620179   -5.745367    0.715497
     75          1           0        9.219352   -5.026056    2.359968
     76          1           0        4.916608   -3.371304   -0.842773
     77          1           0        4.077219   -5.171562   -4.577403
     78          1           0        5.428449   -4.093052   -5.178515
     79          1           0        3.728036   -3.532606   -4.804006
     80         12           0       -8.914349    0.357106   -0.113204
     81          6           0       -6.711716   -2.489850   -0.261659
     82          6           0       -6.919285    1.967869   -2.253522
     83          6           0      -10.492304    3.177773    0.772596
     84          6           0      -10.605120   -1.315629    2.465072
     85          7           0       -7.037806   -0.187031   -1.069401
     86          6           0       -6.411197   -1.441774   -1.158118
     87          6           0       -5.291061   -1.447283   -2.267091
     88          6           0       -5.358461    0.008900   -2.818953
     89          6           0       -6.549021    0.632836   -2.043282
     90          6           0       -4.111408    0.849073   -2.709552
     91          6           0       -5.499896   -2.622603   -3.364471
     92          6           0       -4.282636   -3.527041   -3.593425
     93          1           0       -3.772731   -3.548254   -5.082352
     94          7           0       -8.819428    2.291324   -0.773268
     95          6           0       -7.937867    2.783619   -1.649444
     96          6           0       -8.131328    4.219396   -1.859723
     97          6           0       -9.127673    4.575092   -0.886215
     98          6           0       -9.526178    3.330034   -0.221301
     99          6           0       -7.372213    5.003055   -2.842501
    100          6           0       -9.560751    6.044382   -0.585466
    101          8           0      -10.455360    6.306228    0.201079
    102          6           0       -8.933010    7.226248   -1.252930
    103          7           0      -10.299662    0.821946    1.356925
    104          6           0      -10.908684    2.069564    1.438940
    105          6           0      -12.036025    2.072967    2.523040
    106          6           0      -12.271169    0.538457    2.784411
    107          6           0      -11.022743   -0.047467    2.125254
    108          6           0      -11.839315    2.984218    3.778164
    109          6           0      -13.568448   -0.024908    2.142254
    110          6           0      -14.378792   -1.035406    2.914234
    111          7           0       -8.697989   -1.491034    0.950958
    112          6           0       -9.458546   -2.013722    1.958090
    113          6           0       -8.994849   -3.444931    2.225398
    114          6           0       -7.964279   -3.683669    1.348666
    115          6           0       -7.772434   -2.446008    0.643927
    116          6           0       -9.694123   -4.361137    3.203675
    117          6           0       -6.962769   -4.624206    0.878702
    118          8           0       -6.836124   -5.787429    1.315023
    119          6           0       -5.989969   -3.827360   -0.178948
    120          6           0       -4.567478   -3.621463    0.298203
    121          8           0       -4.334192   -3.079984    1.396943
    122          8           0       -3.631373   -4.252706   -0.521951
    123          6           0       -2.341800   -4.420458    0.137911
    124          1           0       -6.377815    2.515507   -3.027434
    125          1           0      -10.998204    4.128384    0.952011
    126          1           0      -11.254839   -1.815048    3.187454
    127          1           0       -4.391931   -1.659119   -1.688813
    128          1           0       -5.431451   -0.112268   -3.900611
    129          1           0       -3.293792    0.339951   -2.199083
    130          1           0       -4.461935    1.589437   -1.991259
    131          1           0       -3.731194    1.185038   -3.674733
    132          1           0       -5.774220   -2.065858   -4.260076
    133          1           0       -6.394718   -3.189606   -3.109137
    134          1           0       -4.552221   -4.512206   -3.212804
    135          1           0       -3.447706   -3.160488   -2.994871
    136          1           0       -6.810310    5.881321   -2.526212
    137          1           0       -8.136688    5.517453   -3.423689
    138          1           0       -6.850626    4.422843   -3.604001
    139          1           0       -9.137004    7.090555   -2.315716
    140          1           0       -7.856057    7.122053   -1.118019
    141          1           0       -9.377857    8.100890   -0.780017
    142          1           0      -12.901756    2.464969    1.989184
    143          1           0      -12.195495    0.270945    3.838098
    144          1           0      -10.943258    3.560707    3.549409
    145          1           0      -11.790281    2.442435    4.722278
    146          1           0      -12.590931    3.772554    3.835036
    147          1           0      -13.108658   -0.473990    1.262111
    148          1           0      -14.266810    0.730943    1.782398
    149          1           0      -15.419352   -0.742332    2.774297
    150          1           0      -14.182948   -1.012762    3.986742
    151          1           0      -14.280065   -1.974334    2.368913
    152          1           0      -10.502442   -3.787996    3.657436
    153          1           0       -8.998105   -4.587545    4.011078
    154          1           0       -9.995095   -5.277085    2.695591
    155          1           0       -6.032315   -4.344676   -1.137436
    156          1           0       -2.075118   -5.446960    0.385599
    157          1           0       -2.224320   -3.826550    1.044430
    158          1           0       -1.594690   -4.047434   -0.562175
 ---------------------------------------------------------------------

 SCF Done:  E(RCAM-B3LYP) =  -4069.79851736     A.U. after   18 cycles

 Excitation energies and oscillator strengths:

 Excited State   1:      Singlet-A      1.6966 eV  730.76 nm  f=0.2108  <S**2>=0.000
     310 -> 316        0.16659
     311 -> 313       -0.18005
     312 -> 314        0.66454
     310 <- 316        0.10397
 This state for optimization and/or second-order correction.
 Total Energy, E(TD-HF/TD-DFT) =  -4069.73616678
 Copying the excited state density for this state as the 1-particle RhoCI density.

 Excited State   2:      Singlet-A      1.7242 eV  719.06 nm  f=0.5664  <S**2>=0.000
     309 -> 315       -0.16566
     311 -> 313        0.66348
     312 -> 314        0.17961
     309 <- 315       -0.10043

 Excited State   3:      Singlet-A      2.2583 eV  549.02 nm  f=0.1273  <S**2>=0.000
     309 -> 313        0.63503
     311 -> 315        0.28856

 Excited State   4:      Singlet-A      2.2868 eV  542.17 nm  f=0.0897  <S**2>=0.000
     310 -> 314        0.62761
     312 -> 316       -0.31204

 Excited State   5:      Singlet-A      2.7276 eV  454.55 nm  f=0.0000  <S**2>=0.000
     312 -> 313        0.70702

 The electronic state is 1-A.
 Alpha  occ. eigenvalues --  -46.88598 -46.88452 -19.26722 -19.26663 -19.20888
 Alpha  occ. eigenvalues --  -19.19977 -19.19776 -19.19734 -19.18836 -19.18611
 Alpha  occ. eigenvalues --  -14.42645 -14.42631 -14.42264 -14.41718 -14.39751
 Alpha  occ. eigenvalues --  -14.39590 -14.39438 -14.38558 -10.40871 -10.39645
 Alpha  occ. eigenvalues --  -10.36555 -10.35546 -10.35496 -10.34991 -10.33003
 Alpha  occ. eigenvalues --  -10.31723 -10.31714 -10.31676 -10.31570 -10.31071
 Alpha  occ. eigenvalues --  -10.31043 -10.30719 -10.30712 -10.30584 -10.30403
 Alpha  occ. eigenvalues --  -10.30183 -10.30008 -10.29846 -10.29707 -10.29572
 Alpha  occ. eigenvalues --  -10.29347 -10.29206 -10.29132 -10.28929 -10.28770
 Alpha  occ. eigenvalues --  -10.28671 -10.28509 -10.28305 -10.28295 -10.28284
 Alpha  occ. eigenvalues --  -10.28117 -10.28117 -10.28087 -10.27841 -10.27835
 Alpha  occ. eigenvalues --  -10.27678 -10.27521 -10.27419 -10.27402 -10.27392
 Alpha  occ. eigenvalues --  -10.27330 -10.27291 -10.27288 -10.27174 -10.27162
 Alpha  occ. eigenvalues --  -10.27026 -10.27003 -10.26919 -10.26602 -10.26573
 Alpha  occ. eigenvalues --  -10.26420 -10.26339 -10.26213 -10.26189 -10.26092
 Alpha  occ. eigenvalues --  -10.25971 -10.25894 -10.25796 -10.25783 -10.25667
 Alpha  occ. eigenvalues --  -10.25583 -10.25501 -10.25472 -10.25283 -10.25200
 Alpha  occ. eigenvalues --  -10.24926  -3.17196  -3.17104  -1.92073  -1.91985
 Alpha  occ. eigenvalues --   -1.91632  -1.91543  -1.91523  -1.91432  -1.16795
 Alpha  occ. eigenvalues --   -1.16369  -1.12050  -1.10174  -1.09089  -1.08771
 Alpha  occ. eigenvalues --   -1.07991  -1.07534  -1.04215  -1.03990  -1.03365
 Alpha  occ. eigenvalues --   -1.03269  -1.02928  -1.02719  -1.01958  -1.01826
 Alpha  occ. eigenvalues --   -0.92698  -0.92325  -0.89724  -0.89518  -0.89181
 Alpha  occ. eigenvalues --   -0.88860  -0.88799  -0.88100  -0.87420  -0.87405
 Alpha  occ. eigenvalues --   -0.87298  -0.86723  -0.86587  -0.86192  -0.84944
 Alpha  occ. eigenvalues --   -0.84378  -0.84343  -0.83715  -0.83443  -0.82786
 Alpha  occ. eigenvalues --   -0.82008  -0.82006  -0.81266  -0.81233  -0.80400
 Alpha  occ. eigenvalues --   -0.80290  -0.78504  -0.77807  -0.77655  -0.77472
 Alpha  occ. eigenvalues --   -0.77013  -0.76809  -0.76384  -0.76291  -0.75222
 Alpha  occ. eigenvalues --   -0.74792  -0.72845  -0.72518  -0.71816  -0.71046
 Alpha  occ. eigenvalues --   -0.69400  -0.69059  -0.68674  -0.68476  -0.68017
 Alpha  occ. eigenvalues --   -0.67919  -0.67352  -0.66793  -0.65825  -0.65675
 Alpha  occ. eigenvalues --   -0.65396  -0.65098  -0.65088  -0.64964  -0.64673
 Alpha  occ. eigenvalues --   -0.64411  -0.62644  -0.62353  -0.60359  -0.60226
 Alpha  occ. eigenvalues --   -0.59852  -0.59739  -0.59560  -0.58975  -0.58649
 Alpha  occ. eigenvalues --   -0.58598  -0.58399  -0.58305  -0.57386  -0.57232
 Alpha  occ. eigenvalues --   -0.56509  -0.56330  -0.56155  -0.55469  -0.55170
 Alpha  occ. eigenvalues --   -0.55075  -0.54970  -0.54817  -0.54365  -0.53946
 Alpha  occ. eigenvalues --   -0.53831  -0.53607  -0.53274  -0.53198  -0.52964
 Alpha  occ. eigenvalues --   -0.52672  -0.52605  -0.52529  -0.52492  -0.51921
 Alpha  occ. eigenvalues --   -0.51780  -0.51677  -0.51625  -0.51552  -0.51338
 Alpha  occ. eigenvalues --   -0.51335  -0.51220  -0.50880  -0.50627  -0.50485
 Alpha  occ. eigenvalues --   -0.50325  -0.50252  -0.50058  -0.49970  -0.49668
 Alpha  occ. eigenvalues --   -0.49433  -0.49259  -0.49255  -0.49032  -0.48860
 Alpha  occ. eigenvalues --   -0.48700  -0.48503  -0.48402  -0.48341  -0.48200
 Alpha  occ. eigenvalues --   -0.48193  -0.48012  -0.47586  -0.47573  -0.47313
 Alpha  occ. eigenvalues --   -0.47084  -0.47055  -0.46827  -0.46547  -0.46537
 Alpha  occ. eigenvalues --   -0.46409  -0.46194  -0.46104  -0.46018  -0.45751
 Alpha  occ. eigenvalues --   -0.45735  -0.45435  -0.45406  -0.45274  -0.45041
 Alpha  occ. eigenvalues --   -0.44832  -0.44640  -0.44445  -0.44390  -0.44226
 Alpha  occ. eigenvalues --   -0.44212  -0.44109  -0.43891  -0.43785  -0.43674
 Alpha  occ. eigenvalues --   -0.43582  -0.43401  -0.43241  -0.43156  -0.43069
 Alpha  occ. eigenvalues --   -0.42905  -0.42898  -0.42760  -0.42665  -0.42398
 Alpha  occ. eigenvalues --   -0.42058  -0.41811  -0.41803  -0.41774  -0.41722
 Alpha  occ. eigenvalues --   -0.41218  -0.40841  -0.40715  -0.40615  -0.40292
 Alpha  occ. eigenvalues --   -0.40281  -0.40195  -0.39590  -0.39276  -0.39199
 Alpha  occ. eigenvalues --   -0.38568  -0.38380  -0.38291  -0.37880  -0.37760
 Alpha  occ. eigenvalues --   -0.37522  -0.37450  -0.37364  -0.36826  -0.36502
 Alpha  occ. eigenvalues --   -0.36192  -0.36155  -0.35193  -0.34510  -0.34471
 Alpha  occ. eigenvalues --   -0.34249  -0.33020  -0.32955  -0.31880  -0.31610
 Alpha  occ. eigenvalues --   -0.31455  -0.30968  -0.30857  -0.30760  -0.30637
 Alpha  occ. eigenvalues --   -0.30452  -0.29851  -0.29015  -0.24361  -0.24242
 Alpha  occ. eigenvalues --   -0.21340  -0.20850
 Alpha virt. eigenvalues --   -0.08840  -0.08494  -0.01782  -0.01390  -0.00101
 Alpha virt. eigenvalues --    0.00465   0.01719   0.02097   0.02261   0.02641
 Alpha virt. eigenvalues --    0.02757   0.04152   0.04410   0.04525   0.05386

 Mulliken charges:
               1
     1  Mg   0.849923
     2  C   -0.035752
     3  C   -0.127576
     4  C   -0.088233
     5  C   -0.058836
     6  N   -0.306866
     7  C   -0.024849
     8  C   -0.013151
     9  C   -0.067319
    10  C    0.093768
    11  C    0.060792
    12  C    0.056410
    13  C   -0.081472
    14  H    0.011761
    15  N   -0.421964
    16  C    0.201712
    17  C   -0.158722
    18  C   -0.012126
    19  C    0.124771
    20  C    0.150621
    21  C   -0.039901
    22  O   -0.163394
    23  C    0.032923
    24  N   -0.321020
    25  C    0.081269
    26  C   -0.032076
    27  C   -0.024595
    28  C    0.083688
    29  C    0.078862
    30  C   -0.005418
    31  C    0.032738
    32  N   -0.303144
    33  C    0.079954
    34  C   -0.204654
    35  C    0.040345
    36  C    0.083749
    37  C    0.124703
    38  C    0.054410
    39  O   -0.186544
    40  C   -0.002100
    41  C    0.227819
    42  O   -0.252389
    43  O   -0.320477
    44  C    0.163705
    45  H   -0.039269
    46  H   -0.061446
    47  H   -0.036866
    48  H    0.007500
    49  H    0.019465
    50  H    0.005596
    51  H    0.018857
    52  H    0.021371
    53  H    0.017182
    54  H    0.024180
    55  H    0.046202
    56  H    0.016838
    57  H    0.039585
    58  H   -0.011962
    59  H    0.038904
    60  H    0.031142
    61  H    0.046588
    62  H    0.048920
    63  H    0.020828
    64  H    0.012838
    65  H    0.018551
    66  H    0.010179
    67  H    0.016817
    68  H    0.005802
    69  H   -0.002161
    70  H    0.015916
    71  H    0.008928
    72  H    0.009028
    73  H    0.009373
    74  H    0.043256
    75  H    0.037805
    76  H    0.027271
    77  H    0.044037
    78  H    0.068386
    79  H    0.039378
    80  Mg   0.838982
    81  C   -0.085770
    82  C   -0.073423
    83  C   -0.080355
    84  C   -0.091615
    85  N   -0.300353
    86  C   -0.058228
    87  C   -0.033353
    88  C   -0.059786
    89  C    0.087830
    90  C    0.072408
    91  C    0.046877
    92  C   -0.051063
    93  H    0.009349
    94  N   -0.369128
    95  C    0.094510
    96  C   -0.130142
    97  C   -0.034118
    98  C    0.096931
    99  C    0.117767
   100  C   -0.018389
   101  O   -0.206344
   102  C    0.074206
   103  N   -0.329482
   104  C    0.078630
   105  C   -0.014133
   106  C   -0.051162
   107  C    0.041012
   108  C    0.083592
   109  C    0.023066
   110  C    0.033861
   111  N   -0.304589
   112  C    0.131473
   113  C   -0.210305
   114  C    0.055892
   115  C    0.126804
   116  C    0.140640
   117  C    0.068373
   118  O   -0.186694
   119  C    0.029205
   120  C    0.231108
   121  O   -0.228395
   122  O   -0.337722
   123  C    0.157830
   124  H   -0.038337
   125  H   -0.010834
   126  H   -0.028385
   127  H    0.019780
   128  H    0.008064
   129  H    0.004515
   130  H    0.020904
   131  H    0.019441
   132  H    0.007798
   133  H    0.014708
   134  H    0.042566
   135  H    0.032620
   136  H    0.024354
   137  H    0.006652
   138  H    0.018354
   139  H    0.028779
   140  H    0.031706
   141  H    0.041709
   142  H    0.004171
   143  H    0.004975
   144  H    0.017524
   145  H    0.023726
   146  H    0.013289
   147  H    0.005337
   148  H    0.011044
   149  H    0.005805
   150  H    0.020998
   151  H    0.021882
   152  H    0.000898
   153  H    0.035607
   154  H    0.044568
   155  H    0.029822
   156  H    0.046795
   157  H    0.055163
   158  H    0.027834
 Sum of Mulliken charges =  -0.00000

 Dipole moment (field-independent basis, Debye):
    X=             -0.2733    Y=              2.8442    Z=             -2.6622  Tot=              3.9053
 Quadrupole moment (field-independent basis, Debye-Ang):
   XX=           -464.2256   YY=           -583.3926   ZZ=           -482.4255
   XY=             11.8829   XZ=             41.8760   YZ=             -3.0869

 Normal termination of Gaussian 16 at Wed Sep 15 14:57:31 2021.
