 Gaussian 16, Revision A.03,
 Gaussian 16:  ES64L-G16RevA.03 25-Dec-2016

 -----------------------------------
 #p cam-b3lyp/Def2SVP td=(nstates=5)
 -----------------------------------

 --------------------------------
 TDDFT excited states in gaussian
 --------------------------------
 Symbolic Z-matrix:
 Charge =  0 Multiplicity = 1

                         Standard orientation:
 ---------------------------------------------------------------------
 Center     Atomic      Atomic             Coordinates (Angstroms)
 Number     Number       Type             X           Y           Z
 ---------------------------------------------------------------------
      1         12           0      -24.082632    0.538339    0.226358
      2          6           0      -23.067141   -2.537211   -1.214648
      3          6           0      -20.975182    1.735584   -0.435443
      4          6           0      -25.310670    3.650451    0.831388
      5          6           0      -27.318415   -0.699009    0.333217
      6          7           0      -22.334960   -0.369567   -0.881755
      7          6           0      -22.066080   -1.646167   -1.298980
      8          6           0      -20.663574   -1.798367   -1.758068
      9          6           0      -19.946152   -0.492710   -1.172193
     10          6           0      -21.125861    0.348806   -0.822982
     11          6           0      -19.045576   -0.821773    0.007496
     12          6           0      -20.698458   -1.960262   -3.285875
     13          6           0      -19.976259   -3.229500   -3.906663
     14          1           0      -18.883147   -3.081834   -5.007573
     15          7           0      -23.305318    2.447549    0.261734
     16          6           0      -21.946214    2.707495    0.037501
     17          6           0      -21.704846    4.078430    0.373997
     18          6           0      -22.951522    4.699575    0.722705
     19          6           0      -23.914284    3.566312    0.686027
     20          6           0      -20.294852    4.653849    0.339302
     21          6           0      -23.226502    6.141338    1.087346
     22          8           0      -22.178905    6.842786    1.192174
     23          6           0      -24.595583    6.863440    1.235670
     24          7           0      -26.061381    1.395265    0.555381
     25          6           0      -26.293373    2.700985    0.814583
     26          6           0      -27.798849    3.029881    0.996477
     27          6           0      -28.429745    1.595666    0.944790
     28          6           0      -27.172598    0.697013    0.526582
     29          6           0      -28.007420    3.756279    2.313210
     30          6           0      -29.554190    1.422988   -0.030184
     31          6           0      -30.891679    1.189876    0.618434
     32          7           0      -25.020669   -1.224323   -0.127195
     33          6           0      -26.346360   -1.659594   -0.005344
     34          6           0      -26.457516   -3.020736   -0.150283
     35          6           0      -25.180938   -3.423856   -0.592397
     36          6           0      -24.375225   -2.288327   -0.635171
     37          6           0      -27.686122   -3.810440    0.248771
     38          6           0      -24.364342   -4.617427   -0.938950
     39          8           0      -24.676348   -5.767633   -0.951533
     40          6           0      -23.004107   -3.987072   -1.423400
     41          6           0      -21.895180   -4.864860   -0.885433
     42          8           0      -21.253649   -5.672594   -1.557333
     43          8           0      -21.667574   -4.586137    0.484151
     44          6           0      -20.520729   -5.319313    1.019345
     45          1           0      -19.933774    2.064872   -0.435304
     46          1           0      -25.732710    4.613640    1.127694
     47          1           0      -28.318342   -1.086736    0.130757
     48          1           0      -20.234938   -2.700114   -1.320593
     49          1           0      -19.327264   -0.064205   -1.960069
     50          1           0      -19.450840   -1.598824    0.654157
     51          1           0      -18.984496    0.059783    0.646512
     52          1           0      -18.019815   -1.058707   -0.274862
     53          1           0      -20.248721   -1.063246   -3.711304
     54          1           0      -21.700413   -1.907866   -3.711839
     55          1           0      -20.836711   -3.736419   -4.344189
     56          1           0      -19.681229   -3.926494   -3.123164
     57          1           0      -19.804868    4.434178   -0.609269
     58          1           0      -19.742407    4.144251    1.128650
     59          1           0      -20.191595    5.738469    0.393397
     60          1           0      -25.009535    6.423609    2.142464
     61          1           0      -25.209227    6.624416    0.367024
     62          1           0      -24.493524    7.947492    1.292456
     63          1           0      -28.210000    3.675228    0.220626
     64          1           0      -28.669435    1.259501    1.953246
     65          1           0      -27.304169    4.588599    2.345901
     66          1           0      -27.793313    3.057825    3.122809
     67          1           0      -29.007526    4.089186    2.588221
     68          1           0      -29.432200    0.564716   -0.690937
     69          1           0      -29.714664    2.232135   -0.742394
     70          1           0      -31.586164    1.932455    0.227475
     71          1           0      -30.876576    1.367517    1.693757
     72          1           0      -31.274407    0.175304    0.502669
     73          1           0      -27.360257   -4.847468    0.335511
     74          1           0      -28.482277   -3.739730   -0.491952
     75          1           0      -27.999436   -3.372276    1.196109
     76          1           0      -23.015731   -4.225187   -2.487639
     77          1           0      -20.078640   -4.778668    1.856329
     78          1           0      -19.696705   -5.342872    0.307642
     79          1           0      -20.760195   -6.347133    1.293388
     80         12           0       24.519662    0.404180   -0.179737
     81          6           0       23.041560   -2.039013    1.837232
     82          6           0       23.055450    2.793961    1.833163
     83          6           0       25.332484    2.790040   -2.481488
     84          6           0       25.353631   -2.078193   -2.445856
     85          7           0       23.304447    0.323352    1.637829
     86          6           0       23.020312   -0.756517    2.377061
     87          6           0       22.482646   -0.448758    3.782261
     88          6           0       22.308964    1.116908    3.712046
     89          6           0       23.030871    1.506218    2.304063
     90          6           0       20.871398    1.673211    3.799365
     91          6           0       23.375232   -0.930487    4.926181
     92          6           0       22.600166   -1.207940    6.227092
     93          1           0       21.084961   -0.963821    6.265263
     94          7           0       24.346519    2.501434   -0.278003
     95          6           0       23.756688    3.333042    0.701740
     96          6           0       23.907588    4.711026    0.279348
     97          6           0       24.520809    4.730949   -1.028658
     98          6           0       24.796013    3.322265   -1.307074
     99          6           0       23.533815    5.846499    1.191964
    100          6           0       24.993640    5.957008   -1.931743
    101          8           0       25.626755    5.834532   -2.952163
    102          6           0       24.590346    7.335379   -1.454771
    103          7           0       25.143464    0.362792   -2.191558
    104          6           0       25.457995    1.464014   -2.932821
    105          6           0       26.025022    1.086546   -4.350809
    106          6           0       26.072475   -0.437541   -4.255544
    107          6           0       25.483322   -0.726284   -2.887648
    108          6           0       25.380206    1.656913   -5.677875
    109          6           0       27.520667   -0.962787   -4.394005
    110          6           0       28.439311   -0.955621   -3.152052
    111          7           0       24.421823   -1.685303   -0.290729
    112          6           0       24.799144   -2.567450   -1.269818
    113          6           0       24.521907   -3.911793   -0.888754
    114          6           0       23.794151   -3.768848    0.377003
    115          6           0       23.757553   -2.455397    0.642311
    116          6           0       24.806757   -5.188951   -1.546457
    117          6           0       23.016485   -4.463605    1.393630
    118          8           0       22.847030   -5.674144    1.574447
    119          6           0       22.490492   -3.398046    2.399872
    120          6           0       21.035208   -3.431231    2.503182
    121          8           0       20.242958   -2.955115    1.697021
    122          8           0       20.676159   -4.274991    3.524194
    123          6           0       19.302458   -4.811456    3.581032
    124          1           0       22.535713    3.476213    2.509385
    125          1           0       25.761989    3.546269   -3.141819
    126          1           0       25.701492   -2.870037   -3.112455
    127          1           0       21.464928   -0.816306    3.911671
    128          1           0       22.946731    1.654787    4.412591
    129          1           0       20.991158    2.391133    4.610556
    130          1           0       20.169641    0.886222    4.074534
    131          1           0       20.572791    2.111877    2.847180
    132          1           0       24.186139   -0.233519    5.134289
    133          1           0       23.875695   -1.857973    4.646673
    134          1           0       23.123276   -0.542926    6.914581
    135          1           0       22.814625   -2.200957    6.624673
    136          1           0       22.998389    5.386515    2.022607
    137          1           0       22.907933    6.551235    0.644082
    138          1           0       24.397998    6.404811    1.555046
    139          1           0       23.548692    7.625329   -1.596353
    140          1           0       25.263629    8.055708   -1.919428
    141          1           0       24.824198    7.278756   -0.391716
    142          1           0       27.015461    1.537949   -4.297427
    143          1           0       25.444742   -0.813895   -5.062456
    144          1           0       25.180814    0.909498   -6.444897
    145          1           0       26.093366    2.346007   -6.129144
    146          1           0       24.494911    2.227336   -5.395285
    147          1           0       27.963651   -0.371726   -5.194660
    148          1           0       27.408567   -1.979372   -4.772097
    149          1           0       29.404986   -0.622539   -3.531498
    150          1           0       28.593142   -1.945397   -2.722806
    151          1           0       28.065769   -0.360053   -2.319812
    152          1           0       25.138818   -5.887368   -0.779104
    153          1           0       25.547946   -5.153143   -2.344925
    154          1           0       23.876568   -5.651178   -1.877398
    155          1           0       22.984302   -3.656074    3.336595
    156          1           0       18.669878   -4.408789    2.789192
    157          1           0       18.867987   -4.506354    4.533320
    158          1           0       19.495780   -5.878273    3.474303
 ---------------------------------------------------------------------

 SCF Done:  E(RCAM-B3LYP) =  -4069.82283132     A.U. after   18 cycles

 Excitation energies and oscillator strengths:

 Excited State   1:      Singlet-A      1.6837 eV  736.39 nm  f=0.3561  <S**2>=0.000
     309 -> 315       -0.17391
     311 -> 313        0.68683
     309 <- 315       -0.10794
 This state for optimization and/or second-order correction.
 Total Energy, E(TD-HF/TD-DFT) =  -4069.76095706
 Copying the excited state density for this state as the 1-particle RhoCI density.

 Excited State   2:      Singlet-A      1.7177 eV  721.80 nm  f=0.4158  <S**2>=0.000
     310 -> 316        0.18152
     312 -> 314        0.68396
     310 <- 316        0.10677

 Excited State   3:      Singlet-A      2.1355 eV  580.60 nm  f=0.1577  <S**2>=0.000
     310 -> 314        0.65932
     312 -> 316       -0.23565

 Excited State   4:      Singlet-A      2.2196 eV  558.59 nm  f=0.1595  <S**2>=0.000
     309 -> 313        0.64873
     311 -> 315        0.26682

 Excited State   5:      Singlet-A      3.0637 eV  404.69 nm  f=0.0000  <S**2>=0.000
     312 -> 313        0.70711

 The electronic state is 1-A.
 Alpha  occ. eigenvalues --  -46.89023 -46.88237 -19.25641 -19.23868 -19.21022
 Alpha  occ. eigenvalues --  -19.19937 -19.19868 -19.18980 -19.18699 -19.18318
 Alpha  occ. eigenvalues --  -14.42385 -14.42273 -14.42244 -14.41885 -14.40103
 Alpha  occ. eigenvalues --  -14.39423 -14.39013 -14.38157 -10.40367 -10.38677
 Alpha  occ. eigenvalues --  -10.36180 -10.35678 -10.35493 -10.35078 -10.32000
 Alpha  occ. eigenvalues --  -10.31676 -10.31162 -10.31138 -10.30878 -10.30872
 Alpha  occ. eigenvalues --  -10.30870 -10.30703 -10.30681 -10.30665 -10.30650
 Alpha  occ. eigenvalues --  -10.30565 -10.30311 -10.29864 -10.29074 -10.28877
 Alpha  occ. eigenvalues --  -10.28868 -10.28846 -10.28581 -10.28569 -10.28555
 Alpha  occ. eigenvalues --  -10.28552 -10.28420 -10.28341 -10.28334 -10.28265
 Alpha  occ. eigenvalues --  -10.28217 -10.28147 -10.28104 -10.28001 -10.27770
 Alpha  occ. eigenvalues --  -10.27742 -10.27656 -10.27568 -10.27563 -10.27493
 Alpha  occ. eigenvalues --  -10.27415 -10.27387 -10.27314 -10.27118 -10.27048
 Alpha  occ. eigenvalues --  -10.26995 -10.26983 -10.26941 -10.26906 -10.26773
 Alpha  occ. eigenvalues --  -10.26599 -10.26585 -10.26507 -10.26339 -10.26316
 Alpha  occ. eigenvalues --  -10.26308 -10.25976 -10.25968 -10.25911 -10.25842
 Alpha  occ. eigenvalues --  -10.25791 -10.25464 -10.25382 -10.25218 -10.25099
 Alpha  occ. eigenvalues --  -10.24752  -3.17586  -3.16762  -1.92467  -1.92047
 Alpha  occ. eigenvalues --   -1.91891  -1.91662  -1.91214  -1.91068  -1.15603
 Alpha  occ. eigenvalues --   -1.15084  -1.12056  -1.11575  -1.08860  -1.07965
 Alpha  occ. eigenvalues --   -1.07644  -1.06638  -1.05269  -1.04443  -1.04288
 Alpha  occ. eigenvalues --   -1.03372  -1.03322  -1.02768  -1.02441  -1.01014
 Alpha  occ. eigenvalues --   -0.93333  -0.92068  -0.89951  -0.89338  -0.89175
 Alpha  occ. eigenvalues --   -0.89077  -0.88802  -0.88133  -0.87880  -0.87089
 Alpha  occ. eigenvalues --   -0.87029  -0.86453  -0.86081  -0.85970  -0.84855
 Alpha  occ. eigenvalues --   -0.84296  -0.84195  -0.83432  -0.82650  -0.82333
 Alpha  occ. eigenvalues --   -0.81968  -0.81959  -0.80994  -0.80721  -0.80512
 Alpha  occ. eigenvalues --   -0.80165  -0.78121  -0.77831  -0.77479  -0.77134
 Alpha  occ. eigenvalues --   -0.76915  -0.76833  -0.76516  -0.75896  -0.75527
 Alpha  occ. eigenvalues --   -0.75007  -0.73545  -0.72426  -0.72244  -0.71087
 Alpha  occ. eigenvalues --   -0.69813  -0.69430  -0.69008  -0.68443  -0.67732
 Alpha  occ. eigenvalues --   -0.67681  -0.67255  -0.66371  -0.66072  -0.65714
 Alpha  occ. eigenvalues --   -0.65371  -0.64952  -0.64761  -0.64696  -0.64437
 Alpha  occ. eigenvalues --   -0.63720  -0.63141  -0.61395  -0.60551  -0.60113
 Alpha  occ. eigenvalues --   -0.59766  -0.59616  -0.59086  -0.59077  -0.58981
 Alpha  occ. eigenvalues --   -0.58311  -0.58078  -0.57662  -0.57405  -0.56908
 Alpha  occ. eigenvalues --   -0.56249  -0.55850  -0.55848  -0.55650  -0.55431
 Alpha  occ. eigenvalues --   -0.55166  -0.54968  -0.54656  -0.54369  -0.53920
 Alpha  occ. eigenvalues --   -0.53700  -0.53610  -0.53343  -0.53226  -0.52863
 Alpha  occ. eigenvalues --   -0.52720  -0.52674  -0.52321  -0.52306  -0.52129
 Alpha  occ. eigenvalues --   -0.52066  -0.51971  -0.51735  -0.51606  -0.51140
 Alpha  occ. eigenvalues --   -0.50896  -0.50797  -0.50632  -0.50566  -0.50311
 Alpha  occ. eigenvalues --   -0.50218  -0.50062  -0.49887  -0.49677  -0.49664
 Alpha  occ. eigenvalues --   -0.49577  -0.49361  -0.49054  -0.48997  -0.48933
 Alpha  occ. eigenvalues --   -0.48668  -0.48537  -0.48362  -0.48226  -0.48123
 Alpha  occ. eigenvalues --   -0.48014  -0.47750  -0.47617  -0.47233  -0.47107
 Alpha  occ. eigenvalues --   -0.46907  -0.46741  -0.46626  -0.46481  -0.46251
 Alpha  occ. eigenvalues --   -0.46119  -0.46039  -0.45928  -0.45820  -0.45765
 Alpha  occ. eigenvalues --   -0.45641  -0.45513  -0.45326  -0.45241  -0.45171
 Alpha  occ. eigenvalues --   -0.45023  -0.44904  -0.44636  -0.44262  -0.44072
 Alpha  occ. eigenvalues --   -0.43989  -0.43961  -0.43683  -0.43636  -0.43400
 Alpha  occ. eigenvalues --   -0.43288  -0.43181  -0.43051  -0.42783  -0.42671
 Alpha  occ. eigenvalues --   -0.42668  -0.42519  -0.42454  -0.42430  -0.42357
 Alpha  occ. eigenvalues --   -0.42093  -0.41922  -0.41753  -0.41599  -0.41493
 Alpha  occ. eigenvalues --   -0.41413  -0.41128  -0.41092  -0.40880  -0.40608
 Alpha  occ. eigenvalues --   -0.40225  -0.40150  -0.39909  -0.39055  -0.38792
 Alpha  occ. eigenvalues --   -0.38509  -0.38385  -0.38241  -0.37835  -0.37827
 Alpha  occ. eigenvalues --   -0.37683  -0.37347  -0.37270  -0.36622  -0.36440
 Alpha  occ. eigenvalues --   -0.36115  -0.35667  -0.35430  -0.34716  -0.34313
 Alpha  occ. eigenvalues --   -0.33794  -0.33268  -0.33206  -0.31765  -0.31597
 Alpha  occ. eigenvalues --   -0.31140  -0.30877  -0.30810  -0.30599  -0.30034
 Alpha  occ. eigenvalues --   -0.29805  -0.29598  -0.28648  -0.24428  -0.23507
 Alpha  occ. eigenvalues --   -0.21660  -0.21311
 Alpha virt. eigenvalues --   -0.09343  -0.08906  -0.01849  -0.01305   0.00213
 Alpha virt. eigenvalues --    0.00609   0.01784   0.02390   0.02498   0.02616
 Alpha virt. eigenvalues --    0.04133   0.05007   0.05147   0.05338   0.05694

 Mulliken charges:
               1
     1  Mg   0.834265
     2  C    0.054441
     3  C   -0.069486
     4  C   -0.042640
     5  C   -0.089402
     6  N   -0.294802
     7  C   -0.091739
     8  C   -0.014638
     9  C   -0.026227
    10  C    0.046680
    11  C    0.078043
    12  C    0.043276
    13  C   -0.061173
    14  H    0.031856
    15  N   -0.389536
    16  C    0.137829
    17  C   -0.128907
    18  C   -0.023666
    19  C    0.152798
    20  C    0.116427
    21  C   -0.020006
    22  O   -0.248446
    23  C    0.085876
    24  N   -0.230542
    25  C   -0.019152
    26  C    0.006697
    27  C   -0.010734
    28  C    0.025311
    29  C    0.055039
    30  C    0.043150
    31  C   -0.008608
    32  N   -0.375664
    33  C    0.100471
    34  C   -0.182938
    35  C   -0.033744
    36  C    0.116716
    37  C    0.133512
    38  C    0.043073
    39  O   -0.120463
    40  C    0.002781
    41  C    0.187329
    42  O   -0.212249
    43  O   -0.363351
    44  C    0.179989
    45  H   -0.018604
    46  H   -0.075973
    47  H   -0.016213
    48  H    0.012640
    49  H    0.010840
    50  H    0.016015
    51  H    0.003190
    52  H    0.024005
    53  H    0.006986
    54  H    0.023788
    55  H    0.028347
    56  H    0.033081
    57  H    0.012518
    58  H    0.023908
    59  H    0.040141
    60  H    0.042586
    61  H    0.043391
    62  H    0.036479
    63  H    0.016283
    64  H    0.018823
    65  H    0.011191
    66  H    0.003366
    67  H    0.016377
    68  H    0.007507
    69  H    0.001220
    70  H    0.009127
    71  H    0.000916
    72  H    0.018436
    73  H    0.037281
    74  H    0.028798
    75  H    0.024971
    76  H    0.038890
    77  H    0.028872
    78  H    0.028200
    79  H    0.045176
    80  Mg   0.823053
    81  C    0.006429
    82  C   -0.075171
    83  C   -0.064057
    84  C   -0.084817
    85  N   -0.287775
    86  C   -0.049474
    87  C   -0.003265
    88  C   -0.105806
    89  C    0.045304
    90  C    0.081865
    91  C    0.057005
    92  C   -0.056545
    93  H    0.033383
    94  N   -0.398863
    95  C    0.148742
    96  C   -0.158254
    97  C   -0.054705
    98  C    0.106834
    99  C    0.107918
   100  C    0.035167
   101  O   -0.175850
   102  C    0.039522
   103  N   -0.264163
   104  C    0.020588
   105  C   -0.037475
   106  C    0.004157
   107  C    0.026921
   108  C    0.071301
   109  C    0.003267
   110  C    0.023096
   111  N   -0.363418
   112  C    0.130875
   113  C   -0.149197
   114  C    0.007045
   115  C    0.102498
   116  C    0.128408
   117  C    0.019659
   118  O   -0.185029
   119  C    0.009748
   120  C    0.206548
   121  O   -0.224789
   122  O   -0.347456
   123  C    0.165997
   124  H   -0.022148
   125  H   -0.007202
   126  H   -0.041546
   127  H    0.017793
   128  H    0.005497
   129  H    0.018271
   130  H    0.021357
   131  H    0.034510
   132  H    0.006330
   133  H    0.007289
   134  H    0.018419
   135  H    0.031222
   136  H    0.004034
   137  H    0.025183
   138  H    0.045396
   139  H    0.059604
   140  H    0.027310
   141  H    0.011654
   142  H    0.014062
   143  H    0.008378
   144  H    0.018926
   145  H    0.013845
   146  H    0.029143
   147  H    0.005408
   148  H    0.006368
   149  H    0.017076
   150  H    0.014992
   151  H    0.026895
   152  H    0.029747
   153  H    0.012628
   154  H    0.034352
   155  H    0.043365
   156  H    0.050329
   157  H    0.036868
   158  H    0.055424
 Sum of Mulliken charges =  -0.00000

 Dipole moment (field-independent basis, Debye):
    X=             -0.3550    Y=              5.4619    Z=              4.0393  Tot=              6.8025
 Quadrupole moment (field-independent basis, Debye-Ang):
   XX=           -314.9502   YY=           -571.7244   ZZ=           -490.2919
   XY=            -26.6980   XZ=            -18.3031   YZ=              2.3795

 Normal termination of Gaussian 16 at Wed Sep 15 18:25:44 2021.
