 Gaussian 16, Revision A.03,
 Gaussian 16:  ES64L-G16RevA.03 25-Dec-2016

 -----------------------------------
 #p cam-b3lyp/Def2SVP td=(nstates=5)
 -----------------------------------

 --------------------------------
 TDDFT excited states in gaussian
 --------------------------------
 Symbolic Z-matrix:
 Charge =  0 Multiplicity = 1

                         Standard orientation:
 ---------------------------------------------------------------------
 Center     Atomic      Atomic             Coordinates (Angstroms)
 Number     Number       Type             X           Y           Z
 ---------------------------------------------------------------------
      1         12           0       20.070302   -0.771341    0.380439
      2          6           0       19.291875    2.172644   -1.540292
      3          6           0       20.909656    1.323398    2.941961
      4          6           0       21.079283   -3.498970    2.051804
      5          6           0       19.643582   -2.609630   -2.446178
      6          7           0       20.038304    1.589727    0.666774
      7          6           0       19.636276    2.500282   -0.266873
      8          6           0       19.582733    3.819946    0.404662
      9          6           0       20.228766    3.596627    1.800061
     10          6           0       20.485340    2.066137    1.865213
     11          6           0       21.565496    4.389210    1.956330
     12          6           0       18.222083    4.466310    0.479472
     13          6           0       18.111818    5.912568    0.934577
     14          1           0       17.309333    6.814059    0.093589
     15          7           0       20.766105   -1.052612    2.252089
     16          6           0       21.152651   -0.026998    3.158446
     17          6           0       21.522263   -0.699333    4.418195
     18          6           0       21.646648   -2.050868    4.107093
     19          6           0       21.208326   -2.246064    2.713203
     20          6           0       21.863235    0.095356    5.661458
     21          6           0       22.062068   -3.234482    5.007318
     22          8           0       22.358635   -4.365967    4.580106
     23          6           0       22.072718   -2.993088    6.461609
     24          7           0       20.399700   -2.802074   -0.126447
     25          6           0       20.794771   -3.761087    0.685540
     26          6           0       20.913973   -5.146613   -0.006686
     27          6           0       20.217104   -4.858103   -1.338165
     28          6           0       20.035319   -3.358341   -1.289280
     29          6           0       22.409690   -5.576271   -0.181600
     30          6           0       18.917610   -5.585011   -1.601415
     31          6           0       18.719539   -6.153757   -3.017717
     32          7           0       19.486665   -0.326993   -1.542474
     33          6           0       19.349763   -1.213520   -2.588224
     34          6           0       18.850503   -0.529267   -3.818995
     35          6           0       18.864707    0.777782   -3.375487
     36          6           0       19.292355    0.878426   -2.046096
     37          6           0       18.339574   -1.139666   -5.084444
     38          6           0       18.583483    2.132743   -3.826561
     39          8           0       18.145186    2.482171   -4.916744
     40          6           0       18.842858    3.113298   -2.659905
     41          6           0       19.694099    4.152555   -3.180346
     42          8           0       20.925326    4.075327   -3.408904
     43          8           0       19.013997    5.330584   -3.244964
     44          6           0       19.756928    6.549529   -3.479331
     45          1           0       21.099963    1.973929    3.797843
     46          1           0       21.557565   -4.355871    2.530462
     47          1           0       19.762687   -3.239142   -3.330261
     48          1           0       20.244723    4.427750   -0.210748
     49          1           0       19.575845    3.908583    2.615402
     50          1           0       21.782438    5.042346    2.802171
     51          1           0       21.602206    5.020872    1.068914
     52          1           0       22.471646    3.799336    1.815749
     53          1           0       17.586428    3.963723    1.208674
     54          1           0       17.614522    4.239358   -0.396140
     55          1           0       19.096579    6.373868    0.992087
     56          1           0       17.483445    5.883061    1.824354
     57          1           0       22.770219   -0.233309    6.168435
     58          1           0       21.068516    0.115587    6.406916
     59          1           0       22.096455    1.145685    5.485036
     60          1           0       21.114940   -2.556223    6.744649
     61          1           0       22.874160   -2.262759    6.567437
     62          1           0       22.122552   -3.973521    6.933853
     63          1           0       20.352003   -5.843694    0.615838
     64          1           0       20.809587   -5.029486   -2.236429
     65          1           0       22.704375   -5.585715   -1.230550
     66          1           0       22.572978   -6.594437    0.171676
     67          1           0       22.988255   -4.826299    0.357971
     68          1           0       18.052562   -4.966815   -1.363477
     69          1           0       18.828123   -6.271405   -0.760043
     70          1           0       18.058103   -7.013890   -2.918581
     71          1           0       19.658711   -6.334932   -3.541343
     72          1           0       18.243688   -5.308838   -3.515044
     73          1           0       17.252503   -1.181551   -5.154953
     74          1           0       18.878148   -2.081626   -5.184128
     75          1           0       18.781659   -0.619313   -5.934996
     76          1           0       17.884927    3.611276   -2.510214
     77          1           0       20.840643    6.429726   -3.474813
     78          1           0       19.427794    7.336494   -2.801312
     79          1           0       19.534505    6.982070   -4.455150
     80         12           0      -20.498080   -0.519237   -0.219107
     81          6           0      -18.509362    2.382965   -0.031698
     82          6           0      -23.171321    1.299827    0.817948
     83          6           0      -22.333016   -3.359265   -0.303941
     84          6           0      -17.625150   -2.369477   -0.836705
     85          7           0      -20.785369    1.539446    0.416198
     86          6           0      -19.859733    2.580305    0.302287
     87          6           0      -20.543942    3.886114    0.574857
     88          6           0      -21.838548    3.440020    1.295112
     89          6           0      -21.946410    1.972889    0.805335
     90          6           0      -21.843841    3.473628    2.856083
     91          6           0      -20.820230    4.793326   -0.682754
     92          6           0      -20.432214    6.227220   -0.508980
     93          1           0      -21.446828    7.278393   -0.996402
     94          7           0      -22.453335   -0.914727    0.092854
     95          6           0      -23.461851    0.000745    0.436878
     96          6           0      -24.708714   -0.652241    0.490686
     97          6           0      -24.507201   -2.072037    0.150251
     98          6           0      -23.088632   -2.162770   -0.047169
     99          6           0      -25.997834   -0.044896    0.961459
    100          6           0      -25.495827   -3.316365    0.094075
    101          8           0      -25.100319   -4.408392   -0.238713
    102          6           0      -26.985245   -3.146415    0.357360
    103          7           0      -20.016697   -2.591304   -0.419784
    104          6           0      -20.971355   -3.557067   -0.399034
    105          6           0      -20.298681   -5.002648   -0.566859
    106          6           0      -18.820624   -4.652977   -1.041403
    107          6           0      -18.795404   -3.092415   -0.748811
    108          6           0      -20.301618   -5.914152    0.691421
    109          6           0      -18.529285   -4.990754   -2.546953
    110          6           0      -17.326190   -5.825503   -2.686419
    111          7           0      -18.472551   -0.117141   -0.353788
    112          6           0      -17.425943   -0.961554   -0.721151
    113          6           0      -16.202978   -0.211562   -0.813489
    114          6           0      -16.576086    1.085500   -0.525748
    115          6           0      -17.914040    1.116635   -0.288099
    116          6           0      -14.861443   -0.854064   -1.252838
    117          6           0      -16.088350    2.441652   -0.354016
    118          8           0      -14.939859    2.826676   -0.352858
    119          6           0      -17.358558    3.360772    0.006880
    120          6           0      -17.135601    3.989418    1.321778
    121          8           0      -16.926181    3.355320    2.389094
    122          8           0      -17.157385    5.343720    1.159879
    123          6           0      -16.577548    6.105964    2.297329
    124          1           0      -23.973435    1.937621    1.195056
    125          1           0      -22.845771   -4.322688   -0.335874
    126          1           0      -16.724443   -2.973515   -0.960442
    127          1           0      -20.041360    4.503316    1.320537
    128          1           0      -22.716146    4.021924    1.012965
    129          1           0      -21.251366    4.283864    3.283054
    130          1           0      -21.480804    2.502672    3.194044
    131          1           0      -22.826664    3.498578    3.326069
    132          1           0      -21.882966    4.669296   -0.889993
    133          1           0      -20.339195    4.396308   -1.577145
    134          1           0      -19.495125    6.256624   -1.065171
    135          1           0      -20.325849    6.450511    0.552508
    136          1           0      -26.732448    0.166288    0.184074
    137          1           0      -25.795791    0.941178    1.377771
    138          1           0      -26.567593   -0.569242    1.728151
    139          1           0      -27.436159   -4.107610    0.113673
    140          1           0      -27.388332   -2.275147   -0.159718
    141          1           0      -27.139803   -2.787447    1.375305
    142          1           0      -20.871553   -5.597375   -1.278536
    143          1           0      -18.119767   -5.172119   -0.385956
    144          1           0      -20.690423   -5.473375    1.609968
    145          1           0      -19.309264   -6.279053    0.957507
    146          1           0      -20.912051   -6.783149    0.444388
    147          1           0      -18.321594   -4.060164   -3.076439
    148          1           0      -19.324228   -5.539637   -3.051404
    149          1           0      -17.637561   -6.862228   -2.816969
    150          1           0      -16.545390   -5.762152   -1.929327
    151          1           0      -16.756486   -5.493723   -3.554509
    152          1           0      -15.069102   -1.809569   -1.735081
    153          1           0      -14.141116   -0.876881   -0.433810
    154          1           0      -14.494055   -0.189223   -2.033688
    155          1           0      -17.525744    4.129590   -0.747913
    156          1           0      -16.503432    7.163570    2.044737
    157          1           0      -15.543488    5.766800    2.362608
    158          1           0      -17.174984    5.860717    3.175855
 ---------------------------------------------------------------------

 SCF Done:  E(RCAM-B3LYP) =  -4069.84250413     A.U. after   18 cycles

 Excitation energies and oscillator strengths:

 Excited State   1:      Singlet-A      1.7437 eV  711.02 nm  f=0.4014  <S**2>=0.000
     310 -> 316        0.17820
     311 -> 313        0.68399
     310 <- 316        0.10685
 This state for optimization and/or second-order correction.
 Total Energy, E(TD-HF/TD-DFT) =  -4069.77842289
 Copying the excited state density for this state as the 1-particle RhoCI density.

 Excited State   2:      Singlet-A      1.7540 eV  706.87 nm  f=0.3728  <S**2>=0.000
     309 -> 315        0.19874
     312 -> 314        0.68062
     309 <- 315        0.11260

 Excited State   3:      Singlet-A      2.2018 eV  563.09 nm  f=0.1587  <S**2>=0.000
     310 -> 313        0.65400
     311 -> 316       -0.24979

 Excited State   4:      Singlet-A      2.3187 eV  534.71 nm  f=0.0718  <S**2>=0.000
     309 -> 314        0.61703
     312 -> 315       -0.33882

 Excited State   5:      Singlet-A      3.0021 eV  412.99 nm  f=0.0000  <S**2>=0.000
     312 -> 313        0.70710

 The electronic state is 1-A.
 Alpha  occ. eigenvalues --  -46.88485 -46.87190 -19.25673 -19.25147 -19.19896
 Alpha  occ. eigenvalues --  -19.19527 -19.19048 -19.19016 -19.18821 -19.18592
 Alpha  occ. eigenvalues --  -14.42072 -14.41891 -14.41512 -14.41087 -14.39750
 Alpha  occ. eigenvalues --  -14.39583 -14.39298 -14.38565 -10.39443 -10.39124
 Alpha  occ. eigenvalues --  -10.36351 -10.35234 -10.35049 -10.34434 -10.32193
 Alpha  occ. eigenvalues --  -10.31202 -10.31059 -10.30734 -10.30639 -10.30630
 Alpha  occ. eigenvalues --  -10.30629 -10.30591 -10.30544 -10.30459 -10.30447
 Alpha  occ. eigenvalues --  -10.30390 -10.30378 -10.30066 -10.29929 -10.29108
 Alpha  occ. eigenvalues --  -10.29019 -10.28950 -10.28677 -10.28582 -10.28386
 Alpha  occ. eigenvalues --  -10.28147 -10.28103 -10.28072 -10.27996 -10.27977
 Alpha  occ. eigenvalues --  -10.27935 -10.27911 -10.27874 -10.27776 -10.27768
 Alpha  occ. eigenvalues --  -10.27652 -10.27622 -10.27587 -10.27523 -10.27420
 Alpha  occ. eigenvalues --  -10.27311 -10.27228 -10.27206 -10.27064 -10.26960
 Alpha  occ. eigenvalues --  -10.26950 -10.26902 -10.26735 -10.26511 -10.26362
 Alpha  occ. eigenvalues --  -10.26266 -10.26199 -10.26132 -10.26097 -10.26080
 Alpha  occ. eigenvalues --  -10.25971 -10.25919 -10.25904 -10.25803 -10.25750
 Alpha  occ. eigenvalues --  -10.25721 -10.25680 -10.25347 -10.24665 -10.24589
 Alpha  occ. eigenvalues --  -10.24365  -3.17090  -3.15919  -1.91999  -1.91537
 Alpha  occ. eigenvalues --   -1.91403  -1.90823  -1.90363  -1.90243  -1.16095
 Alpha  occ. eigenvalues --   -1.15771  -1.11717  -1.10335  -1.09457  -1.09048
 Alpha  occ. eigenvalues --   -1.06348  -1.05941  -1.05751  -1.04952  -1.04563
 Alpha  occ. eigenvalues --   -1.03353  -1.03060  -1.02564  -1.02166  -1.01437
 Alpha  occ. eigenvalues --   -0.93147  -0.92591  -0.90077  -0.89299  -0.89218
 Alpha  occ. eigenvalues --   -0.88673  -0.88461  -0.88040  -0.87574  -0.87065
 Alpha  occ. eigenvalues --   -0.87039  -0.86608  -0.86425  -0.85837  -0.84657
 Alpha  occ. eigenvalues --   -0.84324  -0.84050  -0.83841  -0.82918  -0.82917
 Alpha  occ. eigenvalues --   -0.82590  -0.82120  -0.81226  -0.81204  -0.80862
 Alpha  occ. eigenvalues --   -0.80675  -0.78653  -0.78245  -0.77704  -0.77425
 Alpha  occ. eigenvalues --   -0.77334  -0.76787  -0.76558  -0.75746  -0.75230
 Alpha  occ. eigenvalues --   -0.74895  -0.72974  -0.72893  -0.71938  -0.70940
 Alpha  occ. eigenvalues --   -0.69528  -0.69246  -0.68620  -0.68127  -0.68067
 Alpha  occ. eigenvalues --   -0.67602  -0.66555  -0.66515  -0.66405  -0.65526
 Alpha  occ. eigenvalues --   -0.65393  -0.65190  -0.65092  -0.64582  -0.64542
 Alpha  occ. eigenvalues --   -0.64053  -0.62525  -0.61957  -0.60393  -0.60332
 Alpha  occ. eigenvalues --   -0.60128  -0.59888  -0.59472  -0.59260  -0.58760
 Alpha  occ. eigenvalues --   -0.58377  -0.58220  -0.57701  -0.57633  -0.57595
 Alpha  occ. eigenvalues --   -0.56450  -0.56170  -0.55733  -0.55693  -0.55519
 Alpha  occ. eigenvalues --   -0.55501  -0.55006  -0.54422  -0.54013  -0.53876
 Alpha  occ. eigenvalues --   -0.53853  -0.53568  -0.53472  -0.53446  -0.53151
 Alpha  occ. eigenvalues --   -0.52950  -0.52637  -0.52594  -0.51955  -0.51897
 Alpha  occ. eigenvalues --   -0.51863  -0.51834  -0.51670  -0.51566  -0.51193
 Alpha  occ. eigenvalues --   -0.51041  -0.50906  -0.50772  -0.50470  -0.50470
 Alpha  occ. eigenvalues --   -0.50276  -0.50119  -0.49913  -0.49814  -0.49635
 Alpha  occ. eigenvalues --   -0.49464  -0.49421  -0.49118  -0.49061  -0.48728
 Alpha  occ. eigenvalues --   -0.48624  -0.48364  -0.48326  -0.47962  -0.47942
 Alpha  occ. eigenvalues --   -0.47784  -0.47687  -0.47347  -0.47269  -0.47216
 Alpha  occ. eigenvalues --   -0.46988  -0.46797  -0.46657  -0.46523  -0.46469
 Alpha  occ. eigenvalues --   -0.46212  -0.46157  -0.46025  -0.45857  -0.45784
 Alpha  occ. eigenvalues --   -0.45555  -0.45416  -0.45123  -0.45094  -0.45037
 Alpha  occ. eigenvalues --   -0.44756  -0.44686  -0.44510  -0.44466  -0.44346
 Alpha  occ. eigenvalues --   -0.43944  -0.43843  -0.43690  -0.43410  -0.43402
 Alpha  occ. eigenvalues --   -0.43366  -0.43133  -0.42930  -0.42885  -0.42624
 Alpha  occ. eigenvalues --   -0.42481  -0.42416  -0.42290  -0.42025  -0.41951
 Alpha  occ. eigenvalues --   -0.41891  -0.41734  -0.41664  -0.41547  -0.41235
 Alpha  occ. eigenvalues --   -0.41218  -0.41050  -0.40959  -0.40852  -0.40492
 Alpha  occ. eigenvalues --   -0.40103  -0.40084  -0.39917  -0.39165  -0.38852
 Alpha  occ. eigenvalues --   -0.38797  -0.38365  -0.37894  -0.37857  -0.37840
 Alpha  occ. eigenvalues --   -0.37024  -0.36769  -0.36342  -0.36047  -0.36000
 Alpha  occ. eigenvalues --   -0.35985  -0.35625  -0.34256  -0.34153  -0.33796
 Alpha  occ. eigenvalues --   -0.33516  -0.33165  -0.32991  -0.31772  -0.31548
 Alpha  occ. eigenvalues --   -0.31282  -0.31030  -0.30869  -0.30572  -0.30522
 Alpha  occ. eigenvalues --   -0.30244  -0.29995  -0.29572  -0.24056  -0.23979
 Alpha  occ. eigenvalues --   -0.21538  -0.20894
 Alpha virt. eigenvalues --   -0.09022  -0.08131  -0.01775  -0.01279   0.00729
 Alpha virt. eigenvalues --    0.00766   0.02537   0.02783   0.03037   0.03439
 Alpha virt. eigenvalues --    0.04496   0.04575   0.05397   0.05539   0.06122

 Mulliken charges:
               1
     1  Mg   0.834433
     2  C    0.024666
     3  C   -0.055696
     4  C   -0.051639
     5  C   -0.106213
     6  N   -0.264129
     7  C   -0.113520
     8  C    0.060323
     9  C   -0.062128
    10  C    0.034795
    11  C    0.055117
    12  C    0.051931
    13  C   -0.062180
    14  H    0.017806
    15  N   -0.433202
    16  C    0.174987
    17  C   -0.115159
    18  C   -0.045485
    19  C    0.143486
    20  C    0.083571
    21  C    0.007293
    22  O   -0.223216
    23  C    0.070549
    24  N   -0.254225
    25  C   -0.037003
    26  C   -0.004001
    27  C   -0.057311
    28  C    0.011906
    29  C    0.079542
    30  C    0.047605
    31  C    0.022746
    32  N   -0.327810
    33  C    0.125500
    34  C   -0.201385
    35  C    0.044241
    36  C    0.113399
    37  C    0.151105
    38  C   -0.008635
    39  O   -0.172814
    40  C    0.036404
    41  C    0.195475
    42  O   -0.253697
    43  O   -0.318298
    44  C    0.171982
    45  H   -0.038320
    46  H    0.004182
    47  H   -0.019208
    48  H    0.008444
    49  H    0.010575
    50  H    0.018361
    51  H   -0.002287
    52  H    0.013784
    53  H   -0.010846
    54  H    0.002183
    55  H    0.034865
    56  H    0.034223
    57  H    0.018549
    58  H    0.030379
    59  H    0.016768
    60  H    0.031180
    61  H    0.040907
    62  H    0.035911
    63  H    0.017085
    64  H    0.006237
    65  H    0.011835
    66  H    0.025598
    67  H    0.033348
    68  H   -0.001991
    69  H   -0.015550
    70  H    0.028562
    71  H    0.017444
    72  H    0.021574
    73  H    0.054930
    74  H   -0.004408
    75  H    0.025625
    76  H    0.051008
    77  H    0.049971
    78  H    0.029574
    79  H    0.028395
    80  Mg   0.836450
    81  C   -0.017228
    82  C   -0.093343
    83  C   -0.052653
    84  C   -0.080151
    85  N   -0.248983
    86  C   -0.021775
    87  C   -0.040974
    88  C   -0.078620
    89  C    0.007153
    90  C    0.066223
    91  C    0.084145
    92  C   -0.064170
    93  H    0.014366
    94  N   -0.438727
    95  C    0.227553
    96  C   -0.127625
    97  C   -0.044669
    98  C    0.133363
    99  C    0.086864
   100  C    0.029706
   101  O   -0.182037
   102  C    0.052828
   103  N   -0.286404
   104  C    0.051516
   105  C   -0.061411
   106  C   -0.034515
   107  C    0.042325
   108  C    0.054083
   109  C    0.073730
   110  C   -0.018456
   111  N   -0.354995
   112  C    0.116767
   113  C   -0.202376
   114  C    0.059001
   115  C    0.084163
   116  C    0.134352
   117  C    0.027030
   118  O   -0.153461
   119  C    0.027142
   120  C    0.210828
   121  O   -0.254049
   122  O   -0.341515
   123  C    0.182450
   124  H   -0.036341
   125  H   -0.006348
   126  H   -0.029046
   127  H    0.004847
   128  H   -0.000617
   129  H    0.022961
   130  H    0.021865
   131  H    0.010888
   132  H    0.006694
   133  H    0.004995
   134  H    0.043011
   135  H    0.032293
   136  H    0.027983
   137  H   -0.000583
   138  H    0.023529
   139  H    0.045132
   140  H    0.025205
   141  H    0.027624
   142  H    0.011534
   143  H    0.015245
   144  H    0.022270
   145  H    0.008750
   146  H    0.015455
   147  H    0.011070
   148  H    0.012790
   149  H    0.016479
   150  H    0.008604
   151  H    0.004090
   152  H    0.011025
   153  H    0.043367
   154  H    0.026514
   155  H    0.026282
   156  H    0.041816
   157  H    0.046528
   158  H    0.050186
 Sum of Mulliken charges =  -0.00000

 Dipole moment (field-independent basis, Debye):
    X=             -5.1376    Y=              1.0142    Z=              4.2400  Tot=              6.7380
 Quadrupole moment (field-independent basis, Debye-Ang):
   XX=           -392.2765   YY=           -474.2806   ZZ=           -516.4431
   XY=            -35.5051   XZ=             76.6003   YZ=             41.1649

 Normal termination of Gaussian 16 at Wed Sep 15 23:20:23 2021.
