 Gaussian 16, Revision A.03,
 Gaussian 16:  ES64L-G16RevA.03 25-Dec-2016

 -----------------------------------
 #p cam-b3lyp/Def2SVP td=(nstates=5)
 -----------------------------------

 --------------------------------
 TDDFT excited states in gaussian
 --------------------------------
 Symbolic Z-matrix:
 Charge =  0 Multiplicity = 1

                         Standard orientation:
 ---------------------------------------------------------------------
 Center     Atomic      Atomic             Coordinates (Angstroms)
 Number     Number       Type             X           Y           Z
 ---------------------------------------------------------------------
      1         12           0      -22.379491    0.461391    0.429324
      2          6           0      -21.632273   -2.098579   -1.676315
      3          6           0      -22.625187   -1.593309    3.189924
      4          6           0      -23.311668    3.165047    2.312050
      5          6           0      -22.585457    2.643167   -2.449620
      6          7           0      -22.356340   -1.619631    0.657488
      7          6           0      -21.765597   -2.497054   -0.312582
      8          6           0      -21.414131   -3.795888    0.295072
      9          6           0      -22.132522   -3.682414    1.713960
     10          6           0      -22.413511   -2.209523    1.912018
     11          6           0      -23.491522   -4.540746    1.806566
     12          6           0      -19.895237   -4.147641    0.252568
     13          6           0      -19.576127   -5.548179   -0.161111
     14          1           0      -20.530709   -6.673573    0.402044
     15          7           0      -22.827394    0.757873    2.489433
     16          6           0      -22.873613   -0.249872    3.406319
     17          6           0      -23.189380    0.331941    4.665692
     18          6           0      -23.318164    1.764927    4.489094
     19          6           0      -23.077166    2.004942    3.026844
     20          6           0      -23.435528   -0.523082    5.927976
     21          6           0      -23.576630    2.893949    5.437171
     22          8           0      -23.775135    4.085975    5.176916
     23          6           0      -23.539543    2.506892    6.964010
     24          7           0      -22.996793    2.636751   -0.016889
     25          6           0      -23.221188    3.511316    0.931949
     26          6           0      -23.233246    4.946768    0.410442
     27          6           0      -22.998807    4.757646   -1.115556
     28          6           0      -22.865716    3.239782   -1.222263
     29          6           0      -24.598936    5.741311    0.733652
     30          6           0      -21.662291    5.519340   -1.526367
     31          6           0      -20.280887    5.040764   -1.015288
     32          7           0      -22.316885    0.292005   -1.667958
     33          6           0      -22.362080    1.256649   -2.656711
     34          6           0      -22.001051    0.576797   -3.917365
     35          6           0      -21.687060   -0.721580   -3.648723
     36          6           0      -21.904851   -0.841512   -2.228217
     37          6           0      -22.132456    1.195185   -5.266481
     38          6           0      -21.252234   -2.009949   -4.187738
     39          8           0      -20.989738   -2.356885   -5.327108
     40          6           0      -21.217338   -2.942908   -2.898658
     41          6           0      -22.215715   -4.011126   -3.107977
     42          8           0      -23.428373   -3.888254   -3.353604
     43          8           0      -21.489868   -5.177864   -2.978673
     44          6           0      -22.303458   -6.400595   -2.962904
     45          1           0      -22.660543   -2.200706    4.096553
     46          1           0      -23.495002    4.001779    2.990308
     47          1           0      -22.566199    3.301856   -3.319655
     48          1           0      -21.919612   -4.531297   -0.332120
     49          1           0      -21.426502   -4.017718    2.473094
     50          1           0      -23.604805   -5.267770    1.002386
     51          1           0      -24.302946   -3.838289    1.616700
     52          1           0      -23.483934   -4.913196    2.830090
     53          1           0      -19.456330   -3.997865    1.239032
     54          1           0      -19.510720   -3.448620   -0.490008
     55          1           0      -18.604781   -5.887541    0.196485
     56          1           0      -19.475256   -5.824739   -1.210697
     57          1           0      -22.544464   -0.921682    6.412835
     58          1           0      -24.118105   -1.288158    5.558417
     59          1           0      -23.851513    0.050656    6.755878
     60          1           0      -24.440748    1.944040    7.207297
     61          1           0      -23.299099    3.405448    7.531944
     62          1           0      -22.674131    1.904457    7.240880
     63          1           0      -22.383723    5.476939    0.840282
     64          1           0      -23.805828    5.151141   -1.733669
     65          1           0      -24.351193    6.446628    1.527718
     66          1           0      -25.357919    5.049722    1.100801
     67          1           0      -25.063247    6.353764   -0.038223
     68          1           0      -21.670129    6.594200   -1.346220
     69          1           0      -21.641641    5.330521   -2.600183
     70          1           0      -19.784149    4.733730   -1.935763
     71          1           0      -20.358420    4.245100   -0.275397
     72          1           0      -19.695065    5.820755   -0.529003
     73          1           0      -21.321962    0.724256   -5.821890
     74          1           0      -22.040142    2.281246   -5.246562
     75          1           0      -23.007444    0.751932   -5.740101
     76          1           0      -20.216024   -3.357522   -3.012095
     77          1           0      -21.540978   -7.179985   -2.973645
     78          1           0      -22.825667   -6.422052   -3.919433
     79          1           0      -23.069371   -6.450990   -2.188718
     80         12           0       21.830488    0.775777   -0.161983
     81          6           0       23.693126   -1.697832    1.639867
     82          6           0       19.981336   -1.915451   -1.496711
     83          6           0       20.521959    2.781129   -2.391440
     84          6           0       23.973987    3.155812    0.979644
     85          7           0       21.832514   -1.521807    0.111014
     86          6           0       22.620841   -2.202521    0.977308
     87          6           0       22.152651   -3.647585    1.026549
     88          6           0       20.940753   -3.792883    0.063556
     89          6           0       20.875331   -2.343477   -0.455213
     90          6           0       21.148262   -4.935017   -1.082966
     91          6           0       21.734165   -4.108913    2.488012
     92          6           0       22.298517   -5.445196    2.971541
     93          1           0       22.553368   -6.635458    1.962001
     94          7           0       20.467720    0.458512   -1.778131
     95          6           0       19.846799   -0.655229   -2.104325
     96          6           0       19.013603   -0.365466   -3.237140
     97          6           0       18.995495    1.031605   -3.478975
     98          6           0       20.029091    1.468647   -2.577417
     99          6           0       18.052096   -1.389393   -3.838172
    100          6           0       18.132753    1.952710   -4.327283
    101          8           0       18.346431    3.146203   -4.436528
    102          6           0       16.941552    1.317638   -4.990356
    103          7           0       22.455634    2.596566   -0.862558
    104          6           0       21.589801    3.327031   -1.678555
    105          6           0       21.889865    4.850662   -1.674979
    106          6           0       22.887261    4.906321   -0.457006
    107          6           0       23.132995    3.448614   -0.067867
    108          6           0       22.457002    5.299925   -3.029408
    109          6           0       22.286637    5.647942    0.829278
    110          6           0       22.779819    7.017713    1.155625
    111          7           0       23.391457    0.791237    1.117261
    112          6           0       24.197945    1.853968    1.462981
    113          6           0       25.328275    1.458742    2.299285
    114          6           0       25.173170    0.030848    2.409912
    115          6           0       24.078582   -0.324791    1.586943
    116          6           0       26.222781    2.414833    3.001914
    117          6           0       25.662924   -1.172534    3.064551
    118          8           0       26.599601   -1.255571    3.879760
    119          6           0       24.714187   -2.401085    2.556648
    120          6           0       25.616795   -3.304543    1.860798
    121          8           0       26.317052   -2.971619    0.929805
    122          8           0       25.563377   -4.540675    2.370791
    123          6           0       26.437221   -5.648932    1.872878
    124          1           0       19.329412   -2.700323   -1.885622
    125          1           0       19.880171    3.578480   -2.773673
    126          1           0       24.583101    3.965833    1.385551
    127          1           0       22.970162   -4.260115    0.646276
    128          1           0       20.050495   -4.152894    0.579523
    129          1           0       21.890205   -5.669413   -0.769316
    130          1           0       21.456044   -4.382942   -1.971367
    131          1           0       20.196698   -5.424743   -1.289191
    132          1           0       20.662352   -4.116091    2.681388
    133          1           0       22.114702   -3.388705    3.212199
    134          1           0       21.696539   -5.867748    3.776287
    135          1           0       23.229886   -5.148734    3.454008
    136          1           0       17.027908   -1.307835   -3.473803
    137          1           0       18.448103   -2.402890   -3.767365
    138          1           0       18.046961   -1.201085   -4.911533
    139          1           0       16.396207    0.599486   -4.377276
    140          1           0       17.160951    0.793201   -5.919323
    141          1           0       16.158706    2.068157   -5.100101
    142          1           0       20.947829    5.364731   -1.486143
    143          1           0       23.786868    5.426143   -0.786803
    144          1           0       22.389035    4.551277   -3.818595
    145          1           0       23.517747    5.538897   -2.961730
    146          1           0       21.936902    6.201804   -3.353884
    147          1           0       22.424860    5.115752    1.770414
    148          1           0       21.199232    5.709674    0.807275
    149          1           0       21.967342    7.738947    1.077062
    150          1           0       23.539794    7.190670    0.393411
    151          1           0       23.172145    7.050203    2.172008
    152          1           0       26.536934    2.026414    3.970102
    153          1           0       25.697230    3.369502    3.014699
    154          1           0       27.108978    2.527729    2.375911
    155          1           0       24.255087   -2.928827    3.391517
    156          1           0       27.472558   -5.308555    1.847065
    157          1           0       26.169153   -5.975285    0.867722
    158          1           0       26.314458   -6.583298    2.419895
 ---------------------------------------------------------------------

 SCF Done:  E(RCAM-B3LYP) =  -4069.80070734     A.U. after   19 cycles

 Excitation energies and oscillator strengths:

 Excited State   1:      Singlet-A      1.6834 eV  736.49 nm  f=0.3932  <S**2>=0.000
     310 -> 316       -0.17288
     312 -> 313        0.68678
     310 <- 316       -0.10712
 This state for optimization and/or second-order correction.
 Total Energy, E(TD-HF/TD-DFT) =  -4069.73884195
 Copying the excited state density for this state as the 1-particle RhoCI density.

 Excited State   2:      Singlet-A      1.6991 eV  729.70 nm  f=0.3924  <S**2>=0.000
     309 -> 315       -0.18621
     311 -> 314        0.68386
     309 <- 315       -0.10900

 Excited State   3:      Singlet-A      2.1994 eV  563.73 nm  f=0.1320  <S**2>=0.000
     310 -> 313        0.65025
     312 -> 316        0.26299

 Excited State   4:      Singlet-A      2.2666 eV  547.00 nm  f=0.0454  <S**2>=0.000
     309 -> 314        0.60927
     311 -> 315        0.34929

 Excited State   5:      Singlet-A      3.1284 eV  396.32 nm  f=0.0000  <S**2>=0.000
     311 -> 313        0.70710

 The electronic state is 1-A.
 Alpha  occ. eigenvalues --  -46.89297 -46.88637 -19.25698 -19.25279 -19.20302
 Alpha  occ. eigenvalues --  -19.19600 -19.19546 -19.19544 -19.19029 -19.18534
 Alpha  occ. eigenvalues --  -14.42338 -14.42238 -14.41896 -14.41730 -14.39548
 Alpha  occ. eigenvalues --  -14.39528 -14.39391 -14.39104 -10.39566 -10.38518
 Alpha  occ. eigenvalues --  -10.35804 -10.35751 -10.35477 -10.35454 -10.32556
 Alpha  occ. eigenvalues --  -10.32027 -10.31878 -10.31820 -10.31349 -10.30916
 Alpha  occ. eigenvalues --  -10.30760 -10.30535 -10.30381 -10.30286 -10.30222
 Alpha  occ. eigenvalues --  -10.29941 -10.29666 -10.29635 -10.29601 -10.29282
 Alpha  occ. eigenvalues --  -10.29196 -10.29134 -10.29042 -10.28864 -10.28766
 Alpha  occ. eigenvalues --  -10.28582 -10.28381 -10.28379 -10.28225 -10.28198
 Alpha  occ. eigenvalues --  -10.28177 -10.28036 -10.27951 -10.27934 -10.27886
 Alpha  occ. eigenvalues --  -10.27814 -10.27801 -10.27744 -10.27634 -10.27630
 Alpha  occ. eigenvalues --  -10.27606 -10.27539 -10.27460 -10.27424 -10.27396
 Alpha  occ. eigenvalues --  -10.27104 -10.27025 -10.26677 -10.26634 -10.26588
 Alpha  occ. eigenvalues --  -10.26536 -10.26444 -10.26273 -10.26243 -10.26083
 Alpha  occ. eigenvalues --  -10.26075 -10.25893 -10.25885 -10.25824 -10.25615
 Alpha  occ. eigenvalues --  -10.25594 -10.25585 -10.25537 -10.25479 -10.25038
 Alpha  occ. eigenvalues --  -10.24777  -3.17701  -3.17265  -1.92604  -1.92146
 Alpha  occ. eigenvalues --   -1.92131  -1.92002  -1.91726  -1.91576  -1.16577
 Alpha  occ. eigenvalues --   -1.16009  -1.10862  -1.10244  -1.09651  -1.08455
 Alpha  occ. eigenvalues --   -1.07518  -1.07385  -1.05173  -1.04666  -1.03824
 Alpha  occ. eigenvalues --   -1.03527  -1.03162  -1.02939  -1.01902  -1.01760
 Alpha  occ. eigenvalues --   -0.92423  -0.92180  -0.89147  -0.88841  -0.88653
 Alpha  occ. eigenvalues --   -0.88281  -0.88115  -0.88053  -0.87324  -0.87125
 Alpha  occ. eigenvalues --   -0.87039  -0.86956  -0.86424  -0.86295  -0.84696
 Alpha  occ. eigenvalues --   -0.84245  -0.84141  -0.83420  -0.82682  -0.82465
 Alpha  occ. eigenvalues --   -0.81851  -0.81585  -0.81304  -0.81255  -0.80714
 Alpha  occ. eigenvalues --   -0.80012  -0.78282  -0.78131  -0.77692  -0.77405
 Alpha  occ. eigenvalues --   -0.77249  -0.76884  -0.76296  -0.75851  -0.75023
 Alpha  occ. eigenvalues --   -0.74859  -0.72514  -0.72503  -0.72225  -0.71433
 Alpha  occ. eigenvalues --   -0.69915  -0.69310  -0.68768  -0.68399  -0.67818
 Alpha  occ. eigenvalues --   -0.67668  -0.67480  -0.66993  -0.65574  -0.65281
 Alpha  occ. eigenvalues --   -0.65180  -0.65048  -0.64752  -0.64641  -0.64518
 Alpha  occ. eigenvalues --   -0.64438  -0.62584  -0.62441  -0.60519  -0.60347
 Alpha  occ. eigenvalues --   -0.59466  -0.59247  -0.58964  -0.58835  -0.58824
 Alpha  occ. eigenvalues --   -0.58508  -0.58060  -0.58021  -0.57531  -0.57490
 Alpha  occ. eigenvalues --   -0.56101  -0.55971  -0.55775  -0.55585  -0.55181
 Alpha  occ. eigenvalues --   -0.55113  -0.54925  -0.54468  -0.54384  -0.53589
 Alpha  occ. eigenvalues --   -0.53519  -0.53335  -0.53239  -0.53200  -0.53008
 Alpha  occ. eigenvalues --   -0.52933  -0.52637  -0.52442  -0.52379  -0.52333
 Alpha  occ. eigenvalues --   -0.52175  -0.52112  -0.51990  -0.51549  -0.51304
 Alpha  occ. eigenvalues --   -0.51208  -0.51102  -0.50937  -0.50606  -0.50545
 Alpha  occ. eigenvalues --   -0.50089  -0.49990  -0.49903  -0.49700  -0.49381
 Alpha  occ. eigenvalues --   -0.49281  -0.49045  -0.48965  -0.48773  -0.48630
 Alpha  occ. eigenvalues --   -0.48585  -0.48566  -0.48522  -0.48416  -0.48166
 Alpha  occ. eigenvalues --   -0.48162  -0.47743  -0.47736  -0.47448  -0.47429
 Alpha  occ. eigenvalues --   -0.47285  -0.46892  -0.46791  -0.46761  -0.46621
 Alpha  occ. eigenvalues --   -0.46211  -0.46185  -0.46136  -0.45922  -0.45908
 Alpha  occ. eigenvalues --   -0.45663  -0.45323  -0.45234  -0.45118  -0.44819
 Alpha  occ. eigenvalues --   -0.44580  -0.44528  -0.44254  -0.43956  -0.43841
 Alpha  occ. eigenvalues --   -0.43611  -0.43509  -0.43316  -0.43265  -0.43036
 Alpha  occ. eigenvalues --   -0.43034  -0.42954  -0.42815  -0.42776  -0.42627
 Alpha  occ. eigenvalues --   -0.42490  -0.42353  -0.42184  -0.42150  -0.41983
 Alpha  occ. eigenvalues --   -0.41860  -0.41734  -0.41584  -0.41533  -0.41432
 Alpha  occ. eigenvalues --   -0.41307  -0.41027  -0.40790  -0.40586  -0.40568
 Alpha  occ. eigenvalues --   -0.40309  -0.39838  -0.39737  -0.39563  -0.39343
 Alpha  occ. eigenvalues --   -0.38410  -0.37938  -0.37916  -0.37540  -0.37191
 Alpha  occ. eigenvalues --   -0.36991  -0.36769  -0.36569  -0.36442  -0.36307
 Alpha  occ. eigenvalues --   -0.36239  -0.36167  -0.34713  -0.34472  -0.34254
 Alpha  occ. eigenvalues --   -0.33779  -0.33524  -0.33028  -0.31712  -0.31265
 Alpha  occ. eigenvalues --   -0.31256  -0.31156  -0.31028  -0.30757  -0.30424
 Alpha  occ. eigenvalues --   -0.30104  -0.29927  -0.29411  -0.24456  -0.23850
 Alpha  occ. eigenvalues --   -0.21001  -0.20978
 Alpha virt. eigenvalues --   -0.08736  -0.08531  -0.02401  -0.01135  -0.00287
 Alpha virt. eigenvalues --    0.00099   0.01761   0.01904   0.02059   0.02127
 Alpha virt. eigenvalues --    0.04688   0.04748   0.04892   0.05395   0.05504

 Mulliken charges:
               1
     1  Mg   0.798405
     2  C    0.018704
     3  C   -0.098331
     4  C   -0.026581
     5  C   -0.072697
     6  N   -0.371565
     7  C   -0.042084
     8  C   -0.004786
     9  C   -0.083342
    10  C    0.109744
    11  C    0.079491
    12  C    0.115798
    13  C   -0.087214
    14  H   -0.012859
    15  N   -0.377595
    16  C    0.154391
    17  C   -0.133043
    18  C   -0.038244
    19  C    0.104472
    20  C    0.104471
    21  C    0.019113
    22  O   -0.205618
    23  C    0.005658
    24  N   -0.193004
    25  C   -0.005881
    26  C   -0.021530
    27  C    0.004549
    28  C    0.005387
    29  C    0.043639
    30  C   -0.019996
    31  C   -0.000259
    32  N   -0.317273
    33  C    0.124325
    34  C   -0.222853
    35  C    0.035500
    36  C    0.083059
    37  C    0.127724
    38  C    0.060045
    39  O   -0.156791
    40  C   -0.043871
    41  C    0.209648
    42  O   -0.230273
    43  O   -0.341678
    44  C    0.182867
    45  H   -0.025413
    46  H   -0.002689
    47  H   -0.021270
    48  H    0.011630
    49  H    0.000536
    50  H    0.022072
    51  H    0.023918
    52  H    0.028387
    53  H    0.014394
    54  H    0.017206
    55  H    0.020315
    56  H    0.040251
    57  H    0.031519
    58  H    0.040620
    59  H   -0.006167
    60  H    0.059113
    61  H    0.025855
    62  H    0.020775
    63  H    0.023720
    64  H    0.011295
    65  H    0.021400
    66  H    0.027460
    67  H    0.019055
    68  H    0.016342
    69  H   -0.003144
    70  H    0.022463
    71  H    0.020488
    72  H    0.015711
    73  H    0.023466
    74  H    0.018839
    75  H    0.042611
    76  H    0.039216
    77  H    0.040889
    78  H    0.037749
    79  H    0.041766
    80  Mg   0.829318
    81  C   -0.027422
    82  C   -0.081372
    83  C   -0.048332
    84  C   -0.097998
    85  N   -0.248706
    86  C   -0.030274
    87  C    0.007215
    88  C   -0.059272
    89  C    0.026561
    90  C    0.039533
    91  C    0.031807
    92  C   -0.059010
    93  H    0.004051
    94  N   -0.302844
    95  C    0.146130
    96  C   -0.169008
    97  C   -0.020033
    98  C    0.093317
    99  C    0.099921
   100  C    0.033795
   101  O   -0.186977
   102  C    0.024097
   103  N   -0.332250
   104  C   -0.001084
   105  C   -0.024814
   106  C   -0.002646
   107  C    0.080360
   108  C    0.078529
   109  C   -0.015182
   110  C    0.023913
   111  N   -0.395369
   112  C    0.148614
   113  C   -0.178798
   114  C    0.024793
   115  C    0.119077
   116  C    0.137496
   117  C    0.044586
   118  O   -0.191608
   119  C    0.008857
   120  C    0.183311
   121  O   -0.215295
   122  O   -0.324733
   123  C    0.186190
   124  H   -0.034548
   125  H   -0.001834
   126  H   -0.023790
   127  H    0.020294
   128  H    0.020884
   129  H    0.027654
   130  H    0.024009
   131  H    0.016027
   132  H    0.005659
   133  H    0.004818
   134  H    0.020152
   135  H    0.033004
   136  H    0.044393
   137  H    0.015527
   138  H    0.008545
   139  H    0.015392
   140  H    0.052160
   141  H    0.023553
   142  H    0.017642
   143  H    0.012720
   144  H    0.031342
   145  H    0.004867
   146  H    0.019363
   147  H    0.006154
   148  H   -0.004180
   149  H    0.014270
   150  H    0.005132
   151  H    0.017082
   152  H    0.042125
   153  H    0.016891
   154  H    0.031374
   155  H    0.029672
   156  H    0.052791
   157  H    0.029866
   158  H    0.042547
 Sum of Mulliken charges =  -0.00000

 Dipole moment (field-independent basis, Debye):
    X=             -2.4827    Y=             -2.3412    Z=              3.8877  Tot=              5.1730
 Quadrupole moment (field-independent basis, Debye-Ang):
   XX=           -828.7253   YY=           -460.2234   ZZ=           -537.2155
   XY=              3.9396   XZ=            -86.1896   YZ=            -19.7088

 Normal termination of Gaussian 16 at Tue Sep 14 16:06:54 2021.
