 Gaussian 16, Revision A.03,
 Gaussian 16:  ES64L-G16RevA.03 25-Dec-2016

 ----------------------------------------------------------
 #p cam-b3lyp/Def2SVP td=(nstates=5) density=(transition=1)
 ----------------------------------------------------------

 --------------------------------
 TDDFT excited states in gaussian
 --------------------------------
 Symbolic Z-matrix:
 Charge =  0 Multiplicity = 1

                         Standard orientation:
 ---------------------------------------------------------------------
 Center     Atomic      Atomic             Coordinates (Angstroms)
 Number     Number       Type             X           Y           Z
 ---------------------------------------------------------------------
      1         12           0      -31.860285    0.134268    0.285583
      2          6           0      -29.617411   -1.518267   -1.803956
      3          6           0      -32.657955    2.264030   -2.295634
      4          6           0      -33.781111    1.795810    2.510904
      5          6           0      -30.657305   -1.877472    2.982887
      6          7           0      -31.114843    0.381936   -1.742833
      7          6           0      -30.228264   -0.405930   -2.409671
      8          6           0      -30.119338   -0.001598   -3.885590
      9          6           0      -31.017719    1.312908   -3.921929
     10          6           0      -31.656282    1.300782   -2.529100
     11          6           0      -30.185971    2.569660   -4.148060
     12          6           0      -30.727835   -1.012819   -4.921355
     13          6           0      -30.133724   -1.027057   -6.305823
     14          1           0      -29.286025    0.083487   -6.740365
     15          7           0      -33.097377    1.713763    0.100878
     16          6           0      -33.282337    2.473484   -1.071552
     17          6           0      -34.363963    3.382167   -0.795106
     18          6           0      -34.759173    3.251825    0.560291
     19          6           0      -33.864047    2.216056    1.132325
     20          6           0      -34.804891    4.462331   -1.759587
     21          6           0      -35.828584    3.908911    1.327808
     22          8           0      -35.920804    3.840034    2.534918
     23          6           0      -36.832447    4.887127    0.616568
     24          7           0      -32.339735   -0.101174    2.463064
     25          6           0      -33.122514    0.717712    3.099765
     26          6           0      -33.188570    0.377625    4.619146
     27          6           0      -32.271734   -0.821349    4.779905
     28          6           0      -31.642072   -0.958744    3.347051
     29          6           0      -32.862584    1.675901    5.497457
     30          6           0      -33.003099   -2.079281    5.294299
     31          6           0      -32.947703   -2.361643    6.842232
     32          7           0      -30.686883   -1.496910    0.538964
     33          6           0      -30.277297   -2.217828    1.688096
     34          6           0      -29.396750   -3.269141    1.346497
     35          6           0      -29.057492   -2.950314   -0.036771
     36          6           0      -29.917099   -1.887007   -0.435387
     37          6           0      -28.680289   -4.185225    2.321741
     38          6           0      -28.177973   -3.369711   -1.064755
     39          8           0      -27.352522   -4.272357   -1.124177
     40          6           0      -28.607072   -2.433162   -2.376131
     41          6           0      -27.324414   -1.817507   -2.852917
     42          8           0      -26.595744   -1.096459   -2.163294
     43          8           0      -26.953094   -2.260806   -4.156937
     44          6           0      -25.675917   -1.697520   -4.696185
     45          1           0      -32.860432    2.903894   -3.157884
     46          1           0      -34.274253    2.492161    3.191815
     47          1           0      -30.293196   -2.553330    3.759022
     48          1           0      -29.066275    0.218802   -4.061878
     49          1           0      -31.761727    1.296829   -4.718247
     50          1           0      -29.185361    2.322425   -4.501647
     51          1           0      -30.166863    3.225474   -3.277207
     52          1           0      -30.513721    3.167160   -4.998782
     53          1           0      -31.797326   -0.814170   -4.981457
     54          1           0      -30.689588   -1.995638   -4.451053
     55          1           0      -30.967256   -0.985898   -7.006641
     56          1           0      -29.552619   -1.940393   -6.433493
     57          1           0      -34.588844    5.469718   -1.403944
     58          1           0      -35.869033    4.324098   -1.955411
     59          1           0      -34.322923    4.458812   -2.737102
     60          1           0      -36.311669    5.842149    0.542419
     61          1           0      -37.673040    5.105553    1.275339
     62          1           0      -37.070285    4.538574   -0.387704
     63          1           0      -34.238397    0.122223    4.764348
     64          1           0      -31.401667   -0.586434    5.391077
     65          1           0      -32.027219    1.483625    6.170587
     66          1           0      -33.662746    1.948413    6.185911
     67          1           0      -32.593024    2.437557    4.764643
     68          1           0      -32.544811   -2.923682    4.778256
     69          1           0      -34.034069   -2.001462    4.948802
     70          1           0      -32.027614   -2.911398    7.043609
     71          1           0      -33.799451   -2.844173    7.321978
     72          1           0      -32.779073   -1.353009    7.217976
     73          1           0      -29.411826   -4.972200    2.503232
     74          1           0      -28.458387   -3.674679    3.258119
     75          1           0      -27.663771   -4.478021    2.055818
     76          1           0      -29.086622   -3.070954   -3.119695
     77          1           0      -24.819182   -1.997015   -4.093597
     78          1           0      -25.597557   -0.617390   -4.822634
     79          1           0      -25.640822   -2.237314   -5.642487
     80         12           0       31.739791    0.573685   -0.417754
     81          6           0       29.571822   -2.212625    0.200947
     82          6           0       29.024213    2.664251    0.462154
     83          6           0       33.892241    3.141292   -0.231621
     84          6           0       34.385766   -1.636731   -0.579781
     85          7           0       29.520514    0.281169    0.252307
     86          6           0       28.963317   -0.952940    0.438550
     87          6           0       27.634141   -0.808310    1.162582
     88          6           0       27.415456    0.747503    0.945769
     89          6           0       28.711021    1.332583    0.529585
     90          6           0       26.298663    1.181116   -0.062199
     91          6           0       27.748755   -1.374464    2.614296
     92          6           0       26.603743   -2.304633    3.190934
     93          1           0       25.804647   -1.853631    4.426819
     94          7           0       31.512252    2.573727   -0.152450
     95          6           0       30.323475    3.272227    0.186498
     96          6           0       30.575615    4.699670    0.257103
     97          6           0       32.011093    4.821008    0.059006
     98          6           0       32.510024    3.471392   -0.127382
     99          6           0       29.520909    5.656130    0.629854
    100          6           0       32.738032    6.176976    0.042739
    101          8           0       32.034254    7.192649    0.316548
    102          6           0       34.232918    6.388798   -0.277785
    103          7           0       33.903579    0.788773   -0.136496
    104          6           0       34.545947    1.933581   -0.267272
    105          6           0       36.014674    1.663278   -0.207166
    106          6           0       36.124474    0.124846   -0.381217
    107          6           0       34.694933   -0.309777   -0.276832
    108          6           0       37.005024    2.441326   -1.175223
    109          6           0       37.078067   -0.624131    0.685847
    110          6           0       38.356600   -1.327436    0.168004
    111          7           0       31.958961   -1.453636   -0.433958
    112          6           0       33.068516   -2.208199   -0.505433
    113          6           0       32.761644   -3.590962   -0.464449
    114          6           0       31.384634   -3.627215   -0.232957
    115          6           0       30.927366   -2.286351   -0.175943
    116          6           0       33.622443   -4.779987   -0.617731
    117          6           0       30.328258   -4.564009   -0.003709
    118          8           0       30.396639   -5.769158    0.088411
    119          6           0       29.022648   -3.608024    0.354585
    120          6           0       27.939465   -3.864275   -0.602130
    121          8           0       28.075297   -3.990818   -1.825672
    122          8           0       26.769856   -3.901843    0.126653
    123          6           0       25.542557   -4.151867   -0.627354
    124          1           0       28.225637    3.361554    0.719999
    125          1           0       34.643170    3.918396   -0.076822
    126          1           0       35.145186   -2.372671   -0.852724
    127          1           0       26.890329   -1.298546    0.533954
    128          1           0       27.267185    1.021686    1.990910
    129          1           0       26.770546    1.811510   -0.817235
    130          1           0       25.502814    1.778199    0.382466
    131          1           0       25.841038    0.373754   -0.634720
    132          1           0       27.773654   -0.435021    3.166051
    133          1           0       28.681736   -1.883534    2.855101
    134          1           0       27.096736   -3.256380    3.388168
    135          1           0       25.949281   -2.583694    2.365717
    136          1           0       29.092117    5.289200    1.562674
    137          1           0       28.713757    5.623093   -0.101640
    138          1           0       29.777919    6.715416    0.655295
    139          1           0       34.813102    6.012675    0.565004
    140          1           0       34.279741    7.409286   -0.656510
    141          1           0       34.384673    5.741225   -1.141994
    142          1           0       36.344988    1.968844    0.784847
    143          1           0       36.368009    0.039692   -1.440321
    144          1           0       37.943871    2.481771   -0.622359
    145          1           0       36.581131    3.423015   -1.386077
    146          1           0       37.116420    1.821042   -2.064741
    147          1           0       36.408854   -1.336087    1.168652
    148          1           0       37.297138    0.087683    1.481623
    149          1           0       38.457224   -2.346726    0.538470
    150          1           0       39.222521   -0.736958    0.468537
    151          1           0       38.439255   -1.341323   -0.918930
    152          1           0       33.042289   -5.670346   -0.858103
    153          1           0       34.025842   -4.795436    0.394923
    154          1           0       34.503816   -4.485014   -1.187041
    155          1           0       28.750099   -3.688211    1.406301
    156          1           0       25.630851   -5.034419   -1.261328
    157          1           0       25.292054   -3.274232   -1.225082
    158          1           0       24.733497   -4.341276    0.078126
 ---------------------------------------------------------------------

 SCF Done:  E(RCAM-B3LYP) =  -4069.82234711     A.U. after   19 cycles

 Excitation energies and oscillator strengths:

 Excited State   1:      Singlet-A      1.6989 eV  729.78 nm  f=0.3877  <S**2>=0.000
     310 -> 315       -0.18530
     312 -> 314        0.68537
     310 <- 315       -0.11148
 This state for optimization and/or second-order correction.
 Total Energy, E(TD-HF/TD-DFT) =  -4069.75991248
 Copying the excited state density for this state as the 1-particle RhoCI density.

 Excited State   2:      Singlet-A      1.7265 eV  718.14 nm  f=0.3758  <S**2>=0.000
     309 -> 316        0.17541
     311 -> 313        0.68643
     309 <- 316        0.10553

 Excited State   3:      Singlet-A      2.2226 eV  557.83 nm  f=0.1465  <S**2>=0.000
     309 -> 313        0.65064
     311 -> 316       -0.26125

 Excited State   4:      Singlet-A      2.2522 eV  550.50 nm  f=0.1327  <S**2>=0.000
     310 -> 314        0.64093
     312 -> 315        0.28918

 Excited State   5:      Singlet-A      3.1840 eV  389.40 nm  f=0.0000  <S**2>=0.000
     312 -> 313        0.70711

 The electronic state is 1-A.
 Alpha  occ. eigenvalues --  -46.88904 -46.87991 -19.26272 -19.24155 -19.20557
 Alpha  occ. eigenvalues --  -19.19738 -19.19456 -19.19276 -19.18225 -19.18130
 Alpha  occ. eigenvalues --  -14.42691 -14.41931 -14.41655 -14.41398 -14.40174
 Alpha  occ. eigenvalues --  -14.39930 -14.39823 -14.39357 -10.40094 -10.39070
 Alpha  occ. eigenvalues --  -10.35476 -10.35445 -10.35243 -10.34343 -10.32449
 Alpha  occ. eigenvalues --  -10.31703 -10.31614 -10.31193 -10.31188 -10.31162
 Alpha  occ. eigenvalues --  -10.30857 -10.30815 -10.30772 -10.30697 -10.30634
 Alpha  occ. eigenvalues --  -10.30397 -10.30325 -10.30307 -10.29754 -10.29704
 Alpha  occ. eigenvalues --  -10.29079 -10.28944 -10.28904 -10.28873 -10.28729
 Alpha  occ. eigenvalues --  -10.28559 -10.28492 -10.28109 -10.28099 -10.28053
 Alpha  occ. eigenvalues --  -10.27940 -10.27852 -10.27776 -10.27775 -10.27774
 Alpha  occ. eigenvalues --  -10.27763 -10.27622 -10.27619 -10.27590 -10.27516
 Alpha  occ. eigenvalues --  -10.27508 -10.27485 -10.27481 -10.27468 -10.27451
 Alpha  occ. eigenvalues --  -10.27230 -10.27195 -10.26994 -10.26885 -10.26815
 Alpha  occ. eigenvalues --  -10.26784 -10.26674 -10.26433 -10.26402 -10.26370
 Alpha  occ. eigenvalues --  -10.26351 -10.26333 -10.26232 -10.26073 -10.25999
 Alpha  occ. eigenvalues --  -10.25866 -10.25858 -10.25808 -10.25045 -10.24559
 Alpha  occ. eigenvalues --  -10.24537  -3.17458  -3.16687  -1.92348  -1.91902
 Alpha  occ. eigenvalues --   -1.91775  -1.91599  -1.91135  -1.91006  -1.16542
 Alpha  occ. eigenvalues --   -1.13451  -1.11132  -1.10819  -1.08631  -1.08167
 Alpha  occ. eigenvalues --   -1.07240  -1.05830  -1.05450  -1.05202  -1.04723
 Alpha  occ. eigenvalues --   -1.03959  -1.03740  -1.03387  -1.02431  -1.02337
 Alpha  occ. eigenvalues --   -0.93179  -0.92111  -0.89324  -0.89302  -0.88985
 Alpha  occ. eigenvalues --   -0.88418  -0.88282  -0.88130  -0.87970  -0.87776
 Alpha  occ. eigenvalues --   -0.87496  -0.87472  -0.86276  -0.86004  -0.84633
 Alpha  occ. eigenvalues --   -0.84341  -0.83857  -0.82998  -0.82726  -0.82214
 Alpha  occ. eigenvalues --   -0.82015  -0.81505  -0.81364  -0.80483  -0.80402
 Alpha  occ. eigenvalues --   -0.80038  -0.78800  -0.78220  -0.77645  -0.77281
 Alpha  occ. eigenvalues --   -0.76876  -0.76875  -0.76297  -0.75874  -0.75343
 Alpha  occ. eigenvalues --   -0.75072  -0.73194  -0.73133  -0.72212  -0.71629
 Alpha  occ. eigenvalues --   -0.69811  -0.69577  -0.69385  -0.68986  -0.68481
 Alpha  occ. eigenvalues --   -0.67996  -0.67301  -0.66748  -0.66153  -0.65799
 Alpha  occ. eigenvalues --   -0.65633  -0.65264  -0.65116  -0.64964  -0.64763
 Alpha  occ. eigenvalues --   -0.64622  -0.62957  -0.61407  -0.60361  -0.60142
 Alpha  occ. eigenvalues --   -0.59901  -0.59653  -0.59544  -0.59331  -0.58915
 Alpha  occ. eigenvalues --   -0.58544  -0.58429  -0.57793  -0.57592  -0.57365
 Alpha  occ. eigenvalues --   -0.56273  -0.56237  -0.55982  -0.55647  -0.54986
 Alpha  occ. eigenvalues --   -0.54859  -0.54640  -0.54502  -0.54016  -0.53692
 Alpha  occ. eigenvalues --   -0.53406  -0.53290  -0.53247  -0.52935  -0.52916
 Alpha  occ. eigenvalues --   -0.52632  -0.52503  -0.52383  -0.52269  -0.52094
 Alpha  occ. eigenvalues --   -0.52062  -0.51764  -0.51606  -0.51412  -0.51226
 Alpha  occ. eigenvalues --   -0.51031  -0.50579  -0.50573  -0.50336  -0.50149
 Alpha  occ. eigenvalues --   -0.50027  -0.49969  -0.49882  -0.49619  -0.49564
 Alpha  occ. eigenvalues --   -0.49525  -0.49406  -0.49299  -0.49096  -0.48785
 Alpha  occ. eigenvalues --   -0.48581  -0.48462  -0.48395  -0.48159  -0.47935
 Alpha  occ. eigenvalues --   -0.47741  -0.47668  -0.47652  -0.47590  -0.47511
 Alpha  occ. eigenvalues --   -0.47448  -0.47228  -0.47154  -0.47029  -0.46945
 Alpha  occ. eigenvalues --   -0.46721  -0.46643  -0.46451  -0.46124  -0.45932
 Alpha  occ. eigenvalues --   -0.45784  -0.45619  -0.45372  -0.45086  -0.45062
 Alpha  occ. eigenvalues --   -0.44979  -0.44701  -0.44548  -0.44536  -0.44267
 Alpha  occ. eigenvalues --   -0.44103  -0.43906  -0.43773  -0.43654  -0.43555
 Alpha  occ. eigenvalues --   -0.43386  -0.43273  -0.43082  -0.43031  -0.42943
 Alpha  occ. eigenvalues --   -0.42897  -0.42805  -0.42627  -0.42487  -0.42321
 Alpha  occ. eigenvalues --   -0.42011  -0.41851  -0.41523  -0.41508  -0.41315
 Alpha  occ. eigenvalues --   -0.41226  -0.41102  -0.40850  -0.40830  -0.40331
 Alpha  occ. eigenvalues --   -0.40276  -0.40226  -0.39876  -0.39441  -0.38923
 Alpha  occ. eigenvalues --   -0.38742  -0.38636  -0.38245  -0.37791  -0.37719
 Alpha  occ. eigenvalues --   -0.37635  -0.37244  -0.36998  -0.36443  -0.36174
 Alpha  occ. eigenvalues --   -0.35849  -0.35794  -0.35185  -0.34387  -0.34109
 Alpha  occ. eigenvalues --   -0.33865  -0.33525  -0.33014  -0.31672  -0.31327
 Alpha  occ. eigenvalues --   -0.31122  -0.31086  -0.30522  -0.30330  -0.30106
 Alpha  occ. eigenvalues --   -0.29788  -0.29495  -0.29366  -0.24200  -0.24167
 Alpha  occ. eigenvalues --   -0.21558  -0.21309
 Alpha virt. eigenvalues --   -0.09069  -0.08925  -0.01728  -0.01666   0.00199
 Alpha virt. eigenvalues --    0.00286   0.02301   0.02386   0.02428   0.03732
 Alpha virt. eigenvalues --    0.04252   0.04697   0.05013   0.05197   0.05834

 Mulliken charges:
               1
     1  Mg  12.000015
     2  C    5.999915
     3  C    6.000052
     4  C    6.000087
     5  C    5.999937
     6  N    6.999936
     7  C    6.000089
     8  C    5.999968
     9  C    6.000030
    10  C    5.999890
    11  C    6.000040
    12  C    6.000004
    13  C    5.999997
    14  H    1.000004
    15  N    6.999996
    16  C    5.999815
    17  C    5.999941
    18  C    5.999903
    19  C    5.999876
    20  C    6.000045
    21  C    5.999961
    22  O    7.999884
    23  C    6.000027
    24  N    7.000066
    25  C    5.999901
    26  C    5.999995
    27  C    5.999992
    28  C    6.000066
    29  C    6.000015
    30  C    5.999978
    31  C    6.000003
    32  N    7.000029
    33  C    6.000199
    34  C    6.000067
    35  C    6.000088
    36  C    6.000126
    37  C    5.999978
    38  C    6.000023
    39  O    8.000146
    40  C    6.000009
    41  C    6.000017
    42  O    8.000005
    43  O    8.000009
    44  C    5.999994
    45  H    0.999934
    46  H    0.999984
    47  H    1.000069
    48  H    0.999987
    49  H    0.999988
    50  H    0.999934
    51  H    0.999998
    52  H    0.999975
    53  H    1.000042
    54  H    0.999973
    55  H    1.000014
    56  H    0.999997
    57  H    0.999917
    58  H    0.999933
    59  H    0.999922
    60  H    0.999958
    61  H    0.999943
    62  H    0.999983
    63  H    1.000017
    64  H    0.999993
    65  H    0.999965
    66  H    0.999997
    67  H    1.000010
    68  H    0.999986
    69  H    1.000043
    70  H    0.999998
    71  H    1.000026
    72  H    1.000014
    73  H    1.000072
    74  H    1.000068
    75  H    1.000064
    76  H    1.000036
    77  H    1.000007
    78  H    1.000010
    79  H    1.000024
    80  Mg  11.999964
    81  C    6.021206
    82  C    5.974420
    83  C    5.976764
    84  C    6.027001
    85  N    6.995621
    86  C    5.969048
    87  C    6.007879
    88  C    5.990638
    89  C    6.033244
    90  C    5.997278
    91  C    6.008432
    92  C    6.000455
    93  H    0.989756
    94  N    6.992824
    95  C    6.055613
    96  C    6.019165
    97  C    6.013734
    98  C    6.039130
    99  C    5.993794
   100  C    6.012242
   101  O    8.022725
   102  C    6.001526
   103  N    6.999916
   104  C    6.035023
   105  C    5.988098
   106  C    6.012505
   107  C    5.961656
   108  C    5.998426
   109  C    6.001770
   110  C    6.001449
   111  N    7.004676
   112  C    5.956531
   113  C    5.972930
   114  C    5.993561
   115  C    5.965508
   116  C    6.000671
   117  C    5.984989
   118  O    7.971930
   119  C    5.994759
   120  C    5.995077
   121  O    7.995922
   122  O    7.997500
   123  C    6.002939
   124  H    1.008858
   125  H    1.007240
   126  H    0.993462
   127  H    0.999902
   128  H    1.002547
   129  H    0.994603
   130  H    1.001841
   131  H    1.013653
   132  H    0.986677
   133  H    1.005498
   134  H    1.003673
   135  H    0.999983
   136  H    1.020924
   137  H    1.021556
   138  H    1.015332
   139  H    1.011148
   140  H    1.012297
   141  H    1.007885
   142  H    1.001535
   143  H    0.996974
   144  H    1.005841
   145  H    0.992040
   146  H    1.007631
   147  H    1.006226
   148  H    0.989633
   149  H    1.002161
   150  H    0.993682
   151  H    0.998526
   152  H    0.985547
   153  H    0.979794
   154  H    0.979454
   155  H    0.989851
   156  H    0.998123
   157  H    0.993144
   158  H    0.994468
 Sum of Mulliken charges = 624.00000

 Dipole moment (field-independent basis, Debye):
    X=             -0.6170    Y=             10.9460    Z=              0.3755  Tot=             10.9698
 Quadrupole moment (field-independent basis, Debye-Ang):
   XX=            -44.8680   YY=             13.0984   ZZ=             -0.8787
   XY=            346.8193   XZ=             11.7534   YZ=             -0.3571

 Normal termination of Gaussian 16 at Thu Sep 23 06:14:47 2021.
