 Gaussian 16, Revision A.03,
 Gaussian 16:  ES64L-G16RevA.03 25-Dec-2016

 ----------------------------------------------------------
 #p cam-b3lyp/Def2SVP td=(nstates=5) density=(transition=1)
 ----------------------------------------------------------

 --------------------------------
 TDDFT excited states in gaussian
 --------------------------------
 Symbolic Z-matrix:
 Charge =  0 Multiplicity = 1

                         Standard orientation:
 ---------------------------------------------------------------------
 Center     Atomic      Atomic             Coordinates (Angstroms)
 Number     Number       Type             X           Y           Z
 ---------------------------------------------------------------------
      1         12           0      -27.319302   -0.551634   -0.255645
      2          6           0      -25.870948    2.434009   -1.185290
      3          6           0      -28.497577    1.044046    2.532279
      4          6           0      -28.494170   -3.533524    0.808509
      5          6           0      -25.594541   -2.183016   -2.795904
      6          7           0      -27.030147    1.535844    0.592734
      7          6           0      -26.606836    2.574654   -0.018153
      8          6           0      -26.792513    3.986457    0.743895
      9          6           0      -27.387375    3.427690    2.096497
     10          6           0      -27.599386    1.869224    1.792349
     11          6           0      -26.409352    3.551912    3.379123
     12          6           0      -27.732874    5.039491    0.012358
     13          6           0      -27.414356    6.564123    0.208980
     14          1           0      -26.414117    6.910063    1.270334
     15          7           0      -28.388781   -1.142849    1.346658
     16          6           0      -28.890084   -0.301817    2.416487
     17          6           0      -29.687795   -1.147192    3.298691
     18          6           0      -29.603901   -2.497167    2.875628
     19          6           0      -28.843817   -2.434672    1.606776
     20          6           0      -30.416966   -0.471106    4.403436
     21          6           0      -30.238363   -3.785685    3.449601
     22          8           0      -30.022205   -4.898435    3.071075
     23          6           0      -31.079269   -3.582150    4.726128
     24          7           0      -27.028339   -2.630590   -0.798479
     25          6           0      -27.587229   -3.659233   -0.243672
     26          6           0      -26.999890   -4.994464   -0.782583
     27          6           0      -26.160944   -4.561287   -2.008696
     28          6           0      -26.260271   -3.021272   -1.902634
     29          6           0      -26.186894   -5.723327    0.308422
     30          6           0      -26.690305   -5.173549   -3.341769
     31          6           0      -26.442964   -6.681775   -3.506860
     32          7           0      -25.980902   -0.021278   -1.733513
     33          6           0      -25.450687   -0.791390   -2.753337
     34          6           0      -24.699012    0.103084   -3.593768
     35          6           0      -24.767607    1.413123   -3.031979
     36          6           0      -25.614786    1.226652   -1.905786
     37          6           0      -23.963303   -0.284946   -4.740771
     38          6           0      -24.441202    2.798161   -3.154268
     39          8           0      -23.674719    3.355444   -3.995409
     40          6           0      -25.062351    3.481416   -1.874749
     41          6           0      -23.971903    4.073578   -1.129730
     42          8           0      -23.239600    3.454493   -0.358227
     43          8           0      -23.837343    5.365854   -1.569547
     44          6           0      -22.600818    6.016560   -1.087150
     45          1           0      -28.865094    1.519536    3.443530
     46          1           0      -28.927337   -4.456934    1.200291
     47          1           0      -25.131897   -2.731998   -3.619287
     48          1           0      -25.768016    4.326260    0.897808
     49          1           0      -28.303439    3.960504    2.350745
     50          1           0      -25.390457    3.680554    3.012773
     51          1           0      -26.474733    2.644564    3.979379
     52          1           0      -26.619065    4.369028    4.070142
     53          1           0      -28.713766    4.847700    0.446478
     54          1           0      -27.997451    4.815890   -1.021705
     55          1           0      -28.293737    7.173573    0.416859
     56          1           0      -26.945125    6.946860   -0.697398
     57          1           0      -29.768138   -0.342988    5.270344
     58          1           0      -31.390762   -0.916734    4.606997
     59          1           0      -30.684152    0.521243    4.040953
     60          1           0      -32.053766   -3.121835    4.560173
     61          1           0      -30.414055   -2.957085    5.320993
     62          1           0      -31.248013   -4.472651    5.330897
     63          1           0      -27.894851   -5.534469   -1.090756
     64          1           0      -25.115593   -4.823812   -1.846317
     65          1           0      -25.784373   -5.091536    1.100506
     66          1           0      -25.269383   -6.231674    0.010158
     67          1           0      -26.874953   -6.450306    0.739809
     68          1           0      -26.173263   -4.698204   -4.174174
     69          1           0      -27.755956   -4.966045   -3.444612
     70          1           0      -26.013297   -7.048058   -2.574473
     71          1           0      -25.601768   -6.826850   -4.184848
     72          1           0      -27.250991   -7.312244   -3.877161
     73          1           0      -24.628541   -0.965449   -5.272394
     74          1           0      -23.039150   -0.833576   -4.559720
     75          1           0      -23.648846    0.615103   -5.270103
     76          1           0      -25.675750    4.276512   -2.299432
     77          1           0      -21.776009    5.484882   -1.562442
     78          1           0      -22.572368    6.082113    0.000001
     79          1           0      -22.606309    7.038825   -1.465685
     80         12           0       27.211981   -0.668786    0.073167
     81          6           0       25.453027    2.243931    1.119225
     82          6           0       29.115654    1.323338   -1.983544
     83          6           0       28.687986   -3.485426   -0.825069
     84          6           0       24.832593   -2.676027    1.870058
     85          7           0       27.244182    1.596994   -0.456036
     86          6           0       26.481284    2.539617    0.208616
     87          6           0       26.944204    3.934799   -0.334741
     88          6           0       28.130542    3.636174   -1.397951
     89          6           0       28.153665    2.108460   -1.284616
     90          6           0       27.937926    4.220432   -2.812880
     91          6           0       27.269104    5.054630    0.738203
     92          6           0       26.463499    6.316242    0.626022
     93          1           0       25.883005    6.824231   -0.667336
     94          7           0       28.852006   -1.030437   -1.188583
     95          6           0       29.470144   -0.078761   -1.936923
     96          6           0       30.618167   -0.722411   -2.521995
     97          6           0       30.463174   -2.106738   -2.293439
     98          6           0       29.270046   -2.314969   -1.410022
     99          6           0       31.611549    0.094188   -3.365690
    100          6           0       31.246980   -3.220079   -2.919776
    101          8           0       30.943286   -4.422230   -2.733092
    102          6           0       32.373889   -2.894812   -3.828467
    103          7           0       26.721710   -2.802039    0.456598
    104          6           0       27.526342   -3.716499    0.039506
    105          6           0       27.214089   -5.237737    0.503728
    106          6           0       25.963205   -4.954157    1.349320
    107          6           0       25.813885   -3.456207    1.243352
    108          6           0       26.980494   -6.138182   -0.764251
    109          6           0       25.994088   -5.432988    2.843323
    110          6           0       26.902023   -4.633343    3.807661
    111          7           0       25.484455   -0.318471    1.109473
    112          6           0       24.633168   -1.250336    1.748656
    113          6           0       23.608193   -0.493477    2.480309
    114          6           0       23.898424    0.875558    2.267304
    115          6           0       25.081974    0.934459    1.456468
    116          6           0       22.471429   -1.114752    3.345982
    117          6           0       23.463723    2.127394    2.599682
    118          8           0       22.505712    2.517528    3.235449
    119          6           0       24.460652    3.120419    1.939597
    120          6           0       23.708252    4.061866    1.142918
    121          8           0       23.390462    3.890423   -0.039364
    122          8           0       23.196189    5.072287    1.965529
    123          6           0       22.249051    5.991128    1.286747
    124          1           0       29.604698    1.788864   -2.842229
    125          1           0       29.081135   -4.407527   -1.258409
    126          1           0       24.085985   -3.237720    2.435245
    127          1           0       25.992366    4.256034   -0.755744
    128          1           0       29.041238    4.122930   -1.051791
    129          1           0       28.786531    4.847353   -3.089611
    130          1           0       27.020797    4.781286   -2.992130
    131          1           0       27.903933    3.339799   -3.454313
    132          1           0       28.328918    5.307795    0.703758
    133          1           0       27.007698    4.612891    1.699813
    134          1           0       27.167537    7.139735    0.750750
    135          1           0       25.683797    6.281204    1.386079
    136          1           0       31.515018    1.165964   -3.190740
    137          1           0       31.453336   -0.115141   -4.422858
    138          1           0       32.591433   -0.255471   -3.042219
    139          1           0       33.073717   -2.284948   -3.257113
    140          1           0       32.041912   -2.291014   -4.673920
    141          1           0       32.804698   -3.803517   -4.246965
    142          1           0       28.018643   -5.637325    1.121572
    143          1           0       25.077912   -5.301865    0.816422
    144          1           0       26.572599   -5.503434   -1.550852
    145          1           0       26.221226   -6.880805   -0.516522
    146          1           0       27.836898   -6.670216   -1.179313
    147          1           0       26.149186   -6.510739    2.882062
    148          1           0       24.974411   -5.375878    3.222951
    149          1           0       27.808378   -4.201685    3.384372
    150          1           0       27.107163   -5.260403    4.676048
    151          1           0       26.267711   -3.833117    4.188640
    152          1           0       22.396158   -0.669652    4.338165
    153          1           0       22.543757   -2.197713    3.439767
    154          1           0       21.510477   -0.755721    2.976656
    155          1           0       24.892338    3.606793    2.813730
    156          1           0       21.318658    5.475734    1.049706
    157          1           0       22.603992    6.382085    0.333880
    158          1           0       22.198729    6.888266    1.904004
 ---------------------------------------------------------------------

 SCF Done:  E(RCAM-B3LYP) =  -4069.82351306     A.U. after   19 cycles

 Excitation energies and oscillator strengths:

 Excited State   1:      Singlet-A      1.7536 eV  707.04 nm  f=0.3777  <S**2>=0.000
     309 -> 315        0.18837
     311 -> 313        0.68193
     309 <- 315        0.10758
 This state for optimization and/or second-order correction.
 Total Energy, E(TD-HF/TD-DFT) =  -4069.75907042
 Copying the excited state density for this state as the 1-particle RhoCI density.

 Excited State   2:      Singlet-A      1.7724 eV  699.52 nm  f=0.3786  <S**2>=0.000
     310 -> 316       -0.19902
     312 -> 314        0.67934
     310 <- 316       -0.10974

 Excited State   3:      Singlet-A      2.2093 eV  561.19 nm  f=0.1066  <S**2>=0.000
     309 -> 313        0.64204
     311 -> 315       -0.28088

 Excited State   4:      Singlet-A      2.2144 eV  559.90 nm  f=0.1133  <S**2>=0.000
     310 -> 314        0.64299
     312 -> 316        0.28128

 Excited State   5:      Singlet-A      3.2812 eV  377.87 nm  f=0.0000  <S**2>=0.000
     312 -> 313        0.70710

 The electronic state is 1-A.
 Alpha  occ. eigenvalues --  -46.89796 -46.88364 -19.24761 -19.24246 -19.20132
 Alpha  occ. eigenvalues --  -19.19271 -19.19271 -19.18751 -19.18205 -19.17504
 Alpha  occ. eigenvalues --  -14.42654 -14.42186 -14.41861 -14.41505 -14.39743
 Alpha  occ. eigenvalues --  -14.39655 -14.39644 -14.38911 -10.38589 -10.38518
 Alpha  occ. eigenvalues --  -10.36242 -10.35046 -10.34726 -10.33279 -10.31882
 Alpha  occ. eigenvalues --  -10.31806 -10.31697 -10.31396 -10.31235 -10.31079
 Alpha  occ. eigenvalues --  -10.30876 -10.30765 -10.30649 -10.30636 -10.30442
 Alpha  occ. eigenvalues --  -10.30391 -10.30304 -10.30180 -10.29832 -10.29401
 Alpha  occ. eigenvalues --  -10.29339 -10.29181 -10.28954 -10.28895 -10.28889
 Alpha  occ. eigenvalues --  -10.28803 -10.28754 -10.28356 -10.28154 -10.28083
 Alpha  occ. eigenvalues --  -10.28061 -10.28037 -10.27966 -10.27960 -10.27959
 Alpha  occ. eigenvalues --  -10.27929 -10.27754 -10.27734 -10.27668 -10.27583
 Alpha  occ. eigenvalues --  -10.27526 -10.27384 -10.27314 -10.27206 -10.27144
 Alpha  occ. eigenvalues --  -10.27114 -10.27103 -10.27070 -10.27004 -10.26886
 Alpha  occ. eigenvalues --  -10.26648 -10.26578 -10.26530 -10.26335 -10.26308
 Alpha  occ. eigenvalues --  -10.26245 -10.26123 -10.25981 -10.25951 -10.25850
 Alpha  occ. eigenvalues --  -10.25635 -10.25364 -10.25296 -10.24618 -10.24419
 Alpha  occ. eigenvalues --  -10.23875  -3.18132  -3.16977  -1.93046  -1.92622
 Alpha  occ. eigenvalues --   -1.92388  -1.91870  -1.91438  -1.91280  -1.15487
 Alpha  occ. eigenvalues --   -1.14332  -1.12486  -1.09225  -1.08443  -1.07190
 Alpha  occ. eigenvalues --   -1.06713  -1.06289  -1.06089  -1.05351  -1.04283
 Alpha  occ. eigenvalues --   -1.03677  -1.03425  -1.03011  -1.01681  -1.00839
 Alpha  occ. eigenvalues --   -0.92490  -0.92260  -0.89727  -0.89288  -0.88327
 Alpha  occ. eigenvalues --   -0.88263  -0.87810  -0.87805  -0.87450  -0.87231
 Alpha  occ. eigenvalues --   -0.86929  -0.86823  -0.86770  -0.85455  -0.84300
 Alpha  occ. eigenvalues --   -0.83880  -0.83449  -0.83351  -0.82517  -0.82293
 Alpha  occ. eigenvalues --   -0.82202  -0.81708  -0.81018  -0.80652  -0.80246
 Alpha  occ. eigenvalues --   -0.80026  -0.78516  -0.78300  -0.77556  -0.77357
 Alpha  occ. eigenvalues --   -0.76421  -0.76351  -0.75719  -0.75707  -0.74956
 Alpha  occ. eigenvalues --   -0.74808  -0.72501  -0.72174  -0.71536  -0.71432
 Alpha  occ. eigenvalues --   -0.70444  -0.69382  -0.69015  -0.68758  -0.68150
 Alpha  occ. eigenvalues --   -0.67817  -0.66960  -0.66892  -0.65788  -0.65376
 Alpha  occ. eigenvalues --   -0.65294  -0.64884  -0.64722  -0.64621  -0.64213
 Alpha  occ. eigenvalues --   -0.64048  -0.61518  -0.61394  -0.60206  -0.59991
 Alpha  occ. eigenvalues --   -0.59481  -0.59336  -0.59100  -0.58583  -0.58249
 Alpha  occ. eigenvalues --   -0.58108  -0.57917  -0.57846  -0.57632  -0.57502
 Alpha  occ. eigenvalues --   -0.56258  -0.55999  -0.55959  -0.55686  -0.55248
 Alpha  occ. eigenvalues --   -0.55127  -0.54927  -0.54518  -0.53943  -0.53572
 Alpha  occ. eigenvalues --   -0.53322  -0.53218  -0.53122  -0.52993  -0.52917
 Alpha  occ. eigenvalues --   -0.52816  -0.52693  -0.52604  -0.52037  -0.52001
 Alpha  occ. eigenvalues --   -0.51876  -0.51530  -0.51340  -0.51266  -0.51083
 Alpha  occ. eigenvalues --   -0.50909  -0.50785  -0.50684  -0.50433  -0.50353
 Alpha  occ. eigenvalues --   -0.49828  -0.49487  -0.49400  -0.49225  -0.49191
 Alpha  occ. eigenvalues --   -0.49109  -0.48932  -0.48923  -0.48839  -0.48549
 Alpha  occ. eigenvalues --   -0.48497  -0.48431  -0.48160  -0.47957  -0.47905
 Alpha  occ. eigenvalues --   -0.47802  -0.47754  -0.47484  -0.47291  -0.47003
 Alpha  occ. eigenvalues --   -0.46713  -0.46597  -0.46588  -0.46492  -0.46420
 Alpha  occ. eigenvalues --   -0.46201  -0.46140  -0.46000  -0.45798  -0.45571
 Alpha  occ. eigenvalues --   -0.45464  -0.45088  -0.44906  -0.44824  -0.44574
 Alpha  occ. eigenvalues --   -0.44375  -0.44250  -0.44200  -0.44133  -0.43757
 Alpha  occ. eigenvalues --   -0.43724  -0.43708  -0.43490  -0.43422  -0.43180
 Alpha  occ. eigenvalues --   -0.43174  -0.42889  -0.42743  -0.42700  -0.42633
 Alpha  occ. eigenvalues --   -0.42454  -0.42341  -0.42232  -0.41841  -0.41800
 Alpha  occ. eigenvalues --   -0.41677  -0.41634  -0.41558  -0.41432  -0.41351
 Alpha  occ. eigenvalues --   -0.41233  -0.41156  -0.41120  -0.40621  -0.40566
 Alpha  occ. eigenvalues --   -0.40172  -0.40096  -0.39777  -0.39754  -0.39361
 Alpha  occ. eigenvalues --   -0.39095  -0.38186  -0.37949  -0.37586  -0.36919
 Alpha  occ. eigenvalues --   -0.36849  -0.36606  -0.36523  -0.36342  -0.36288
 Alpha  occ. eigenvalues --   -0.36074  -0.35471  -0.34277  -0.33912  -0.33860
 Alpha  occ. eigenvalues --   -0.33648  -0.33405  -0.33024  -0.31723  -0.31292
 Alpha  occ. eigenvalues --   -0.31184  -0.31165  -0.30351  -0.30305  -0.30113
 Alpha  occ. eigenvalues --   -0.29940  -0.29534  -0.29135  -0.23768  -0.23636
 Alpha  occ. eigenvalues --   -0.21221  -0.21208
 Alpha virt. eigenvalues --   -0.08519  -0.08389  -0.01761  -0.01661  -0.00001
 Alpha virt. eigenvalues --    0.00164   0.02124   0.02346   0.02604   0.02635
 Alpha virt. eigenvalues --    0.05033   0.05500   0.05562   0.05971   0.06473

 Mulliken charges:
               1
     1  Mg  12.000001
     2  C    6.000042
     3  C    5.999898
     4  C    5.999975
     5  C    6.000090
     6  N    7.000021
     7  C    5.999859
     8  C    6.000052
     9  C    5.999952
    10  C    6.000189
    11  C    5.999966
    12  C    6.000023
    13  C    6.000009
    14  H    0.999940
    15  N    6.999997
    16  C    6.000244
    17  C    6.000069
    18  C    6.000139
    19  C    6.000116
    20  C    5.999947
    21  C    6.000088
    22  O    8.000156
    23  C    5.999978
    24  N    6.999990
    25  C    6.000126
    26  C    5.999975
    27  C    6.000059
    28  C    5.999840
    29  C    5.999985
    30  C    6.000021
    31  C    5.999999
    32  N    6.999987
    33  C    5.999770
    34  C    5.999862
    35  C    5.999969
    36  C    5.999884
    37  C    6.000064
    38  C    5.999863
    39  O    7.999810
    40  C    6.000001
    41  C    5.999972
    42  O    7.999931
    43  O    8.000012
    44  C    6.000025
    45  H    1.000041
    46  H    1.000045
    47  H    0.999951
    48  H    0.999987
    49  H    1.000039
    50  H    1.000049
    51  H    0.999966
    52  H    1.000035
    53  H    0.999961
    54  H    1.000049
    55  H    1.000002
    56  H    1.000024
    57  H    1.000099
    58  H    1.000114
    59  H    1.000103
    60  H    1.000080
    61  H    1.000006
    62  H    1.000093
    63  H    1.000012
    64  H    0.999958
    65  H    0.999962
    66  H    1.000045
    67  H    0.999998
    68  H    1.000032
    69  H    0.999978
    70  H    0.999950
    71  H    1.000000
    72  H    1.000006
    73  H    0.999925
    74  H    0.999818
    75  H    0.999913
    76  H    0.999971
    77  H    0.999976
    78  H    0.999939
    79  H    0.999974
    80  Mg  12.000100
    81  C    5.987193
    82  C    6.024933
    83  C    6.007672
    84  C    5.979889
    85  N    6.998511
    86  C    6.023326
    87  C    5.992923
    88  C    6.017664
    89  C    5.960716
    90  C    5.999533
    91  C    5.998672
    92  C    5.997866
    93  H    1.005030
    94  N    7.018941
    95  C    5.950857
    96  C    5.984175
    97  C    5.983843
    98  C    5.964654
    99  C    6.002665
   100  C    5.988066
   101  O    7.971653
   102  C    6.004660
   103  N    6.991062
   104  C    5.969595
   105  C    6.008039
   106  C    5.990925
   107  C    6.039262
   108  C    6.004814
   109  C    5.995574
   110  C    5.995927
   111  N    6.995886
   112  C    6.049417
   113  C    6.025440
   114  C    6.002795
   115  C    6.030006
   116  C    5.997070
   117  C    6.014024
   118  O    8.030422
   119  C    6.001071
   120  C    6.005144
   121  O    8.008443
   122  O    7.999467
   123  C    5.996730
   124  H    0.996599
   125  H    0.992992
   126  H    1.008062
   127  H    0.996715
   128  H    0.995006
   129  H    0.997424
   130  H    0.988891
   131  H    1.003321
   132  H    1.008627
   133  H    0.993806
   134  H    1.004133
   135  H    0.994867
   136  H    0.982114
   137  H    0.982041
   138  H    0.984954
   139  H    0.992979
   140  H    0.992966
   141  H    0.985380
   142  H    0.998494
   143  H    1.001606
   144  H    1.000130
   145  H    0.988098
   146  H    1.003612
   147  H    1.009658
   148  H    0.996632
   149  H    1.012022
   150  H    1.005012
   151  H    0.991254
   152  H    1.019237
   153  H    1.019285
   154  H    1.018736
   155  H    1.007937
   156  H    1.000993
   157  H    1.006456
   158  H    1.005306
 Sum of Mulliken charges = 624.00000

 Dipole moment (field-independent basis, Debye):
    X=             -8.3771    Y=              2.2324    Z=              6.1994  Tot=             10.6579
 Quadrupole moment (field-independent basis, Debye-Ang):
   XX=           -448.7133   YY=             -0.7453   ZZ=             -0.4108
   XY=             66.2137   XZ=            165.9211   YZ=             -4.3505

 Normal termination of Gaussian 16 at Thu Sep 23 06:03:43 2021.
