 Gaussian 16, Revision A.03,
 Gaussian 16:  ES64L-G16RevA.03 25-Dec-2016

 ----------------------------------------------------------
 #p cam-b3lyp/Def2SVP td=(nstates=5) density=(transition=1)
 ----------------------------------------------------------

 --------------------------------
 TDDFT excited states in gaussian
 --------------------------------
 Symbolic Z-matrix:
 Charge =  0 Multiplicity = 1

                         Standard orientation:
 ---------------------------------------------------------------------
 Center     Atomic      Atomic             Coordinates (Angstroms)
 Number     Number       Type             X           Y           Z
 ---------------------------------------------------------------------
      1         12           0       19.017204   -0.261383   -0.171559
      2          6           0       15.739280   -1.466479   -0.652735
      3          6           0       18.359500    2.100962   -2.536705
      4          6           0       21.860432    1.353377    0.823458
      5          6           0       19.200376   -2.497632    2.597133
      6          7           0       17.162838    0.349486   -1.367378
      7          6           0       15.996878   -0.338868   -1.543894
      8          6           0       15.015513    0.403590   -2.467236
      9          6           0       16.108652    1.273068   -3.261954
     10          6           0       17.296042    1.241494   -2.332061
     11          6           0       16.484140    0.753944   -4.675832
     12          6           0       13.970868    1.340618   -1.709559
     13          6           0       12.657092    1.682382   -2.395340
     14          1           0       12.341102    3.104883   -2.904424
     15          7           0       20.082507    1.509889   -0.764279
     16          6           0       19.681938    2.232939   -1.850080
     17          6           0       20.653262    3.164968   -2.219360
     18          6           0       21.730729    2.973403   -1.274614
     19          6           0       21.269568    1.935884   -0.309298
     20          6           0       20.544176    4.124008   -3.398661
     21          6           0       23.019096    3.762046   -1.339609
     22          8           0       23.179231    4.615469   -2.249960
     23          6           0       24.244549    3.507422   -0.392955
     24          7           0       20.278543   -0.575955    1.453136
     25          6           0       21.439596    0.223920    1.631936
     26          6           0       22.356739   -0.420569    2.633824
     27          6           0       21.445209   -1.385244    3.422987
     28          6           0       20.265640   -1.580725    2.426366
     29          6           0       23.574288   -1.238742    2.147453
     30          6           0       20.903709   -0.731290    4.801104
     31          6           0       21.789357   -0.802353    6.035940
     32          7           0       17.782531   -1.820182    0.653239
     33          6           0       17.993357   -2.635020    1.755424
     34          6           0       16.902100   -3.444624    2.008540
     35          6           0       15.965957   -3.064334    1.031696
     36          6           0       16.548896   -2.053129    0.249442
     37          6           0       16.819207   -4.465926    3.098754
     38          6           0       14.746576   -3.369944    0.494909
     39          8           0       13.986475   -4.284120    0.746554
     40          6           0       14.451438   -2.181155   -0.443758
     41          6           0       13.388521   -1.390387    0.258863
     42          8           0       13.509661   -0.932677    1.352435
     43          8           0       12.230028   -1.342049   -0.518567
     44          6           0       11.139816   -0.748307    0.174167
     45          1           0       18.273199    2.735470   -3.421513
     46          1           0       22.869767    1.698351    1.059252
     47          1           0       19.386458   -3.247232    3.368806
     48          1           0       14.570195   -0.251508   -3.215249
     49          1           0       15.667090    2.258313   -3.409074
     50          1           0       15.871944    1.380391   -5.325192
     51          1           0       16.191762   -0.285225   -4.826170
     52          1           0       17.536383    0.928192   -4.901198
     53          1           0       14.411269    2.318102   -1.512681
     54          1           0       13.816609    0.895360   -0.726440
     55          1           0       11.899664    1.398024   -1.663459
     56          1           0       12.547601    0.998511   -3.236872
     57          1           0       21.433732    4.369332   -3.979809
     58          1           0       20.093904    4.962954   -2.868584
     59          1           0       19.914576    3.688010   -4.174326
     60          1           0       24.620848    2.497168   -0.551555
     61          1           0       23.812261    3.677729    0.592864
     62          1           0       25.045448    4.245525   -0.434051
     63          1           0       22.672444    0.372091    3.311369
     64          1           0       21.942442   -2.326801    3.656362
     65          1           0       23.521748   -2.309396    2.344263
     66          1           0       24.502649   -0.681049    2.272582
     67          1           0       23.484365   -1.212041    1.061614
     68          1           0       19.991740   -1.312853    4.934487
     69          1           0       20.646614    0.318285    4.657047
     70          1           0       21.899870    0.197971    6.453685
     71          1           0       22.770169   -1.185197    5.752550
     72          1           0       21.333133   -1.410038    6.817830
     73          1           0       15.875374   -4.279637    3.610355
     74          1           0       17.596705   -4.340043    3.853260
     75          1           0       16.807280   -5.488809    2.721972
     76          1           0       14.069924   -2.581089   -1.382594
     77          1           0       10.557174   -1.523378    0.671308
     78          1           0       10.386684   -0.318724   -0.487498
     79          1           0       11.465243   -0.022993    0.917946
     80         12           0      -18.784961    0.359001    0.250116
     81          6           0      -15.699245   -0.591910   -1.116958
     82          6           0      -19.999265   -2.753768   -0.580749
     83          6           0      -21.688236    1.288332    1.514639
     84          6           0      -17.417787    3.533882    0.877542
     85          7           0      -17.873581   -1.445685   -0.655382
     86          6           0      -16.594296   -1.642947   -1.175507
     87          6           0      -16.266671   -3.159593   -1.468946
     88          6           0      -17.677533   -3.713719   -1.422898
     89          6           0      -18.602482   -2.568498   -0.836655
     90          6           0      -18.207397   -4.034128   -2.895257
     91          6           0      -15.436998   -3.628763   -0.192411
     92          6           0      -14.180744   -4.571699   -0.450856
     93          1           0      -14.450084   -5.461838   -1.637100
     94          7           0      -20.576148   -0.532810    0.297760
     95          6           0      -20.897227   -1.767571   -0.078243
     96          6           0      -22.273829   -2.088583    0.191190
     97          6           0      -22.754878   -1.011602    0.961830
     98          6           0      -21.662577    0.031563    0.906750
     99          6           0      -22.973257   -3.339832   -0.195953
    100          6           0      -24.022441   -0.877207    1.780298
    101          8           0      -24.194693    0.024834    2.607977
    102          6           0      -25.201667   -1.819013    1.521416
    103          7           0      -19.458342    2.208784    1.041956
    104          6           0      -20.730493    2.248919    1.562028
    105          6           0      -20.914020    3.581151    2.285800
    106          6           0      -19.476013    4.290324    2.193506
    107          6           0      -18.692989    3.292278    1.381647
    108          6           0      -22.145628    4.347575    1.686331
    109          6           0      -18.819226    4.688657    3.505898
    110          6           0      -18.362621    6.180459    3.552946
    111          7           0      -16.953074    1.290938   -0.074782
    112          6           0      -16.536729    2.626699    0.221923
    113          6           0      -15.202176    2.836239   -0.213447
    114          6           0      -14.849266    1.582823   -0.741302
    115          6           0      -15.963795    0.721488   -0.670808
    116          6           0      -14.319951    4.038798   -0.113600
    117          6           0      -13.796899    0.828659   -1.343568
    118          8           0      -12.670222    1.111970   -1.676852
    119          6           0      -14.294394   -0.636184   -1.500121
    120          6           0      -13.984325   -1.105621   -2.875055
    121          8           0      -14.513776   -0.752649   -3.925066
    122          8           0      -13.041287   -2.045594   -2.758764
    123          6           0      -12.631631   -2.717668   -3.974024
    124          1           0      -20.469521   -3.735842   -0.661897
    125          1           0      -22.677218    1.537360    1.907482
    126          1           0      -16.933289    4.484730    1.109349
    127          1           0      -15.638150   -3.142377   -2.358784
    128          1           0      -17.719083   -4.583616   -0.768273
    129          1           0      -17.479654   -3.775532   -3.664677
    130          1           0      -19.119273   -3.461099   -3.062137
    131          1           0      -18.422804   -5.102395   -2.870185
    132          1           0      -16.035254   -4.182646    0.530451
    133          1           0      -15.132392   -2.716305    0.320835
    134          1           0      -14.089166   -5.313493    0.342612
    135          1           0      -13.243324   -4.020848   -0.369752
    136          1           0      -23.180007   -3.877839    0.730200
    137          1           0      -22.340128   -3.975573   -0.813322
    138          1           0      -23.909663   -3.166198   -0.725305
    139          1           0      -26.002686   -1.232373    1.970631
    140          1           0      -25.082810   -2.809693    1.961784
    141          1           0      -25.525059   -1.943123    0.488094
    142          1           0      -21.161901    3.512785    3.344997
    143          1           0      -19.577753    5.190395    1.587049
    144          1           0      -22.712529    4.707742    2.544893
    145          1           0      -22.752101    3.749110    1.006456
    146          1           0      -21.847357    5.310626    1.270326
    147          1           0      -17.967445    4.070055    3.786815
    148          1           0      -19.639262    4.666888    4.225042
    149          1           0      -18.703878    6.716263    2.667044
    150          1           0      -17.281980    6.274100    3.447416
    151          1           0      -18.743985    6.683988    4.441510
    152          1           0      -14.060485    4.022287    0.945300
    153          1           0      -14.906811    4.884287   -0.471875
    154          1           0      -13.391330    3.922731   -0.670659
    155          1           0      -13.626885   -1.193960   -0.841942
    156          1           0      -12.329951   -1.983579   -4.721677
    157          1           0      -13.393879   -3.296911   -4.496226
    158          1           0      -11.782311   -3.343915   -3.700352
 ---------------------------------------------------------------------

 SCF Done:  E(RCAM-B3LYP) =  -4069.81097775     A.U. after   19 cycles

 Excitation energies and oscillator strengths:

 Excited State   1:      Singlet-A      1.7066 eV  726.48 nm  f=0.4255  <S**2>=0.000
     309 -> 315        0.18525
     311 -> 313        0.68211
     309 <- 315        0.10814
 This state for optimization and/or second-order correction.
 Total Energy, E(TD-HF/TD-DFT) =  -4069.74826006
 Copying the excited state density for this state as the 1-particle RhoCI density.

 Excited State   2:      Singlet-A      1.7259 eV  718.39 nm  f=0.3630  <S**2>=0.000
     310 -> 316       -0.16121
     312 -> 314        0.68748

 Excited State   3:      Singlet-A      2.1434 eV  578.45 nm  f=0.1305  <S**2>=0.000
     309 -> 313        0.65034
     311 -> 315       -0.26011

 Excited State   4:      Singlet-A      2.2841 eV  542.81 nm  f=0.1221  <S**2>=0.000
     310 -> 314        0.63702
     312 -> 316        0.28300

 Excited State   5:      Singlet-A      2.8673 eV  432.41 nm  f=0.0000  <S**2>=0.000
     312 -> 313        0.70710

 The electronic state is 1-A.
 Alpha  occ. eigenvalues --  -46.90294 -46.87753 -19.25362 -19.25243 -19.20895
 Alpha  occ. eigenvalues --  -19.19905 -19.18777 -19.18074 -19.17867 -19.17390
 Alpha  occ. eigenvalues --  -14.43157 -14.42651 -14.42225 -14.41605 -14.40207
 Alpha  occ. eigenvalues --  -14.39802 -14.39187 -14.38454 -10.39672 -10.38297
 Alpha  occ. eigenvalues --  -10.36221 -10.35008 -10.33335 -10.33139 -10.32383
 Alpha  occ. eigenvalues --  -10.32306 -10.31889 -10.31618 -10.31349 -10.30999
 Alpha  occ. eigenvalues --  -10.30952 -10.30922 -10.30694 -10.30666 -10.30612
 Alpha  occ. eigenvalues --  -10.30434 -10.30207 -10.30101 -10.29929 -10.29208
 Alpha  occ. eigenvalues --  -10.29061 -10.29051 -10.28988 -10.28898 -10.28423
 Alpha  occ. eigenvalues --  -10.28323 -10.28304 -10.28289 -10.28191 -10.28042
 Alpha  occ. eigenvalues --  -10.28028 -10.27964 -10.27938 -10.27845 -10.27825
 Alpha  occ. eigenvalues --  -10.27813 -10.27649 -10.27536 -10.27531 -10.27513
 Alpha  occ. eigenvalues --  -10.27510 -10.27428 -10.27392 -10.27308 -10.27127
 Alpha  occ. eigenvalues --  -10.27081 -10.27061 -10.26681 -10.26617 -10.26565
 Alpha  occ. eigenvalues --  -10.26518 -10.26477 -10.26467 -10.26352 -10.26210
 Alpha  occ. eigenvalues --  -10.26147 -10.26066 -10.26015 -10.25873 -10.25823
 Alpha  occ. eigenvalues --  -10.25785 -10.25696 -10.25648 -10.25410 -10.24147
 Alpha  occ. eigenvalues --  -10.23568  -3.18586  -3.16463  -1.93485  -1.93034
 Alpha  occ. eigenvalues --   -1.92884  -1.91373  -1.90898  -1.90794  -1.17611
 Alpha  occ. eigenvalues --   -1.17084  -1.10342  -1.10021  -1.09485  -1.09354
 Alpha  occ. eigenvalues --   -1.07303  -1.07068  -1.05736  -1.04970  -1.04631
 Alpha  occ. eigenvalues --   -1.03904  -1.03899  -1.02906  -1.02329  -1.01899
 Alpha  occ. eigenvalues --   -0.94322  -0.92636  -0.89629  -0.88944  -0.88705
 Alpha  occ. eigenvalues --   -0.88666  -0.88468  -0.88405  -0.87962  -0.87548
 Alpha  occ. eigenvalues --   -0.87084  -0.87018  -0.86621  -0.85893  -0.84367
 Alpha  occ. eigenvalues --   -0.83939  -0.83620  -0.83512  -0.82893  -0.82339
 Alpha  occ. eigenvalues --   -0.81872  -0.81828  -0.81256  -0.80674  -0.80363
 Alpha  occ. eigenvalues --   -0.80334  -0.78892  -0.78055  -0.77410  -0.77373
 Alpha  occ. eigenvalues --   -0.76931  -0.76749  -0.75948  -0.75676  -0.75585
 Alpha  occ. eigenvalues --   -0.74964  -0.73596  -0.73088  -0.72239  -0.71390
 Alpha  occ. eigenvalues --   -0.69472  -0.69171  -0.68856  -0.68464  -0.68412
 Alpha  occ. eigenvalues --   -0.67593  -0.67373  -0.67148  -0.66291  -0.65398
 Alpha  occ. eigenvalues --   -0.65351  -0.65229  -0.64999  -0.64736  -0.64490
 Alpha  occ. eigenvalues --   -0.64203  -0.62791  -0.62458  -0.60774  -0.60507
 Alpha  occ. eigenvalues --   -0.60139  -0.59594  -0.59579  -0.59171  -0.59124
 Alpha  occ. eigenvalues --   -0.59009  -0.58614  -0.58048  -0.57749  -0.57285
 Alpha  occ. eigenvalues --   -0.56627  -0.56490  -0.55761  -0.55648  -0.55314
 Alpha  occ. eigenvalues --   -0.55287  -0.55067  -0.54445  -0.53829  -0.53810
 Alpha  occ. eigenvalues --   -0.53537  -0.53522  -0.53185  -0.53150  -0.52777
 Alpha  occ. eigenvalues --   -0.52590  -0.52579  -0.52526  -0.52263  -0.52141
 Alpha  occ. eigenvalues --   -0.51813  -0.51755  -0.51422  -0.51300  -0.51204
 Alpha  occ. eigenvalues --   -0.51019  -0.50802  -0.50718  -0.50595  -0.50398
 Alpha  occ. eigenvalues --   -0.50285  -0.50137  -0.49967  -0.49815  -0.49731
 Alpha  occ. eigenvalues --   -0.49622  -0.49335  -0.49245  -0.48982  -0.48801
 Alpha  occ. eigenvalues --   -0.48619  -0.48507  -0.48421  -0.48401  -0.47922
 Alpha  occ. eigenvalues --   -0.47882  -0.47661  -0.47525  -0.47328  -0.47211
 Alpha  occ. eigenvalues --   -0.47163  -0.46987  -0.46725  -0.46582  -0.46546
 Alpha  occ. eigenvalues --   -0.46383  -0.46378  -0.46334  -0.46063  -0.46007
 Alpha  occ. eigenvalues --   -0.45769  -0.45264  -0.45258  -0.45065  -0.45048
 Alpha  occ. eigenvalues --   -0.44700  -0.44692  -0.44579  -0.44539  -0.44434
 Alpha  occ. eigenvalues --   -0.44274  -0.43834  -0.43750  -0.43679  -0.43646
 Alpha  occ. eigenvalues --   -0.43318  -0.43240  -0.43065  -0.42923  -0.42834
 Alpha  occ. eigenvalues --   -0.42598  -0.42569  -0.42476  -0.42330  -0.42168
 Alpha  occ. eigenvalues --   -0.41922  -0.41557  -0.41527  -0.41303  -0.41173
 Alpha  occ. eigenvalues --   -0.41101  -0.40996  -0.40800  -0.40493  -0.40363
 Alpha  occ. eigenvalues --   -0.40293  -0.40048  -0.39717  -0.39372  -0.38793
 Alpha  occ. eigenvalues --   -0.38472  -0.38261  -0.37790  -0.37627  -0.37611
 Alpha  occ. eigenvalues --   -0.37401  -0.37111  -0.36928  -0.36894  -0.36562
 Alpha  occ. eigenvalues --   -0.36451  -0.36294  -0.35475  -0.35035  -0.34224
 Alpha  occ. eigenvalues --   -0.33829  -0.33392  -0.32793  -0.32251  -0.31426
 Alpha  occ. eigenvalues --   -0.31376  -0.30884  -0.30426  -0.30014  -0.29906
 Alpha  occ. eigenvalues --   -0.29669  -0.29499  -0.29250  -0.24303  -0.24107
 Alpha  occ. eigenvalues --   -0.22017  -0.21042
 Alpha virt. eigenvalues --   -0.09571  -0.08568  -0.02460  -0.01682  -0.00059
 Alpha virt. eigenvalues --    0.00537   0.01442   0.02618   0.02829   0.03429
 Alpha virt. eigenvalues --    0.04325   0.05180   0.05537   0.05583   0.05902

 Mulliken charges:
               1
     1  Mg  11.999984
     2  C    5.998805
     3  C    6.032864
     4  C    6.013071
     5  C    5.963925
     6  N    7.012007
     7  C    6.032688
     8  C    5.988171
     9  C    6.012432
    10  C    5.959337
    11  C    6.003558
    12  C    5.998046
    13  C    5.997868
    14  H    1.012135
    15  N    7.010261
    16  C    5.949299
    17  C    5.983286
    18  C    5.985315
    19  C    5.958303
    20  C    6.001614
    21  C    5.990282
    22  O    7.974602
    23  C    6.001131
    24  N    6.984703
    25  C    5.970383
    26  C    6.011644
    27  C    5.992180
    28  C    6.043304
    29  C    5.997048
    30  C    5.998356
    31  C    6.000372
    32  N    6.998127
    33  C    6.044373
    34  C    6.021228
    35  C    6.009542
    36  C    6.022260
    37  C    5.996086
    38  C    6.017295
    39  O    8.035594
    40  C    5.994157
    41  C    6.005019
    42  O    8.003570
    43  O    8.003175
    44  C    5.995876
    45  H    0.996429
    46  H    0.988855
    47  H    1.003649
    48  H    1.001647
    49  H    0.998148
    50  H    0.995904
    51  H    0.987500
    52  H    1.007626
    53  H    1.012902
    54  H    0.993639
    55  H    0.998111
    56  H    1.001608
    57  H    0.984908
    58  H    0.982517
    59  H    0.979299
    60  H    0.990040
    61  H    0.991782
    62  H    0.985651
    63  H    0.998068
    64  H    0.999901
    65  H    0.985743
    66  H    0.998900
    67  H    1.002545
    68  H    0.992414
    69  H    1.010694
    70  H    1.004370
    71  H    1.004371
    72  H    0.997449
    73  H    1.015523
    74  H    1.020781
    75  H    1.018661
    76  H    1.011874
    77  H    1.002999
    78  H    1.007434
    79  H    1.004782
    80  Mg  11.999913
    81  C    6.000895
    82  C    5.999815
    83  C    5.999073
    84  C    6.000172
    85  N    7.000564
    86  C    5.998871
    87  C    6.000090
    88  C    5.999906
    89  C    6.000664
    90  C    5.999878
    91  C    6.000077
    92  C    6.000109
    93  H    0.999792
    94  N    6.999626
    95  C    6.001141
    96  C    6.000737
    97  C    6.000297
    98  C    6.001457
    99  C    5.999816
   100  C    6.000384
   101  O    8.000895
   102  C    5.999765
   103  N    6.999767
   104  C    6.001209
   105  C    5.999571
   106  C    6.000391
   107  C    5.999130
   108  C    5.999820
   109  C    6.000196
   110  C    6.000008
   111  N    7.000054
   112  C    5.998774
   113  C    5.999316
   114  C    5.999804
   115  C    5.999009
   116  C    5.999973
   117  C    5.999467
   118  O    7.998870
   119  C    5.999803
   120  C    5.999907
   121  O    7.999889
   122  O    7.999919
   123  C    6.000115
   124  H    1.000389
   125  H    1.000149
   126  H    0.999580
   127  H    1.000083
   128  H    1.000051
   129  H    1.000434
   130  H    0.999928
   131  H    1.000108
   132  H    0.999641
   133  H    1.000206
   134  H    0.999801
   135  H    1.000016
   136  H    1.000609
   137  H    1.000530
   138  H    1.000659
   139  H    1.000490
   140  H    1.000264
   141  H    1.000284
   142  H    1.000105
   143  H    0.999969
   144  H    1.000159
   145  H    0.999847
   146  H    1.000382
   147  H    0.999976
   148  H    0.999645
   149  H    0.999991
   150  H    1.000084
   151  H    0.999861
   152  H    0.999451
   153  H    0.999605
   154  H    0.999526
   155  H    0.999726
   156  H    0.999979
   157  H    0.999838
   158  H    0.999706
 Sum of Mulliken charges = 624.00000

 Dipole moment (field-independent basis, Debye):
    X=             -7.8859    Y=             -7.6506    Z=              3.2836  Tot=             11.4675
 Quadrupole moment (field-independent basis, Debye-Ang):
   XX=           -269.7847   YY=              1.1943   ZZ=             -1.1701
   XY=           -139.0591   XZ=             62.1934   YZ=              1.0662

 Normal termination of Gaussian 16 at Wed Sep 22 13:47:28 2021.
