 Gaussian 16, Revision A.03,
 Gaussian 16:  ES64L-G16RevA.03 25-Dec-2016

 -----------------------------------
 #p cam-b3lyp/Def2SVP td=(nstates=5)
 -----------------------------------

 --------------------------------
 TDDFT excited states in gaussian
 --------------------------------
 Symbolic Z-matrix:
 Charge =  0 Multiplicity = 1

                         Standard orientation:
 ---------------------------------------------------------------------
 Center     Atomic      Atomic             Coordinates (Angstroms)
 Number     Number       Type             X           Y           Z
 ---------------------------------------------------------------------
      1         12           0       28.183122    0.563969    0.647009
      2          6           0       28.799618   -2.536587   -0.827649
      3          6           0       26.257545    1.411920   -1.931752
      4          6           0       28.755463    3.835362    1.456644
      5          6           0       30.248003   -0.350787    3.299509
      6          7           0       27.456257   -0.529237   -1.116226
      7          6           0       27.825032   -1.751072   -1.481345
      8          6           0       26.975091   -2.189117   -2.728528
      9          6           0       26.263243   -0.870922   -3.116289
     10          6           0       26.687251    0.092554   -2.011833
     11          6           0       26.774083   -0.234241   -4.502728
     12          6           0       25.933299   -3.368467   -2.461822
     13          6           0       25.897154   -4.354861   -3.578346
     14          1           0       24.561396   -4.738928   -4.195990
     15          7           0       27.560348    2.360686   -0.128330
     16          6           0       26.730863    2.509082   -1.208204
     17          6           0       26.253852    3.898557   -1.245054
     18          6           0       26.992867    4.596160   -0.249200
     19          6           0       27.857324    3.579949    0.373561
     20          6           0       25.235982    4.424346   -2.306904
     21          6           0       26.980999    6.118366    0.084791
     22          8           0       27.653321    6.633912    0.970820
     23          6           0       26.080474    6.994780   -0.700835
     24          7           0       29.318842    1.577639    2.086398
     25          6           0       29.478300    2.960171    2.220209
     26          6           0       30.589945    3.255824    3.260763
     27          6           0       30.536426    1.978180    4.208176
     28          6           0       29.982388    1.023690    3.112683
     29          6           0       31.957464    3.572205    2.618003
     30          6           0       29.616435    2.040118    5.394250
     31          6           0       28.138326    1.837938    5.239556
     32          7           0       29.157433   -1.135150    1.302258
     33          6           0       29.992543   -1.368465    2.370341
     34          6           0       30.497143   -2.743451    2.382234
     35          6           0       30.131085   -3.246221    1.053282
     36          6           0       29.325720   -2.199092    0.457299
     37          6           0       31.377270   -3.328366    3.363709
     38          6           0       30.253606   -4.355635    0.115464
     39          8           0       30.864178   -5.357552    0.147041
     40          6           0       29.306680   -3.952236   -1.131425
     41          6           0       29.949798   -4.130802   -2.483486
     42          8           0       30.562914   -3.261876   -3.096456
     43          8           0       29.646440   -5.408152   -2.953593
     44          6           0       30.155037   -5.783652   -4.285295
     45          1           0       25.469581    1.797874   -2.582389
     46          1           0       28.905096    4.900601    1.646611
     47          1           0       30.804543   -0.601762    4.204495
     48          1           0       27.602051   -2.466605   -3.576257
     49          1           0       25.181223   -0.923211   -3.236976
     50          1           0       26.118064   -0.618103   -5.284267
     51          1           0       27.776891   -0.529616   -4.810247
     52          1           0       26.659514    0.848206   -4.434484
     53          1           0       24.918942   -2.989694   -2.335382
     54          1           0       26.088010   -3.933391   -1.542460
     55          1           0       26.241458   -5.273278   -3.103667
     56          1           0       26.551010   -4.183745   -4.433043
     57          1           0       25.839642    4.772634   -3.144523
     58          1           0       24.573245    5.181976   -1.888027
     59          1           0       24.691229    3.636675   -2.828489
     60          1           0       25.955249    6.869901   -1.776278
     61          1           0       26.376769    8.035202   -0.569619
     62          1           0       25.125497    7.082038   -0.181872
     63          1           0       30.202189    4.117152    3.803936
     64          1           0       31.521629    1.696221    4.579199
     65          1           0       32.805425    2.976196    2.955455
     66          1           0       32.185285    4.637591    2.577309
     67          1           0       31.922767    3.355569    1.550458
     68          1           0       29.667784    2.974309    5.952185
     69          1           0       29.946406    1.283399    6.106151
     70          1           0       28.026883    0.778148    5.468045
     71          1           0       27.739077    1.986819    4.236054
     72          1           0       27.612823    2.462533    5.962655
     73          1           0       31.068403   -4.370020    3.453080
     74          1           0       31.188346   -2.817549    4.307563
     75          1           0       32.410749   -3.273479    3.023067
     76          1           0       28.442625   -4.615937   -1.099311
     77          1           0       31.227626   -5.587788   -4.281001
     78          1           0       29.713282   -5.157503   -5.060022
     79          1           0       30.007356   -6.799768   -4.651456
     80         12           0      -29.351168   -0.185930   -0.087015
     81          6           0      -25.953306    0.139521   -0.948445
     82          6           0      -28.368654   -2.749655    2.047416
     83          6           0      -32.445322   -0.300828    1.139596
     84          6           0      -29.901403    2.918392   -1.537469
     85          7           0      -27.312980   -1.044624    0.567039
     86          6           0      -26.059233   -0.872894    0.013397
     87          6           0      -25.048711   -1.950149    0.347162
     88          6           0      -25.833618   -2.891434    1.291693
     89          6           0      -27.245661   -2.221284    1.344245
     90          6           0      -25.888115   -4.399003    0.813340
     91          6           0      -23.690662   -1.466138    1.026557
     92          6           0      -23.740645   -0.226421    1.934416
     93          1           0      -23.682501   -0.437080    3.476434
     94          7           0      -30.254178   -1.345228    1.351143
     95          6           0      -29.710556   -2.373453    2.067353
     96          6           0      -30.750352   -3.025471    2.875856
     97          6           0      -31.965145   -2.318904    2.619431
     98          6           0      -31.567770   -1.244624    1.658402
     99          6           0      -30.492044   -4.233544    3.768383
    100          6           0      -33.263646   -2.711755    3.417982
    101          8           0      -33.172598   -3.592800    4.261500
    102          6           0      -34.615718   -1.914245    3.187933
    103          7           0      -30.869714    1.164771   -0.085369
    104          6           0      -32.147812    0.832066    0.357593
    105          6           0      -33.214617    2.004180   -0.030358
    106          6           0      -32.228397    3.066078   -0.762456
    107          6           0      -30.930791    2.324713   -0.796102
    108          6           0      -34.372768    1.486755   -0.933415
    109          6           0      -32.081852    4.470182   -0.033582
    110          6           0      -32.302401    5.756468   -0.844649
    111          7           0      -28.220008    1.228577   -1.172717
    112          6           0      -28.541372    2.452767   -1.700671
    113          6           0      -27.326312    3.035279   -2.308337
    114          6           0      -26.310621    2.060558   -2.116724
    115          6           0      -26.923527    1.012644   -1.374522
    116          6           0      -27.181537    4.377902   -2.969574
    117          6           0      -24.869184    1.827224   -2.325655
    118          8           0      -23.999993    2.440869   -2.961899
    119          6           0      -24.648835    0.446220   -1.726424
    120          6           0      -24.270045   -0.525455   -2.696254
    121          8           0      -25.110259   -1.070128   -3.458275
    122          8           0      -22.887912   -0.794691   -2.645558
    123          6           0      -22.365805   -1.884871   -3.463289
    124          1           0      -28.152527   -3.665885    2.600242
    125          1           0      -33.501666   -0.401783    1.395640
    126          1           0      -30.171139    3.859514   -2.020269
    127          1           0      -24.840916   -2.387648   -0.628586
    128          1           0      -25.419669   -2.718027    2.284351
    129          1           0      -25.293878   -5.014992    1.488221
    130          1           0      -25.474171   -4.407160   -0.195325
    131          1           0      -26.908673   -4.783172    0.822391
    132          1           0      -23.100541   -1.202368    0.147982
    133          1           0      -23.221858   -2.313252    1.527802
    134          1           0      -24.631884    0.366346    1.725784
    135          1           0      -22.926784    0.436788    1.644346
    136          1           0      -30.432051   -4.010223    4.833596
    137          1           0      -29.686348   -4.850231    3.369875
    138          1           0      -31.295690   -4.963325    3.671604
    139          1           0      -34.761200   -1.846858    2.109521
    140          1           0      -34.492930   -0.930409    3.640020
    141          1           0      -35.453755   -2.282225    3.779865
    142          1           0      -33.698254    2.285981    0.904468
    143          1           0      -32.584925    3.173217   -1.787162
    144          1           0      -34.091655    1.683820   -1.967730
    145          1           0      -35.343112    1.897637   -0.654414
    146          1           0      -34.576525    0.421133   -0.829674
    147          1           0      -31.099564    4.471937    0.439955
    148          1           0      -32.869440    4.402967    0.716933
    149          1           0      -31.850273    6.625418   -0.365729
    150          1           0      -33.389215    5.835452   -0.858441
    151          1           0      -31.844196    5.542563   -1.810483
    152          1           0      -27.959790    4.984107   -2.506746
    153          1           0      -27.476523    4.161600   -3.996347
    154          1           0      -26.171817    4.789507   -2.973356
    155          1           0      -23.841733    0.646313   -1.022035
    156          1           0      -22.426218   -1.773161   -4.545898
    157          1           0      -22.863444   -2.818558   -3.199571
    158          1           0      -21.356606   -2.082056   -3.101345
 ---------------------------------------------------------------------

 SCF Done:  E(RCAM-B3LYP) =  -4069.80958353     A.U. after   17 cycles

 Excitation energies and oscillator strengths:

 Excited State   1:      Singlet-A      1.6811 eV  737.52 nm  f=0.3766  <S**2>=0.000
     310 -> 316       -0.17703
     312 -> 313        0.68652
     310 <- 316       -0.10856
 This state for optimization and/or second-order correction.
 Total Energy, E(TD-HF/TD-DFT) =  -4069.74780441
 Copying the excited state density for this state as the 1-particle RhoCI density.

 Excited State   2:      Singlet-A      1.7180 eV  721.69 nm  f=0.3774  <S**2>=0.000
     309 -> 315       -0.18149
     311 -> 314        0.68505
     309 <- 315       -0.10791

 Excited State   3:      Singlet-A      2.2559 eV  549.59 nm  f=0.1050  <S**2>=0.000
     310 -> 313        0.63272
     312 -> 316        0.30597

 Excited State   4:      Singlet-A      2.3104 eV  536.64 nm  f=0.0714  <S**2>=0.000
     309 -> 314        0.61633
     311 -> 315        0.33582

 Excited State   5:      Singlet-A      3.2058 eV  386.75 nm  f=0.0000  <S**2>=0.000
     311 -> 313        0.70711

 The electronic state is 1-A.
 Alpha  occ. eigenvalues --  -46.88946 -46.87919 -19.25814 -19.25019 -19.20257
 Alpha  occ. eigenvalues --  -19.20099 -19.19686 -19.19633 -19.19213 -19.19182
 Alpha  occ. eigenvalues --  -14.42657 -14.42193 -14.42101 -14.41423 -14.39977
 Alpha  occ. eigenvalues --  -14.39334 -14.39283 -14.39225 -10.40044 -10.39691
 Alpha  occ. eigenvalues --  -10.36512 -10.35647 -10.35521 -10.35371 -10.32138
 Alpha  occ. eigenvalues --  -10.31898 -10.31799 -10.31368 -10.31332 -10.30955
 Alpha  occ. eigenvalues --  -10.30657 -10.30605 -10.30591 -10.30586 -10.30107
 Alpha  occ. eigenvalues --  -10.30002 -10.29884 -10.29859 -10.29749 -10.29475
 Alpha  occ. eigenvalues --  -10.29387 -10.29317 -10.29021 -10.28780 -10.28663
 Alpha  occ. eigenvalues --  -10.28485 -10.28389 -10.28379 -10.28326 -10.28325
 Alpha  occ. eigenvalues --  -10.28324 -10.28297 -10.28290 -10.28217 -10.28051
 Alpha  occ. eigenvalues --  -10.27908 -10.27781 -10.27761 -10.27666 -10.27560
 Alpha  occ. eigenvalues --  -10.27537 -10.27488 -10.27411 -10.27173 -10.27157
 Alpha  occ. eigenvalues --  -10.27079 -10.26889 -10.26816 -10.26750 -10.26703
 Alpha  occ. eigenvalues --  -10.26678 -10.26602 -10.26588 -10.26121 -10.26085
 Alpha  occ. eigenvalues --  -10.26073 -10.26052 -10.25930 -10.25879 -10.25811
 Alpha  occ. eigenvalues --  -10.25567 -10.25538 -10.25476 -10.25375 -10.25193
 Alpha  occ. eigenvalues --  -10.24549  -3.17572  -3.16621  -1.92430  -1.92043
 Alpha  occ. eigenvalues --   -1.91876  -1.91525  -1.91053  -1.90949  -1.15154
 Alpha  occ. eigenvalues --   -1.14993  -1.12944  -1.10433  -1.10159  -1.09076
 Alpha  occ. eigenvalues --   -1.07451  -1.07043  -1.05180  -1.04166  -1.03578
 Alpha  occ. eigenvalues --   -1.03566  -1.02869  -1.02632  -1.02136  -1.01899
 Alpha  occ. eigenvalues --   -0.93154  -0.91869  -0.89183  -0.89031  -0.88868
 Alpha  occ. eigenvalues --   -0.88632  -0.88068  -0.88019  -0.87182  -0.86898
 Alpha  occ. eigenvalues --   -0.86826  -0.86305  -0.86100  -0.85580  -0.84544
 Alpha  occ. eigenvalues --   -0.84178  -0.83933  -0.83595  -0.82820  -0.82541
 Alpha  occ. eigenvalues --   -0.81865  -0.81681  -0.81028  -0.80998  -0.80364
 Alpha  occ. eigenvalues --   -0.80102  -0.78244  -0.78188  -0.77270  -0.77237
 Alpha  occ. eigenvalues --   -0.76790  -0.76732  -0.76540  -0.75848  -0.74922
 Alpha  occ. eigenvalues --   -0.74863  -0.72352  -0.72246  -0.71769  -0.71468
 Alpha  occ. eigenvalues --   -0.69314  -0.69226  -0.68929  -0.68496  -0.68452
 Alpha  occ. eigenvalues --   -0.67751  -0.66830  -0.66757  -0.65798  -0.65706
 Alpha  occ. eigenvalues --   -0.65207  -0.64614  -0.64598  -0.64237  -0.64220
 Alpha  occ. eigenvalues --   -0.64097  -0.62461  -0.61802  -0.60251  -0.60147
 Alpha  occ. eigenvalues --   -0.59643  -0.59593  -0.59084  -0.58874  -0.58672
 Alpha  occ. eigenvalues --   -0.58102  -0.57766  -0.57759  -0.57231  -0.57203
 Alpha  occ. eigenvalues --   -0.56162  -0.55805  -0.55624  -0.55524  -0.55347
 Alpha  occ. eigenvalues --   -0.54967  -0.54836  -0.54451  -0.54211  -0.54097
 Alpha  occ. eigenvalues --   -0.53784  -0.53567  -0.53378  -0.53103  -0.52965
 Alpha  occ. eigenvalues --   -0.52633  -0.52511  -0.52361  -0.52166  -0.52144
 Alpha  occ. eigenvalues --   -0.51773  -0.51622  -0.51583  -0.51381  -0.51237
 Alpha  occ. eigenvalues --   -0.51205  -0.50965  -0.50727  -0.50405  -0.50319
 Alpha  occ. eigenvalues --   -0.50175  -0.50070  -0.49998  -0.49616  -0.49523
 Alpha  occ. eigenvalues --   -0.49377  -0.49371  -0.49275  -0.49147  -0.48983
 Alpha  occ. eigenvalues --   -0.48605  -0.48591  -0.48365  -0.48315  -0.48155
 Alpha  occ. eigenvalues --   -0.47989  -0.47799  -0.47384  -0.47218  -0.46962
 Alpha  occ. eigenvalues --   -0.46792  -0.46630  -0.46593  -0.46465  -0.46278
 Alpha  occ. eigenvalues --   -0.46256  -0.46178  -0.46096  -0.45787  -0.45747
 Alpha  occ. eigenvalues --   -0.45504  -0.45399  -0.45195  -0.44985  -0.44950
 Alpha  occ. eigenvalues --   -0.44807  -0.44634  -0.44628  -0.44573  -0.44388
 Alpha  occ. eigenvalues --   -0.44198  -0.44165  -0.43940  -0.43728  -0.43324
 Alpha  occ. eigenvalues --   -0.43249  -0.43245  -0.43050  -0.42945  -0.42801
 Alpha  occ. eigenvalues --   -0.42692  -0.42663  -0.42409  -0.42277  -0.42113
 Alpha  occ. eigenvalues --   -0.41881  -0.41578  -0.41574  -0.41528  -0.41365
 Alpha  occ. eigenvalues --   -0.41185  -0.41079  -0.40622  -0.40498  -0.40289
 Alpha  occ. eigenvalues --   -0.40234  -0.39872  -0.39712  -0.39131  -0.38921
 Alpha  occ. eigenvalues --   -0.38662  -0.38066  -0.37678  -0.37660  -0.37527
 Alpha  occ. eigenvalues --   -0.37094  -0.37027  -0.36977  -0.36643  -0.36587
 Alpha  occ. eigenvalues --   -0.36531  -0.35911  -0.34771  -0.34462  -0.34426
 Alpha  occ. eigenvalues --   -0.34283  -0.33212  -0.32807  -0.31426  -0.31407
 Alpha  occ. eigenvalues --   -0.31220  -0.31216  -0.31013  -0.30993  -0.30277
 Alpha  occ. eigenvalues --   -0.30024  -0.29616  -0.29556  -0.24155  -0.23984
 Alpha  occ. eigenvalues --   -0.20843  -0.20779
 Alpha virt. eigenvalues --   -0.08464  -0.08198  -0.01819  -0.01380   0.00264
 Alpha virt. eigenvalues --    0.00402   0.01639   0.02040   0.02419   0.02791
 Alpha virt. eigenvalues --    0.03423   0.04565   0.05020   0.05208   0.05582

 Mulliken charges:
               1
     1  Mg   0.845291
     2  C    0.027409
     3  C   -0.076828
     4  C   -0.074850
     5  C   -0.103121
     6  N   -0.243947
     7  C   -0.032140
     8  C    0.000715
     9  C   -0.076731
    10  C    0.082378
    11  C    0.038844
    12  C    0.070159
    13  C   -0.093392
    14  H    0.009700
    15  N   -0.370802
    16  C    0.094368
    17  C   -0.139763
    18  C   -0.061971
    19  C    0.101659
    20  C    0.093654
    21  C    0.039029
    22  O   -0.200703
    23  C    0.041870
    24  N   -0.293926
    25  C    0.034433
    26  C    0.001873
    27  C   -0.010289
    28  C    0.025401
    29  C    0.092680
    30  C    0.017562
    31  C    0.022129
    32  N   -0.363034
    33  C    0.153948
    34  C   -0.162532
    35  C   -0.039993
    36  C    0.088716
    37  C    0.123000
    38  C    0.056375
    39  O   -0.102378
    40  C   -0.071450
    41  C    0.218761
    42  O   -0.220136
    43  O   -0.352124
    44  C    0.187111
    45  H   -0.036727
    46  H   -0.006451
    47  H   -0.034619
    48  H    0.020343
    49  H    0.017634
    50  H    0.008624
    51  H    0.029593
    52  H    0.017110
    53  H    0.013830
    54  H    0.012990
    55  H    0.031508
    56  H    0.030125
    57  H    0.034928
    58  H    0.042260
    59  H    0.009182
    60  H    0.038128
    61  H    0.012070
    62  H    0.038791
    63  H   -0.003742
    64  H   -0.003991
    65  H    0.017238
    66  H    0.021808
    67  H    0.010551
    68  H    0.001287
    69  H   -0.002071
    70  H    0.005374
    71  H    0.031874
    72  H    0.016194
    73  H    0.033345
    74  H    0.015304
    75  H    0.051209
    76  H    0.046724
    77  H    0.036671
    78  H    0.023055
    79  H    0.042895
    80  Mg   0.851617
    81  C   -0.100146
    82  C   -0.078308
    83  C   -0.099233
    84  C   -0.088954
    85  N   -0.279385
    86  C   -0.081210
    87  C   -0.019321
    88  C   -0.002823
    89  C   -0.000097
    90  C    0.073892
    91  C    0.027094
    92  C   -0.064895
    93  H    0.020881
    94  N   -0.362123
    95  C    0.140212
    96  C   -0.140669
    97  C   -0.078371
    98  C    0.187267
    99  C    0.142626
   100  C    0.026523
   101  O   -0.197125
   102  C    0.035341
   103  N   -0.347420
   104  C    0.055854
   105  C   -0.054214
   106  C   -0.028392
   107  C    0.061102
   108  C    0.055232
   109  C    0.021392
   110  C    0.018571
   111  N   -0.317878
   112  C    0.107203
   113  C   -0.195288
   114  C   -0.057899
   115  C    0.233653
   116  C    0.136017
   117  C    0.071821
   118  O   -0.182101
   119  C    0.008141
   120  C    0.252095
   121  O   -0.249960
   122  O   -0.351341
   123  C    0.193054
   124  H   -0.033195
   125  H   -0.057969
   126  H   -0.041235
   127  H    0.023634
   128  H    0.018845
   129  H    0.021273
   130  H    0.018755
   131  H    0.026166
   132  H    0.015697
   133  H    0.022971
   134  H    0.041910
   135  H    0.033110
   136  H    0.040410
   137  H    0.001800
   138  H    0.020852
   139  H    0.054665
   140  H    0.038701
   141  H    0.026088
   142  H    0.018369
   143  H    0.011710
   144  H    0.016647
   145  H    0.016014
   146  H    0.011109
   147  H    0.024238
   148  H    0.000212
   149  H    0.028355
   150  H    0.019653
   151  H    0.018973
   152  H    0.013668
   153  H    0.031448
   154  H    0.042847
   155  H    0.030551
   156  H    0.050920
   157  H    0.016632
   158  H    0.033745
 Sum of Mulliken charges =  -0.00000

 Dipole moment (field-independent basis, Debye):
    X=             -5.6565    Y=              0.0225    Z=             -0.4201  Tot=              5.6721
 Quadrupole moment (field-independent basis, Debye-Ang):
   XX=           -546.6435   YY=           -523.1859   ZZ=           -509.3351
   XY=              3.2833   XZ=              3.9714   YZ=             11.7178

 Normal termination of Gaussian 16 at Wed Sep  1 00:43:53 2021.
