 Gaussian 16, Revision A.03,
 Gaussian 16:  ES64L-G16RevA.03 25-Dec-2016

 ----------------------------------------------------------
 #p cam-b3lyp/Def2SVP td=(nstates=5) density=(transition=1)
 ----------------------------------------------------------

 --------------------------------
 TDDFT excited states in gaussian
 --------------------------------
 Symbolic Z-matrix:
 Charge =  0 Multiplicity = 1

                         Standard orientation:
 ---------------------------------------------------------------------
 Center     Atomic      Atomic             Coordinates (Angstroms)
 Number     Number       Type             X           Y           Z
 ---------------------------------------------------------------------
      1         12           0      -24.848517    0.620175    0.145743
      2          6           0      -21.967358   -1.329269    0.508416
      3          6           0      -26.616212   -2.363647    0.045463
      4          6           0      -27.468972    2.386619   -0.618558
      5          6           0      -22.777562    3.491746    0.051376
      6          7           0      -24.291780   -1.655728   -0.139161
      7          6           0      -23.101387   -2.156094    0.207278
      8          6           0      -23.221381   -3.643352    0.225020
      9          6           0      -24.622829   -3.941464   -0.362042
     10          6           0      -25.259263   -2.586549   -0.123372
     11          6           0      -24.756577   -4.426714   -1.806551
     12          6           0      -23.059307   -4.224729    1.665365
     13          6           0      -22.076256   -5.417832    1.894929
     14          1           0      -21.829485   -6.434081    0.736593
     15          7           0      -26.848426    0.084987   -0.094450
     16          6           0      -27.360647   -1.191383    0.097052
     17          6           0      -28.778098   -1.081631   -0.022814
     18          6           0      -29.071315    0.301866   -0.353728
     19          6           0      -27.800257    1.010542   -0.362447
     20          6           0      -29.760015   -2.271312    0.051995
     21          6           0      -30.427202    0.974152   -0.714459
     22          8           0      -30.556554    2.124270   -0.991785
     23          6           0      -31.651621    0.083863   -0.633409
     24          7           0      -25.050151    2.640700   -0.208577
     25          6           0      -26.256100    3.127511   -0.577471
     26          6           0      -26.266094    4.659883   -0.833030
     27          6           0      -24.799164    5.026455   -0.344499
     28          6           0      -24.147614    3.667182   -0.119331
     29          6           0      -26.602657    4.981132   -2.401519
     30          6           0      -24.767197    6.032689    0.848512
     31          6           0      -24.592981    5.469690    2.247665
     32          7           0      -22.777251    1.085232    0.290709
     33          6           0      -22.113338    2.281747    0.324257
     34          6           0      -20.650425    1.999207    0.537280
     35          6           0      -20.572379    0.590224    0.613994
     36          6           0      -21.885083    0.046504    0.418573
     37          6           0      -19.505652    2.973943    0.480870
     38          6           0      -19.666672   -0.542628    0.788359
     39          8           0      -18.442340   -0.518996    0.943368
     40          6           0      -20.562068   -1.774234    0.885673
     41          6           0      -19.988397   -2.771112   -0.080145
     42          8           0      -20.138754   -2.744376   -1.287907
     43          8           0      -19.162947   -3.524429    0.627793
     44          6           0      -18.160080   -4.301816   -0.083163
     45          1           0      -27.158004   -3.294833   -0.130241
     46          1           0      -28.357133    3.016871   -0.694608
     47          1           0      -22.141654    4.379720    0.037227
     48          1           0      -22.427832   -4.062838   -0.392561
     49          1           0      -25.029295   -4.758213    0.234595
     50          1           0      -23.826401   -4.584857   -2.352610
     51          1           0      -25.363915   -3.728902   -2.383683
     52          1           0      -25.288414   -5.376528   -1.755428
     53          1           0      -24.007262   -4.460043    2.148762
     54          1           0      -22.678457   -3.334632    2.165954
     55          1           0      -22.523232   -5.953486    2.733369
     56          1           0      -21.108802   -5.016551    2.195688
     57          1           0      -30.427856   -2.333389   -0.807267
     58          1           0      -30.469131   -2.171555    0.873909
     59          1           0      -29.282889   -3.243481    0.182720
     60          1           0      -31.726421   -0.447091    0.315812
     61          1           0      -31.635121   -0.587785   -1.491822
     62          1           0      -32.553083    0.660161   -0.841527
     63          1           0      -27.012548    5.179231   -0.232293
     64          1           0      -24.220352    5.562235   -1.096707
     65          1           0      -25.654449    5.325861   -2.814247
     66          1           0      -27.260463    5.839813   -2.537721
     67          1           0      -26.875571    4.102598   -2.987244
     68          1           0      -25.774638    6.448837    0.861914
     69          1           0      -24.062473    6.848429    0.688461
     70          1           0      -25.255958    4.603837    2.266278
     71          1           0      -24.939895    6.305201    2.855223
     72          1           0      -23.636044    5.060379    2.570431
     73          1           0      -19.709742    4.004587    0.190501
     74          1           0      -18.763913    2.612943   -0.231733
     75          1           0      -19.028760    2.904728    1.458056
     76          1           0      -20.494022   -2.315430    1.829582
     77          1           0      -18.037588   -4.182287   -1.159168
     78          1           0      -18.521085   -5.322995    0.042990
     79          1           0      -17.300303   -4.427828    0.574983
     80         12           0       24.948683   -0.038036    0.003040
     81          6           0       21.590524   -1.014228   -0.436171
     82          6           0       25.051106    0.554837   -3.295847
     83          6           0       27.862007    1.312177    0.611383
     84          6           0       24.271169   -0.093326    3.511371
     85          7           0       23.451852   -0.176750   -1.652106
     86          6           0       22.186888   -0.660066   -1.655747
     87          6           0       21.555838   -0.703166   -3.032670
     88          6           0       22.832689   -0.442691   -3.928625
     89          6           0       23.876350    0.027707   -2.936796
     90          6           0       23.331593   -1.695740   -4.760071
     91          6           0       20.347810    0.251780   -3.432211
     92          6           0       19.982398    1.497317   -2.581786
     93          1           0       19.416655    2.761508   -3.330467
     94          7           0       26.328026    0.703088   -1.267229
     95          6           0       26.167924    0.970698   -2.556325
     96          6           0       27.374280    1.686669   -3.053573
     97          6           0       28.295807    1.757502   -1.884417
     98          6           0       27.485121    1.253543   -0.775480
     99          6           0       27.616541    2.026593   -4.499483
    100          6           0       29.677053    2.358495   -1.887145
    101          8           0       30.140183    2.766167   -2.949512
    102          6           0       30.580348    2.575888   -0.617526
    103          7           0       25.936065    0.659536    1.869476
    104          6           0       27.171469    0.999967    1.739061
    105          6           0       27.774996    1.173442    3.203573
    106          6           0       26.523268    0.953390    4.055587
    107          6           0       25.464018    0.481073    3.078432
    108          6           0       28.971699    0.306104    3.628305
    109          6           0       25.930201    2.311625    4.699155
    110          6           0       26.002768    2.433149    6.232328
    111          7           0       23.315107   -0.386035    1.316285
    112          6           0       23.212821   -0.495312    2.677946
    113          6           0       21.926965   -1.136453    3.056846
    114          6           0       21.173115   -1.252734    1.854811
    115          6           0       22.146867   -0.873250    0.832692
    116          6           0       21.402966   -1.404232    4.485425
    117          6           0       19.940045   -1.614444    1.239238
    118          8           0       18.809078   -1.903943    1.665877
    119          6           0       20.175004   -1.550519   -0.291426
    120          6           0       19.897093   -2.952739   -0.840844
    121          8           0       18.987504   -3.413987   -1.477652
    122          8           0       21.056890   -3.714921   -0.663453
    123          6           0       21.070849   -5.099105   -1.230632
    124          1           0       25.053128    0.746535   -4.371060
    125          1           0       28.859089    1.733953    0.759502
    126          1           0       24.180043   -0.348491    4.568877
    127          1           0       21.267706   -1.745458   -3.168247
    128          1           0       22.603038    0.327758   -4.664820
    129          1           0       22.731789   -2.576751   -4.534175
    130          1           0       24.297951   -1.890029   -4.296058
    131          1           0       23.363826   -1.443414   -5.820133
    132          1           0       19.463365   -0.380585   -3.510578
    133          1           0       20.503437    0.606066   -4.451776
    134          1           0       20.903390    1.784643   -2.074470
    135          1           0       19.137932    1.340377   -1.911411
    136          1           0       28.650392    2.299413   -4.710152
    137          1           0       26.859975    2.763950   -4.770443
    138          1           0       27.295756    1.129467   -5.030002
    139          1           0       30.793875    1.756022    0.069314
    140          1           0       30.080342    3.296019    0.030175
    141          1           0       31.571043    2.946851   -0.878648
    142          1           0       28.185576    2.172095    3.348757
    143          1           0       26.580134    0.279466    4.911103
    144          1           0       29.304221   -0.349122    2.823032
    145          1           0       28.757330   -0.260657    4.534976
    146          1           0       29.865944    0.884197    3.861205
    147          1           0       24.874129    2.440567    4.466101
    148          1           0       26.488211    3.121929    4.229474
    149          1           0       25.187192    2.986098    6.699017
    150          1           0       26.907335    3.008713    6.428566
    151          1           0       26.009477    1.394770    6.563949
    152          1           0       21.951879   -0.900711    5.280531
    153          1           0       21.515686   -2.481149    4.608072
    154          1           0       20.333048   -1.197814    4.497972
    155          1           0       19.476997   -0.840536   -0.733828
    156          1           0       20.130572   -5.646472   -1.292995
    157          1           0       21.676533   -5.652676   -0.513380
    158          1           0       21.570025   -5.265155   -2.185497
 ---------------------------------------------------------------------

 SCF Done:  E(RCAM-B3LYP) =  -4069.79190040     A.U. after   18 cycles

 Excitation energies and oscillator strengths:

 Excited State   1:      Singlet-A      1.7293 eV  716.95 nm  f=0.4058  <S**2>=0.000
     310 -> 316        0.18716
     312 -> 314        0.68370
     310 <- 316        0.10974
 This state for optimization and/or second-order correction.
 Total Energy, E(TD-HF/TD-DFT) =  -4069.72834900
 Copying the excited state density for this state as the 1-particle RhoCI density.

 Excited State   2:      Singlet-A      1.7690 eV  700.87 nm  f=0.4032  <S**2>=0.000
     309 -> 315       -0.18507
     311 -> 313        0.68374
     309 <- 315       -0.10632

 Excited State   3:      Singlet-A      2.2139 eV  560.02 nm  f=0.1005  <S**2>=0.000
     310 -> 314        0.64249
     312 -> 316       -0.28232

 Excited State   4:      Singlet-A      2.2834 eV  542.99 nm  f=0.0989  <S**2>=0.000
     309 -> 313        0.63711
     311 -> 315        0.29627

 Excited State   5:      Singlet-A      3.1099 eV  398.68 nm  f=0.0000  <S**2>=0.000
     312 -> 313        0.70710

 The electronic state is 1-A.
 Alpha  occ. eigenvalues --  -46.90078 -46.88776 -19.26239 -19.24607 -19.20424
 Alpha  occ. eigenvalues --  -19.19625 -19.19475 -19.19396 -19.18610 -19.18609
 Alpha  occ. eigenvalues --  -14.42325 -14.41850 -14.41767 -14.41581 -14.40446
 Alpha  occ. eigenvalues --  -14.40174 -14.39298 -14.38723 -10.39888 -10.39134
 Alpha  occ. eigenvalues --  -10.35699 -10.35616 -10.35447 -10.34481 -10.32034
 Alpha  occ. eigenvalues --  -10.31876 -10.31532 -10.31249 -10.31133 -10.31056
 Alpha  occ. eigenvalues --  -10.31037 -10.30781 -10.30774 -10.30739 -10.30624
 Alpha  occ. eigenvalues --  -10.30185 -10.30118 -10.30110 -10.29876 -10.29721
 Alpha  occ. eigenvalues --  -10.29545 -10.29466 -10.29413 -10.29366 -10.29241
 Alpha  occ. eigenvalues --  -10.28978 -10.28961 -10.28806 -10.28764 -10.28360
 Alpha  occ. eigenvalues --  -10.28263 -10.28190 -10.28036 -10.28028 -10.27920
 Alpha  occ. eigenvalues --  -10.27831 -10.27634 -10.27572 -10.27547 -10.27383
 Alpha  occ. eigenvalues --  -10.27256 -10.27193 -10.27130 -10.27106 -10.27099
 Alpha  occ. eigenvalues --  -10.26996 -10.26845 -10.26679 -10.26672 -10.26594
 Alpha  occ. eigenvalues --  -10.26589 -10.26579 -10.26471 -10.26389 -10.26353
 Alpha  occ. eigenvalues --  -10.26326 -10.26289 -10.26188 -10.25932 -10.25889
 Alpha  occ. eigenvalues --  -10.25799 -10.25778 -10.25389 -10.25370 -10.25196
 Alpha  occ. eigenvalues --  -10.25061  -3.18556  -3.17232  -1.93445  -1.93011
 Alpha  occ. eigenvalues --   -1.92860  -1.92140  -1.91723  -1.91493  -1.18316
 Alpha  occ. eigenvalues --   -1.16067  -1.11352  -1.09594  -1.09580  -1.09338
 Alpha  occ. eigenvalues --   -1.08652  -1.07288  -1.06756  -1.05001  -1.04835
 Alpha  occ. eigenvalues --   -1.04022  -1.03761  -1.03314  -1.02586  -1.01847
 Alpha  occ. eigenvalues --   -0.93595  -0.93337  -0.89818  -0.88835  -0.88705
 Alpha  occ. eigenvalues --   -0.88625  -0.88601  -0.88312  -0.88008  -0.87082
 Alpha  occ. eigenvalues --   -0.86914  -0.86220  -0.85519  -0.85422  -0.84902
 Alpha  occ. eigenvalues --   -0.84426  -0.83969  -0.83713  -0.82913  -0.82603
 Alpha  occ. eigenvalues --   -0.81805  -0.81396  -0.80820  -0.80770  -0.80557
 Alpha  occ. eigenvalues --   -0.80009  -0.78530  -0.77894  -0.77722  -0.77325
 Alpha  occ. eigenvalues --   -0.77040  -0.76992  -0.76702  -0.76293  -0.75382
 Alpha  occ. eigenvalues --   -0.75101  -0.73331  -0.72661  -0.72409  -0.71694
 Alpha  occ. eigenvalues --   -0.69578  -0.69513  -0.69279  -0.68878  -0.68704
 Alpha  occ. eigenvalues --   -0.68027  -0.67539  -0.66869  -0.66086  -0.65708
 Alpha  occ. eigenvalues --   -0.65525  -0.65251  -0.64953  -0.64887  -0.64633
 Alpha  occ. eigenvalues --   -0.64324  -0.63175  -0.62791  -0.60615  -0.60213
 Alpha  occ. eigenvalues --   -0.59836  -0.59642  -0.59477  -0.59190  -0.58565
 Alpha  occ. eigenvalues --   -0.58446  -0.58100  -0.58084  -0.57323  -0.57293
 Alpha  occ. eigenvalues --   -0.56850  -0.56383  -0.55989  -0.55887  -0.55707
 Alpha  occ. eigenvalues --   -0.55085  -0.54944  -0.54777  -0.54660  -0.54542
 Alpha  occ. eigenvalues --   -0.53960  -0.53623  -0.53576  -0.53241  -0.53022
 Alpha  occ. eigenvalues --   -0.52922  -0.52837  -0.52505  -0.52031  -0.52011
 Alpha  occ. eigenvalues --   -0.51779  -0.51684  -0.51548  -0.51326  -0.51259
 Alpha  occ. eigenvalues --   -0.51222  -0.51123  -0.51027  -0.50630  -0.50114
 Alpha  occ. eigenvalues --   -0.50028  -0.49812  -0.49665  -0.49500  -0.49387
 Alpha  occ. eigenvalues --   -0.49184  -0.49040  -0.48888  -0.48830  -0.48653
 Alpha  occ. eigenvalues --   -0.48567  -0.48527  -0.48354  -0.48304  -0.48100
 Alpha  occ. eigenvalues --   -0.47949  -0.47912  -0.47645  -0.47447  -0.47286
 Alpha  occ. eigenvalues --   -0.47248  -0.46946  -0.46879  -0.46658  -0.46391
 Alpha  occ. eigenvalues --   -0.46290  -0.46099  -0.46001  -0.45913  -0.45885
 Alpha  occ. eigenvalues --   -0.45850  -0.45639  -0.45574  -0.45540  -0.45371
 Alpha  occ. eigenvalues --   -0.45337  -0.44986  -0.44882  -0.44807  -0.44435
 Alpha  occ. eigenvalues --   -0.44221  -0.43930  -0.43736  -0.43592  -0.43314
 Alpha  occ. eigenvalues --   -0.43306  -0.43241  -0.43136  -0.43045  -0.42928
 Alpha  occ. eigenvalues --   -0.42696  -0.42690  -0.42265  -0.42149  -0.42085
 Alpha  occ. eigenvalues --   -0.42023  -0.41738  -0.41634  -0.41477  -0.41260
 Alpha  occ. eigenvalues --   -0.41186  -0.40986  -0.40934  -0.40707  -0.40696
 Alpha  occ. eigenvalues --   -0.40261  -0.39981  -0.39601  -0.39276  -0.39248
 Alpha  occ. eigenvalues --   -0.38864  -0.38376  -0.38220  -0.37670  -0.37138
 Alpha  occ. eigenvalues --   -0.37088  -0.36906  -0.36699  -0.36674  -0.36374
 Alpha  occ. eigenvalues --   -0.36331  -0.36198  -0.35024  -0.34378  -0.34276
 Alpha  occ. eigenvalues --   -0.34043  -0.33657  -0.33134  -0.31921  -0.31424
 Alpha  occ. eigenvalues --   -0.31387  -0.31058  -0.30976  -0.30761  -0.30364
 Alpha  occ. eigenvalues --   -0.29903  -0.29281  -0.28933  -0.24503  -0.23772
 Alpha  occ. eigenvalues --   -0.21543  -0.21053
 Alpha virt. eigenvalues --   -0.08923  -0.08465  -0.02042  -0.01498  -0.00628
 Alpha virt. eigenvalues --    0.00215   0.01177   0.01858   0.02838   0.02895
 Alpha virt. eigenvalues --    0.04296   0.04959   0.05088   0.05430   0.05625

 Mulliken charges:
               1
     1  Mg  12.002433
     2  C    6.014071
     3  C    5.977790
     4  C    5.984210
     5  C    6.026592
     6  N    6.996483
     7  C    5.969874
     8  C    6.005378
     9  C    5.989796
    10  C    6.040130
    11  C    5.999360
    12  C    6.001779
    13  C    6.001622
    14  H    0.994547
    15  N    6.988318
    16  C    6.050045
    17  C    6.013957
    18  C    6.018759
    19  C    6.033817
    20  C    5.995621
    21  C    6.014697
    22  O    8.026351
    23  C    5.993070
    24  N    7.005915
    25  C    6.032966
    26  C    5.989559
    27  C    6.011656
    28  C    5.961630
    29  C    5.993174
    30  C    6.001507
    31  C    6.008145
    32  N    7.007191
    33  C    5.952367
    34  C    5.971393
    35  C    5.995836
    36  C    5.965657
    37  C    6.004092
    38  C    5.983295
    39  O    7.970564
    40  C    6.002344
    41  C    5.994590
    42  O    7.993152
    43  O    7.999546
    44  C    6.005127
    45  H    1.009626
    46  H    1.006604
    47  H    0.994352
    48  H    0.998221
    49  H    1.002445
    50  H    1.013916
    51  H    0.995176
    52  H    1.002143
    53  H    0.985317
    54  H    1.007238
    55  H    0.995292
    56  H    1.005083
    57  H    1.018011
    58  H    1.019286
    59  H    1.019401
    60  H    1.006411
    61  H    1.008639
    62  H    1.015885
    63  H    1.000899
    64  H    0.998230
    65  H    1.012911
    66  H    1.003914
    67  H    0.996419
    68  H    0.988618
    69  H    0.999534
    70  H    0.989168
    71  H    0.994476
    72  H    1.007764
    73  H    0.979251
    74  H    0.981445
    75  H    0.981154
    76  H    0.989441
    77  H    0.996290
    78  H    0.992699
    79  H    0.996335
    80  Mg  11.999930
    81  C    5.999716
    82  C    6.000289
    83  C    6.000361
    84  C    5.999734
    85  N    7.000015
    86  C    6.000469
    87  C    5.999838
    88  C    6.000121
    89  C    5.999660
    90  C    6.000024
    91  C    6.000023
    92  C    5.999832
    93  H    1.000206
    94  N    7.000108
    95  C    5.999443
    96  C    5.999581
    97  C    5.999963
    98  C    5.999393
    99  C    6.000066
   100  C    5.999856
   101  O    7.999738
   102  C    6.000049
   103  N    6.999941
   104  C    5.999634
   105  C    6.000111
   106  C    5.999942
   107  C    6.000386
   108  C    6.000025
   109  C    5.999901
   110  C    6.000009
   111  N    6.999980
   112  C    6.000473
   113  C    6.000345
   114  C    6.000143
   115  C    6.000358
   116  C    5.999951
   117  C    6.000242
   118  O    8.000495
   119  C    5.999987
   120  C    6.000033
   121  O    8.000166
   122  O    7.999943
   123  C    5.999952
   124  H    0.999877
   125  H    0.999830
   126  H    1.000068
   127  H    1.000036
   128  H    0.999986
   129  H    0.999842
   130  H    1.000028
   131  H    0.999966
   132  H    1.000031
   133  H    1.000118
   134  H    1.000010
   135  H    1.000005
   136  H    0.999752
   137  H    0.999722
   138  H    0.999710
   139  H    0.999843
   140  H    0.999880
   141  H    0.999797
   142  H    0.999970
   143  H    0.999974
   144  H    1.000021
   145  H    0.999852
   146  H    0.999955
   147  H    0.999989
   148  H    1.000161
   149  H    1.000026
   150  H    1.000039
   151  H    0.999982
   152  H    1.000242
   153  H    1.000237
   154  H    1.000252
   155  H    1.000186
   156  H    1.000083
   157  H    1.000004
   158  H    1.000095
 Sum of Mulliken charges = 624.00000

 Dipole moment (field-independent basis, Debye):
    X=            -10.9122    Y=             -1.7567    Z=             -1.2678  Tot=             11.1251
 Quadrupole moment (field-independent basis, Debye-Ang):
   XX=            528.4706   YY=             -4.2357   ZZ=             -0.0558
   XY=             38.5776   XZ=             33.9311   YZ=             -1.4236

 Normal termination of Gaussian 16 at Thu Sep 23 14:55:12 2021.
