 Gaussian 16, Revision A.03,
 Gaussian 16:  ES64L-G16RevA.03 25-Dec-2016

 -----------------------------------
 #p cam-b3lyp/Def2SVP td=(nstates=5)
 -----------------------------------

 --------------------------------
 TDDFT excited states in gaussian
 --------------------------------
 Symbolic Z-matrix:
 Charge =  0 Multiplicity = 1

                         Standard orientation:
 ---------------------------------------------------------------------
 Center     Atomic      Atomic             Coordinates (Angstroms)
 Number     Number       Type             X           Y           Z
 ---------------------------------------------------------------------
      1         12           0      -20.038269   -0.425453   -0.046817
      2          6           0      -19.374907    2.745111   -1.028752
      3          6           0      -19.378431    0.456609    3.247318
      4          6           0      -20.695798   -3.598272    0.934173
      5          6           0      -20.214232   -1.416054   -3.359035
      6          7           0      -19.568903    1.390786    0.909493
      7          6           0      -19.299907    2.593610    0.341829
      8          6           0      -19.161187    3.693314    1.362029
      9          6           0      -18.889958    2.908127    2.701218
     10          6           0      -19.341284    1.477109    2.260479
     11          6           0      -17.467627    2.980318    3.398731
     12          6           0      -20.499394    4.551100    1.493034
     13          6           0      -20.237101    5.985815    2.038591
     14          1           0      -19.038010    6.302401    2.948040
     15          7           0      -19.971785   -1.502772    1.830240
     16          6           0      -19.676248   -0.900231    3.081159
     17          6           0      -19.777989   -1.881970    4.118528
     18          6           0      -20.152842   -3.108246    3.462262
     19          6           0      -20.298794   -2.733706    2.010256
     20          6           0      -19.615302   -1.601077    5.571237
     21          6           0      -20.397141   -4.488927    4.060944
     22          8           0      -20.612750   -5.550334    3.405422
     23          6           0      -20.369263   -4.661694    5.570108
     24          7           0      -20.333671   -2.254781   -1.049509
     25          6           0      -20.782793   -3.421536   -0.428908
     26          6           0      -21.364822   -4.489503   -1.399454
     27          6           0      -21.213428   -3.665026   -2.797701
     28          6           0      -20.588058   -2.373307   -2.416818
     29          6           0      -20.510497   -5.760936   -1.315614
     30          6           0      -22.487483   -3.532521   -3.578823
     31          6           0      -22.386486   -4.055334   -4.983253
     32          7           0      -19.753048    0.334587   -1.827652
     33          6           0      -19.875372   -0.134800   -3.129567
     34          6           0      -19.600270    0.904342   -4.051222
     35          6           0      -19.344272    2.083894   -3.301708
     36          6           0      -19.550239    1.727377   -1.952260
     37          6           0      -19.607064    0.865868   -5.531219
     38          6           0      -18.900541    3.458576   -3.377793
     39          8           0      -18.548840    4.200948   -4.273700
     40          6           0      -18.989699    3.933850   -1.850477
     41          6           0      -17.856468    4.814881   -1.464776
     42          8           0      -16.694631    4.654129   -1.738832
     43          8           0      -18.238476    5.899195   -0.772286
     44          6           0      -17.118991    6.792806   -0.359701
     45          1           0      -18.984680    0.792616    4.208966
     46          1           0      -20.773830   -4.640615    1.249956
     47          1           0      -20.362109   -1.618366   -4.421818
     48          1           0      -18.259292    4.287079    1.214222
     49          1           0      -19.634504    3.217553    3.434005
     50          1           0      -16.872460    3.704958    2.842933
     51          1           0      -16.902369    2.054344    3.491707
     52          1           0      -17.644708    3.291750    4.428349
     53          1           0      -21.137943    3.951077    2.141597
     54          1           0      -20.938789    4.614792    0.497481
     55          1           0      -21.166751    6.204081    2.564468
     56          1           0      -20.259490    6.646683    1.172476
     57          1           0      -20.490289   -1.192140    6.076576
     58          1           0      -18.759979   -0.929971    5.638825
     59          1           0      -19.208568   -2.444538    6.128338
     60          1           0      -19.318563   -4.774592    5.836852
     61          1           0      -20.891275   -5.600732    5.752336
     62          1           0      -20.786778   -3.819336    6.121948
     63          1           0      -22.361427   -4.723053   -1.024652
     64          1           0      -20.518833   -4.205543   -3.441612
     65          1           0      -19.590411   -5.679448   -0.736529
     66          1           0      -20.367698   -6.156020   -2.321127
     67          1           0      -21.103879   -6.477496   -0.746951
     68          1           0      -22.803108   -2.498063   -3.715028
     69          1           0      -23.353652   -4.011202   -3.121793
     70          1           0      -23.206646   -4.720208   -5.252630
     71          1           0      -21.464905   -4.617305   -5.132494
     72          1           0      -22.284068   -3.157232   -5.593078
     73          1           0      -19.330231   -0.085192   -5.987109
     74          1           0      -18.723604    1.447182   -5.796743
     75          1           0      -20.564872    1.223779   -5.909002
     76          1           0      -19.868783    4.568039   -1.968646
     77          1           0      -16.761109    7.409887   -1.185082
     78          1           0      -16.340126    6.250003    0.176132
     79          1           0      -17.502045    7.493771    0.382336
     80         12           0       19.329468   -0.668852    0.024355
     81          6           0       21.457871    1.930662   -0.483506
     82          6           0       17.187986    1.185909    1.993363
     83          6           0       17.445890   -3.478141    0.556705
     84          6           0       21.710310   -2.820517   -1.646816
     85          7           0       19.453588    1.258581    0.832343
     86          6           0       20.302154    2.275396    0.279253
     87          6           0       19.835447    3.621241    0.667360
     88          6           0       18.738929    3.266751    1.769263
     89          6           0       18.405479    1.806743    1.557651
     90          6           0       19.247499    3.524151    3.275017
     91          6           0       19.426914    4.540270   -0.524723
     92          6           0       19.935875    5.943869   -0.451657
     93          1           0       19.916991    6.616259    0.977475
     94          7           0       17.517368   -1.070882    1.067062
     95          6           0       16.848041   -0.141880    1.806874
     96          6           0       15.688114   -0.772392    2.337214
     97          6           0       15.658330   -2.144380    1.870327
     98          6           0       16.895789   -2.303362    1.035294
     99          6           0       14.739552   -0.054534    3.322062
    100          6           0       14.677924   -3.262485    2.040595
    101          8           0       14.788816   -4.442217    1.688465
    102          6           0       13.312134   -2.857632    2.713750
    103          7           0       19.590144   -2.921308   -0.388978
    104          6           0       18.639698   -3.792078   -0.156764
    105          6           0       18.890790   -5.128264   -0.852606
    106          6           0       20.260474   -4.896733   -1.552431
    107          6           0       20.565828   -3.451412   -1.164081
    108          6           0       18.914583   -6.387865    0.154228
    109          6           0       20.070740   -5.081299   -3.122513
    110          6           0       19.215074   -4.087191   -3.945981
    111          7           0       21.283462   -0.535846   -0.747278
    112          6           0       22.057078   -1.462750   -1.420019
    113          6           0       23.219302   -0.724356   -1.954620
    114          6           0       23.079707    0.598702   -1.660388
    115          6           0       21.853437    0.655460   -0.903623
    116          6           0       24.413340   -1.374920   -2.563574
    117          6           0       23.647938    1.941802   -1.773085
    118          8           0       24.675431    2.338162   -2.297098
    119          6           0       22.593731    2.842306   -0.991358
    120          6           0       23.297078    3.427502    0.168172
    121          8           0       23.908840    2.832682    1.072553
    122          8           0       23.127866    4.788167    0.010655
    123          6           0       23.586213    5.593075    1.150518
    124          1           0       16.458451    1.750885    2.577091
    125          1           0       16.739187   -4.304104    0.666801
    126          1           0       22.402768   -3.438146   -2.221480
    127          1           0       20.707519    4.084647    1.130453
    128          1           0       17.854367    3.869454    1.565609
    129          1           0       20.151806    4.129905    3.333249
    130          1           0       19.578108    2.555345    3.649204
    131          1           0       18.356347    3.892633    3.781423
    132          1           0       18.340222    4.597224   -0.588266
    133          1           0       19.872695    4.031907   -1.379560
    134          1           0       19.336322    6.645462   -1.030327
    135          1           0       20.922252    6.214070   -0.828937
    136          1           0       14.058394    0.672856    2.880596
    137          1           0       15.436370    0.372396    4.043172
    138          1           0       14.014879   -0.726719    3.781035
    139          1           0       13.479504   -2.688667    3.777518
    140          1           0       12.556437   -3.576467    2.397579
    141          1           0       12.866255   -1.957614    2.289863
    142          1           0       18.121178   -5.272300   -1.610554
    143          1           0       21.038172   -5.589425   -1.230641
    144          1           0       17.978449   -6.921076   -0.015260
    145          1           0       18.940847   -6.041888    1.188036
    146          1           0       19.684674   -7.150713    0.047001
    147          1           0       19.728633   -6.068488   -3.432765
    148          1           0       21.091851   -4.923819   -3.471359
    149          1           0       19.954735   -3.630570   -4.603774
    150          1           0       18.685462   -3.369458   -3.320759
    151          1           0       18.439675   -4.563204   -4.546159
    152          1           0       24.736639   -0.636148   -3.296272
    153          1           0       24.184752   -2.336684   -3.023145
    154          1           0       25.217724   -1.321783   -1.831087
    155          1           0       22.433875    3.614227   -1.743678
    156          1           0       23.470835    6.608860    0.771296
    157          1           0       24.651683    5.386107    1.250752
    158          1           0       23.131057    5.356028    2.112375
 ---------------------------------------------------------------------

 SCF Done:  E(RCAM-B3LYP) =  -4069.80857533     A.U. after   19 cycles

 Excitation energies and oscillator strengths:

 Excited State   1:      Singlet-A      1.6462 eV  753.16 nm  f=0.3879  <S**2>=0.000
     310 -> 316       -0.17000
     311 -> 313        0.68911
     310 <- 316       -0.10748
 This state for optimization and/or second-order correction.
 Total Energy, E(TD-HF/TD-DFT) =  -4069.74807910
 Copying the excited state density for this state as the 1-particle RhoCI density.

 Excited State   2:      Singlet-A      1.6991 eV  729.70 nm  f=0.3851  <S**2>=0.000
     309 -> 315        0.18627
     312 -> 314        0.68408
     309 <- 315        0.10904

 Excited State   3:      Singlet-A      2.2270 eV  556.73 nm  f=0.1126  <S**2>=0.000
     310 -> 313        0.63821
     311 -> 316        0.29158

 Excited State   4:      Singlet-A      2.2666 eV  547.00 nm  f=0.0455  <S**2>=0.000
     309 -> 314        0.60928
     312 -> 315       -0.34929

 Excited State   5:      Singlet-A      3.0209 eV  410.42 nm  f=0.0000  <S**2>=0.000
     312 -> 313        0.70710

 The electronic state is 1-A.
 Alpha  occ. eigenvalues --  -46.89253 -46.87171 -19.25656 -19.25195 -19.20261
 Alpha  occ. eigenvalues --  -19.19557 -19.19500 -19.19248 -19.18788 -19.18516
 Alpha  occ. eigenvalues --  -14.42877 -14.42295 -14.42195 -14.41708 -14.39548
 Alpha  occ. eigenvalues --  -14.39505 -14.39485 -14.38781 -10.39524 -10.38619
 Alpha  occ. eigenvalues --  -10.35706 -10.35411 -10.35245 -10.35171 -10.32073
 Alpha  occ. eigenvalues --  -10.31984 -10.31838 -10.31776 -10.31378 -10.30975
 Alpha  occ. eigenvalues --  -10.30872 -10.30751 -10.30504 -10.30338 -10.30178
 Alpha  occ. eigenvalues --  -10.30136 -10.29897 -10.29877 -10.29592 -10.29370
 Alpha  occ. eigenvalues --  -10.29238 -10.29088 -10.28971 -10.28876 -10.28820
 Alpha  occ. eigenvalues --  -10.28767 -10.28337 -10.28335 -10.28273 -10.28164
 Alpha  occ. eigenvalues --  -10.28133 -10.28057 -10.27891 -10.27890 -10.27882
 Alpha  occ. eigenvalues --  -10.27842 -10.27820 -10.27758 -10.27676 -10.27587
 Alpha  occ. eigenvalues --  -10.27560 -10.27558 -10.27533 -10.27497 -10.27496
 Alpha  occ. eigenvalues --  -10.27416 -10.27380 -10.27352 -10.27222 -10.26840
 Alpha  occ. eigenvalues --  -10.26592 -10.26492 -10.26230 -10.26020 -10.25862
 Alpha  occ. eigenvalues --  -10.25848 -10.25844 -10.25779 -10.25625 -10.25573
 Alpha  occ. eigenvalues --  -10.25496 -10.25491 -10.25407 -10.25261 -10.25140
 Alpha  occ. eigenvalues --  -10.24734  -3.17657  -3.16030  -1.92560  -1.92102
 Alpha  occ. eigenvalues --   -1.91958  -1.90920  -1.90464  -1.90375  -1.17336
 Alpha  occ. eigenvalues --   -1.15967  -1.10201  -1.10165  -1.09607  -1.07476
 Alpha  occ. eigenvalues --   -1.07429  -1.07284  -1.05130  -1.04549  -1.03780
 Alpha  occ. eigenvalues --   -1.03593  -1.02895  -1.02741  -1.01717  -1.01434
 Alpha  occ. eigenvalues --   -0.93398  -0.92380  -0.89739  -0.89103  -0.88834
 Alpha  occ. eigenvalues --   -0.88797  -0.88612  -0.88009  -0.87704  -0.87281
 Alpha  occ. eigenvalues --   -0.87249  -0.86912  -0.86439  -0.86251  -0.84652
 Alpha  occ. eigenvalues --   -0.84355  -0.83843  -0.83377  -0.82505  -0.82420
 Alpha  occ. eigenvalues --   -0.81685  -0.81541  -0.81211  -0.81083  -0.80531
 Alpha  occ. eigenvalues --   -0.79968  -0.78383  -0.78088  -0.77804  -0.77387
 Alpha  occ. eigenvalues --   -0.77362  -0.77205  -0.76557  -0.75808  -0.75243
 Alpha  occ. eigenvalues --   -0.74980  -0.72910  -0.72471  -0.72182  -0.71874
 Alpha  occ. eigenvalues --   -0.69871  -0.69266  -0.69118  -0.68712  -0.68355
 Alpha  occ. eigenvalues --   -0.68219  -0.67436  -0.66727  -0.65887  -0.65382
 Alpha  occ. eigenvalues --   -0.65238  -0.65004  -0.64802  -0.64708  -0.64395
 Alpha  occ. eigenvalues --   -0.64106  -0.62541  -0.62367  -0.60348  -0.60304
 Alpha  occ. eigenvalues --   -0.59961  -0.59423  -0.58995  -0.58920  -0.58781
 Alpha  occ. eigenvalues --   -0.58400  -0.58028  -0.57978  -0.57737  -0.57487
 Alpha  occ. eigenvalues --   -0.56115  -0.55928  -0.55542  -0.55530  -0.55213
 Alpha  occ. eigenvalues --   -0.55071  -0.55002  -0.54881  -0.54425  -0.53970
 Alpha  occ. eigenvalues --   -0.53544  -0.53372  -0.53195  -0.53157  -0.53026
 Alpha  occ. eigenvalues --   -0.52917  -0.52583  -0.52459  -0.52397  -0.52288
 Alpha  occ. eigenvalues --   -0.52174  -0.52131  -0.52002  -0.51946  -0.51506
 Alpha  occ. eigenvalues --   -0.51337  -0.51178  -0.51059  -0.50893  -0.50338
 Alpha  occ. eigenvalues --   -0.50127  -0.50004  -0.49860  -0.49657  -0.49639
 Alpha  occ. eigenvalues --   -0.49339  -0.49032  -0.48921  -0.48904  -0.48586
 Alpha  occ. eigenvalues --   -0.48522  -0.48477  -0.48413  -0.48253  -0.48123
 Alpha  occ. eigenvalues --   -0.48022  -0.47792  -0.47700  -0.47386  -0.47351
 Alpha  occ. eigenvalues --   -0.47242  -0.47241  -0.46848  -0.46748  -0.46736
 Alpha  occ. eigenvalues --   -0.46628  -0.46384  -0.46142  -0.45949  -0.45880
 Alpha  occ. eigenvalues --   -0.45620  -0.45223  -0.45191  -0.44937  -0.44799
 Alpha  occ. eigenvalues --   -0.44775  -0.44572  -0.44537  -0.44077  -0.43918
 Alpha  occ. eigenvalues --   -0.43913  -0.43539  -0.43464  -0.43311  -0.43221
 Alpha  occ. eigenvalues --   -0.43201  -0.42990  -0.42911  -0.42772  -0.42437
 Alpha  occ. eigenvalues --   -0.42373  -0.42309  -0.42140  -0.42106  -0.42075
 Alpha  occ. eigenvalues --   -0.41973  -0.41939  -0.41690  -0.41540  -0.41441
 Alpha  occ. eigenvalues --   -0.41004  -0.40919  -0.40746  -0.40542  -0.40520
 Alpha  occ. eigenvalues --   -0.40459  -0.40417  -0.40074  -0.39794  -0.39519
 Alpha  occ. eigenvalues --   -0.38277  -0.37996  -0.37873  -0.37644  -0.37497
 Alpha  occ. eigenvalues --   -0.37222  -0.37148  -0.37058  -0.36726  -0.36643
 Alpha  occ. eigenvalues --   -0.36397  -0.36263  -0.34671  -0.34621  -0.34211
 Alpha  occ. eigenvalues --   -0.34161  -0.33481  -0.33370  -0.31562  -0.31222
 Alpha  occ. eigenvalues --   -0.31113  -0.30984  -0.30760  -0.30736  -0.30380
 Alpha  occ. eigenvalues --   -0.29974  -0.29883  -0.29602  -0.24412  -0.24340
 Alpha  occ. eigenvalues --   -0.21061  -0.20957
 Alpha virt. eigenvalues --   -0.08990  -0.08487  -0.02357  -0.01645  -0.00243
 Alpha virt. eigenvalues --    0.00086   0.01949   0.02139   0.02171   0.03138
 Alpha virt. eigenvalues --    0.04730   0.04739   0.04936   0.05439   0.05441

 Mulliken charges:
               1
     1  Mg   0.841730
     2  C    0.034522
     3  C   -0.092960
     4  C   -0.054363
     5  C   -0.125467
     6  N   -0.303471
     7  C   -0.052290
     8  C    0.000508
     9  C   -0.079164
    10  C    0.037442
    11  C    0.069887
    12  C    0.044558
    13  C   -0.036889
    14  H    0.029721
    15  N   -0.308327
    16  C    0.155172
    17  C   -0.140380
    18  C   -0.029026
    19  C    0.069275
    20  C    0.113474
    21  C    0.008036
    22  O   -0.244573
    23  C    0.041257
    24  N   -0.321023
    25  C    0.036070
    26  C   -0.042167
    27  C    0.024928
    28  C    0.084851
    29  C    0.056662
    30  C    0.036905
    31  C   -0.008397
    32  N   -0.439363
    33  C    0.179099
    34  C   -0.175158
    35  C   -0.014010
    36  C    0.109959
    37  C    0.115580
    38  C    0.073214
    39  O   -0.144996
    40  C   -0.038076
    41  C    0.155669
    42  O   -0.198881
    43  O   -0.329029
    44  C    0.182757
    45  H   -0.027450
    46  H   -0.007689
    47  H   -0.042410
    48  H    0.003881
    49  H    0.010813
    50  H    0.020548
    51  H    0.027088
    52  H    0.015781
    53  H    0.012915
    54  H    0.017209
    55  H    0.020559
    56  H    0.038041
    57  H    0.049724
    58  H    0.012620
    59  H    0.009446
    60  H    0.044193
    61  H    0.033018
    62  H    0.028637
    63  H    0.029434
    64  H    0.012700
    65  H    0.039362
    66  H    0.014875
    67  H    0.019145
    68  H    0.008606
    69  H    0.002729
    70  H    0.020713
    71  H    0.002394
    72  H    0.017154
    73  H    0.004837
    74  H    0.038537
    75  H    0.044856
    76  H    0.038574
    77  H    0.051869
    78  H    0.041579
    79  H    0.022445
    80  Mg   0.798393
    81  C    0.018711
    82  C   -0.098304
    83  C   -0.026558
    84  C   -0.072687
    85  N   -0.371547
    86  C   -0.042115
    87  C   -0.004781
    88  C   -0.083350
    89  C    0.109741
    90  C    0.079494
    91  C    0.115788
    92  C   -0.087205
    93  H   -0.012915
    94  N   -0.377578
    95  C    0.154374
    96  C   -0.133033
    97  C   -0.038221
    98  C    0.104469
    99  C    0.104464
   100  C    0.019108
   101  O   -0.205614
   102  C    0.005651
   103  N   -0.192980
   104  C   -0.005899
   105  C   -0.021509
   106  C    0.004513
   107  C    0.005383
   108  C    0.043640
   109  C   -0.019984
   110  C   -0.000273
   111  N   -0.317256
   112  C    0.124300
   113  C   -0.222830
   114  C    0.035480
   115  C    0.083050
   116  C    0.127710
   117  C    0.060055
   118  O   -0.156803
   119  C   -0.043854
   120  C    0.209642
   121  O   -0.230316
   122  O   -0.341657
   123  C    0.182867
   124  H   -0.025409
   125  H   -0.002683
   126  H   -0.021296
   127  H    0.011608
   128  H    0.000570
   129  H    0.022048
   130  H    0.023883
   131  H    0.028374
   132  H    0.014443
   133  H    0.017236
   134  H    0.020376
   135  H    0.040246
   136  H    0.031569
   137  H    0.040574
   138  H   -0.006179
   139  H    0.059055
   140  H    0.025895
   141  H    0.020831
   142  H    0.023758
   143  H    0.011256
   144  H    0.021413
   145  H    0.027427
   146  H    0.019020
   147  H    0.016337
   148  H   -0.003162
   149  H    0.022476
   150  H    0.020511
   151  H    0.015755
   152  H    0.023477
   153  H    0.018841
   154  H    0.042567
   155  H    0.039248
   156  H    0.040907
   157  H    0.037717
   158  H    0.041746
 Sum of Mulliken charges =  -0.00000

 Dipole moment (field-independent basis, Debye):
    X=             -6.8070    Y=              2.7131    Z=              3.8354  Tot=              8.2708
 Quadrupole moment (field-independent basis, Debye-Ang):
   XX=           -588.4923   YY=           -503.2541   ZZ=           -495.4279
   XY=             -9.2051   XZ=            -61.6493   YZ=             56.0500

 Normal termination of Gaussian 16 at Wed Sep 15 19:51:58 2021.
