 Gaussian 16, Revision A.03,
 Gaussian 16:  ES64L-G16RevA.03 25-Dec-2016

 -----------------------------------
 #p cam-b3lyp/Def2SVP td=(nstates=5)
 -----------------------------------

 --------------------------------
 TDDFT excited states in gaussian
 --------------------------------
 Symbolic Z-matrix:
 Charge =  0 Multiplicity = 1

                         Standard orientation:
 ---------------------------------------------------------------------
 Center     Atomic      Atomic             Coordinates (Angstroms)
 Number     Number       Type             X           Y           Z
 ---------------------------------------------------------------------
      1         12           0       28.778534    0.557987    0.570800
      2          6           0       28.906642   -2.446409   -1.169053
      3          6           0       26.752783    1.721671   -1.992761
      4          6           0       29.049587    3.643586    1.975025
      5          6           0       30.947352   -0.748241    2.925773
      6          7           0       27.975937   -0.260049   -1.387738
      7          6           0       28.122475   -1.542740   -1.893549
      8          6           0       27.458520   -1.748720   -3.311509
      9          6           0       27.065920   -0.256842   -3.642931
     10          6           0       27.306858    0.482168   -2.275210
     11          6           0       27.772871    0.517074   -4.759524
     12          6           0       26.299528   -2.759327   -3.233788
     13          6           0       26.532246   -4.118343   -3.839656
     14          1           0       25.336258   -4.773800   -4.552787
     15          7           0       27.878532    2.391067    0.212414
     16          6           0       27.038830    2.594642   -0.837888
     17          6           0       26.642640    4.013956   -0.754379
     18          6           0       27.349559    4.619216    0.296390
     19          6           0       28.115732    3.594863    0.892646
     20          6           0       25.568836    4.553273   -1.609638
     21          6           0       27.378225    6.051039    0.744721
     22          8           0       27.979217    6.443004    1.783366
     23          6           0       26.759952    7.123058    0.029893
     24          7           0       29.752670    1.303044    2.217251
     25          6           0       29.698253    2.601191    2.622713
     26          6           0       30.509202    2.880143    3.826540
     27          6           0       31.084118    1.464023    4.189721
     28          6           0       30.623268    0.662345    3.030951
     29          6           0       31.625318    3.964943    3.871531
     30          6           0       30.695383    0.914857    5.650454
     31          6           0       29.360475    0.170976    5.951784
     32          7           0       29.788004   -1.184417    0.862835
     33          6           0       30.602817   -1.592589    1.879306
     34          6           0       30.867930   -2.959990    1.764671
     35          6           0       30.266259   -3.300984    0.492471
     36          6           0       29.604380   -2.188363    0.012699
     37          6           0       31.605323   -3.861374    2.753201
     38          6           0       29.997684   -4.431729   -0.348820
     39          8           0       30.206365   -5.625022   -0.266051
     40          6           0       29.276787   -3.838955   -1.609991
     41          6           0       30.197350   -3.846657   -2.764185
     42          8           0       30.680750   -2.844952   -3.336169
     43          8           0       30.544029   -5.078961   -3.195815
     44          6           0       31.276912   -5.231598   -4.498843
     45          1           0       26.169281    2.101055   -2.833459
     46          1           0       29.206550    4.614109    2.450711
     47          1           0       31.487557   -1.279558    3.712751
     48          1           0       28.201631   -1.907408   -4.093687
     49          1           0       25.994273   -0.276888   -3.840859
     50          1           0       28.397894    1.302921   -4.334723
     51          1           0       26.996506    1.085880   -5.269078
     52          1           0       28.360648   -0.086948   -5.451600
     53          1           0       25.494227   -2.309011   -3.815320
     54          1           0       25.961730   -2.808390   -2.198614
     55          1           0       26.838223   -4.785777   -3.033615
     56          1           0       27.359211   -4.183125   -4.546925
     57          1           0       24.789278    4.861691   -0.914221
     58          1           0       25.122358    3.921785   -2.378825
     59          1           0       25.930162    5.438563   -2.132840
     60          1           0       27.019373    6.955677   -1.015141
     61          1           0       26.981674    8.080576    0.499397
     62          1           0       25.675593    7.012767    0.017061
     63          1           0       29.709518    3.169836    4.507594
     64          1           0       32.170816    1.488210    4.117497
     65          1           0       31.375328    4.781733    4.548686
     66          1           0       31.764878    4.427411    2.893832
     67          1           0       32.607508    3.565853    4.124517
     68          1           0       30.654639    1.835832    6.232432
     69          1           0       31.592745    0.344612    5.891057
     70          1           0       28.767502   -0.097767    5.077945
     71          1           0       28.738803    0.601536    6.737310
     72          1           0       29.688851   -0.747598    6.436316
     73          1           0       32.454402   -4.365089    2.290022
     74          1           0       30.916733   -4.652127    3.050503
     75          1           0       31.902168   -3.370439    3.680379
     76          1           0       28.509407   -4.553247   -1.908842
     77          1           0       31.107630   -6.301945   -4.617163
     78          1           0       32.332427   -4.963146   -4.469796
     79          1           0       30.791682   -4.627519   -5.266111
     80         12           0      -29.640869   -0.229929   -0.071039
     81          6           0      -26.327336    0.414928   -0.906546
     82          6           0      -28.534113   -2.964286    1.751615
     83          6           0      -32.646310   -0.639304    1.242333
     84          6           0      -30.559868    2.787115   -1.496315
     85          7           0      -27.666328   -1.071656    0.506008
     86          6           0      -26.459447   -0.727212   -0.067309
     87          6           0      -25.352080   -1.672325    0.294362
     88          6           0      -26.167838   -2.934069    0.821461
     89          6           0      -27.530647   -2.309842    1.090440
     90          6           0      -26.143007   -4.342385    0.057836
     91          6           0      -24.247728   -1.084816    1.289979
     92          6           0      -24.708988   -0.038567    2.347827
     93          1           0      -24.095777   -0.225888    3.714752
     94          7           0      -30.464888   -1.540805    1.403452
     95          6           0      -29.832103   -2.622612    2.028348
     96          6           0      -30.698611   -3.262786    2.979654
     97          6           0      -31.932706   -2.578365    2.871674
     98          6           0      -31.745044   -1.514769    1.840412
     99          6           0      -30.284551   -4.581790    3.634037
    100          6           0      -33.168425   -2.992286    3.702817
    101          8           0      -33.112164   -3.873083    4.566989
    102          6           0      -34.428632   -2.313912    3.363963
    103          7           0      -31.291429    1.014593   -0.055334
    104          6           0      -32.499539    0.462166    0.335531
    105          6           0      -33.712441    1.346242   -0.029142
    106          6           0      -32.926265    2.545254   -0.701811
    107          6           0      -31.520521    2.136998   -0.716695
    108          6           0      -34.792021    0.789725   -0.902776
    109          6           0      -33.070055    3.927391    0.115166
    110          6           0      -33.380053    5.074919   -0.810341
    111          7           0      -28.711706    1.251951   -1.203713
    112          6           0      -29.221970    2.429885   -1.717135
    113          6           0      -28.150143    3.186250   -2.404092
    114          6           0      -26.973587    2.413591   -2.108260
    115          6           0      -27.387387    1.285815   -1.389797
    116          6           0      -28.154724    4.543946   -2.979844
    117          6           0      -25.500192    2.320951   -2.187579
    118          8           0      -24.705246    3.115702   -2.633470
    119          6           0      -25.037273    1.019191   -1.457535
    120          6           0      -24.255211    0.178595   -2.364887
    121          8           0      -23.082799   -0.190020   -2.290125
    122          8           0      -25.005170    0.063009   -3.564645
    123          6           0      -24.409936   -0.804145   -4.603899
    124          1           0      -28.183955   -3.941085    2.093282
    125          1           0      -33.708689   -0.781217    1.450731
    126          1           0      -30.966607    3.678478   -1.977253
    127          1           0      -24.776218   -1.935576   -0.592802
    128          1           0      -25.684636   -3.087761    1.786669
    129          1           0      -25.460804   -4.410912   -0.789329
    130          1           0      -27.097902   -4.615695   -0.390948
    131          1           0      -25.719422   -5.099885    0.717857
    132          1           0      -23.393277   -0.703445    0.731866
    133          1           0      -23.827483   -1.944652    1.811630
    134          1           0      -25.796147   -0.029205    2.431682
    135          1           0      -24.417164    0.961466    2.028273
    136          1           0      -30.693349   -4.724110    4.634901
    137          1           0      -29.207664   -4.574789    3.800416
    138          1           0      -30.659740   -5.367079    2.977370
    139          1           0      -34.757417   -2.664153    2.385983
    140          1           0      -34.284881   -1.233409    3.394539
    141          1           0      -35.134480   -2.635166    4.129857
    142          1           0      -34.090405    1.776698    0.898487
    143          1           0      -33.254099    2.484302   -1.739535
    144          1           0      -35.410011    1.641341   -1.187747
    145          1           0      -35.429365    0.174465   -0.267650
    146          1           0      -34.360886    0.236204   -1.737788
    147          1           0      -32.136667    4.057496    0.662699
    148          1           0      -33.773874    3.940921    0.948328
    149          1           0      -32.504862    5.723474   -0.841054
    150          1           0      -34.101032    5.771455   -0.381116
    151          1           0      -33.518704    4.703406   -1.825446
    152          1           0      -29.107398    5.074174   -2.940054
    153          1           0      -27.928339    4.418180   -4.038063
    154          1           0      -27.506180    5.057068   -2.270060
    155          1           0      -24.431579    1.375998   -0.624843
    156          1           0      -25.270979   -1.391113   -4.925595
    157          1           0      -23.599569   -1.493139   -4.365632
    158          1           0      -24.242884   -0.135234   -5.448349
 ---------------------------------------------------------------------

 SCF Done:  E(RCAM-B3LYP) =  -4069.81518548     A.U. after   19 cycles

 Excitation energies and oscillator strengths:

 Excited State   1:      Singlet-A      1.7035 eV  727.83 nm  f=0.3804  <S**2>=0.000
     310 -> 316        0.17722
     312 -> 314        0.68470
     310 <- 316        0.10753
 This state for optimization and/or second-order correction.
 Total Energy, E(TD-HF/TD-DFT) =  -4069.75258367
 Copying the excited state density for this state as the 1-particle RhoCI density.

 Excited State   2:      Singlet-A      1.7179 eV  721.73 nm  f=0.3775  <S**2>=0.000
     309 -> 315        0.18174
     311 -> 313        0.68354
     309 <- 315        0.10499

 Excited State   3:      Singlet-A      2.2043 eV  562.47 nm  f=0.0887  <S**2>=0.000
     309 -> 313        0.62962
     311 -> 315       -0.30512

 Excited State   4:      Singlet-A      2.2075 eV  561.65 nm  f=0.1413  <S**2>=0.000
     310 -> 314        0.65091
     312 -> 316       -0.26117

 Excited State   5:      Singlet-A      3.2171 eV  385.40 nm  f=0.0000  <S**2>=0.000
     312 -> 313        0.70711

 The electronic state is 1-A.
 Alpha  occ. eigenvalues --  -46.89120 -46.87513 -19.24358 -19.24050 -19.20554
 Alpha  occ. eigenvalues --  -19.19039 -19.18837 -19.18245 -19.18209 -19.17935
 Alpha  occ. eigenvalues --  -14.42250 -14.42221 -14.41986 -14.41845 -14.39659
 Alpha  occ. eigenvalues --  -14.39516 -14.39199 -14.38343 -10.39748 -10.38524
 Alpha  occ. eigenvalues --  -10.35134 -10.35120 -10.34501 -10.34163 -10.32000
 Alpha  occ. eigenvalues --  -10.31638 -10.31314 -10.31198 -10.30942 -10.30788
 Alpha  occ. eigenvalues --  -10.30695 -10.30649 -10.30577 -10.30451 -10.30207
 Alpha  occ. eigenvalues --  -10.30107 -10.30094 -10.30008 -10.29368 -10.28974
 Alpha  occ. eigenvalues --  -10.28889 -10.28692 -10.28557 -10.28540 -10.28445
 Alpha  occ. eigenvalues --  -10.28428 -10.28357 -10.28349 -10.28277 -10.28223
 Alpha  occ. eigenvalues --  -10.28175 -10.28132 -10.28089 -10.27822 -10.27715
 Alpha  occ. eigenvalues --  -10.27687 -10.27648 -10.27362 -10.27314 -10.27240
 Alpha  occ. eigenvalues --  -10.27236 -10.27177 -10.27152 -10.27143 -10.27127
 Alpha  occ. eigenvalues --  -10.27076 -10.26981 -10.26922 -10.26889 -10.26864
 Alpha  occ. eigenvalues --  -10.26744 -10.26732 -10.26680 -10.26300 -10.26232
 Alpha  occ. eigenvalues --  -10.26071 -10.26036 -10.25984 -10.25976 -10.25898
 Alpha  occ. eigenvalues --  -10.25873 -10.25767 -10.25703 -10.25649 -10.25401
 Alpha  occ. eigenvalues --  -10.24594  -3.17646  -3.16229  -1.92530  -1.92116
 Alpha  occ. eigenvalues --   -1.91939  -1.91139  -1.90688  -1.90533  -1.15120
 Alpha  occ. eigenvalues --   -1.14834  -1.10377  -1.09510  -1.09387  -1.07933
 Alpha  occ. eigenvalues --   -1.06917  -1.05115  -1.05087  -1.04823  -1.04069
 Alpha  occ. eigenvalues --   -1.03732  -1.03222  -1.03199  -1.02358  -1.02211
 Alpha  occ. eigenvalues --   -0.93066  -0.92480  -0.89670  -0.89237  -0.89019
 Alpha  occ. eigenvalues --   -0.88431  -0.88282  -0.88001  -0.87683  -0.87559
 Alpha  occ. eigenvalues --   -0.86991  -0.86895  -0.86200  -0.86081  -0.84847
 Alpha  occ. eigenvalues --   -0.84471  -0.84362  -0.83629  -0.82790  -0.82736
 Alpha  occ. eigenvalues --   -0.82445  -0.82401  -0.80970  -0.80859  -0.80528
 Alpha  occ. eigenvalues --   -0.80168  -0.78538  -0.78335  -0.77517  -0.77493
 Alpha  occ. eigenvalues --   -0.76863  -0.76851  -0.76232  -0.76193  -0.75764
 Alpha  occ. eigenvalues --   -0.75278  -0.73095  -0.72659  -0.72155  -0.71317
 Alpha  occ. eigenvalues --   -0.70087  -0.69441  -0.69378  -0.68757  -0.68104
 Alpha  occ. eigenvalues --   -0.67985  -0.67082  -0.66843  -0.66428  -0.65182
 Alpha  occ. eigenvalues --   -0.65070  -0.64917  -0.64594  -0.64524  -0.64348
 Alpha  occ. eigenvalues --   -0.64015  -0.62559  -0.61475  -0.60292  -0.59943
 Alpha  occ. eigenvalues --   -0.59627  -0.59394  -0.59131  -0.58957  -0.58576
 Alpha  occ. eigenvalues --   -0.58302  -0.57778  -0.57543  -0.57287  -0.57266
 Alpha  occ. eigenvalues --   -0.56339  -0.56151  -0.55839  -0.55620  -0.55364
 Alpha  occ. eigenvalues --   -0.55115  -0.54878  -0.54625  -0.54425  -0.53907
 Alpha  occ. eigenvalues --   -0.53811  -0.53230  -0.52922  -0.52892  -0.52729
 Alpha  occ. eigenvalues --   -0.52641  -0.52510  -0.52421  -0.52191  -0.52058
 Alpha  occ. eigenvalues --   -0.51997  -0.51868  -0.51631  -0.51126  -0.51053
 Alpha  occ. eigenvalues --   -0.50865  -0.50821  -0.50488  -0.50334  -0.50292
 Alpha  occ. eigenvalues --   -0.50147  -0.49744  -0.49648  -0.49620  -0.49568
 Alpha  occ. eigenvalues --   -0.49409  -0.49286  -0.48923  -0.48838  -0.48788
 Alpha  occ. eigenvalues --   -0.48579  -0.48461  -0.48312  -0.48187  -0.48170
 Alpha  occ. eigenvalues --   -0.47911  -0.47755  -0.47748  -0.47268  -0.47210
 Alpha  occ. eigenvalues --   -0.46932  -0.46736  -0.46518  -0.46478  -0.46288
 Alpha  occ. eigenvalues --   -0.46232  -0.46225  -0.45973  -0.45746  -0.45688
 Alpha  occ. eigenvalues --   -0.45402  -0.45384  -0.45247  -0.45154  -0.45135
 Alpha  occ. eigenvalues --   -0.45006  -0.44992  -0.44785  -0.44706  -0.44662
 Alpha  occ. eigenvalues --   -0.44232  -0.43963  -0.43943  -0.43800  -0.43775
 Alpha  occ. eigenvalues --   -0.43435  -0.43398  -0.43236  -0.43125  -0.42876
 Alpha  occ. eigenvalues --   -0.42764  -0.42742  -0.42495  -0.42437  -0.42147
 Alpha  occ. eigenvalues --   -0.41978  -0.41725  -0.41699  -0.41583  -0.41465
 Alpha  occ. eigenvalues --   -0.41238  -0.41108  -0.40776  -0.40474  -0.40315
 Alpha  occ. eigenvalues --   -0.40008  -0.39962  -0.39686  -0.39120  -0.38907
 Alpha  occ. eigenvalues --   -0.38525  -0.38186  -0.37992  -0.37800  -0.37448
 Alpha  occ. eigenvalues --   -0.36911  -0.36894  -0.36575  -0.36487  -0.36371
 Alpha  occ. eigenvalues --   -0.35672  -0.35587  -0.35170  -0.34815  -0.34289
 Alpha  occ. eigenvalues --   -0.33335  -0.33171  -0.32865  -0.31288  -0.31220
 Alpha  occ. eigenvalues --   -0.30976  -0.30829  -0.30596  -0.30016  -0.29973
 Alpha  occ. eigenvalues --   -0.29877  -0.29671  -0.29301  -0.24112  -0.23623
 Alpha  occ. eigenvalues --   -0.21230  -0.21092
 Alpha virt. eigenvalues --   -0.08681  -0.08672  -0.02262  -0.01290   0.00616
 Alpha virt. eigenvalues --    0.00703   0.01697   0.02380   0.02512   0.03586
 Alpha virt. eigenvalues --    0.04069   0.04935   0.05064   0.05660   0.05793

 Mulliken charges:
               1
     1  Mg   0.842029
     2  C   -0.018381
     3  C   -0.053901
     4  C   -0.067816
     5  C   -0.096677
     6  N   -0.267815
     7  C   -0.058749
     8  C   -0.002124
     9  C   -0.086437
    10  C    0.002187
    11  C    0.086088
    12  C    0.098656
    13  C   -0.086491
    14  H    0.020488
    15  N   -0.397033
    16  C    0.159489
    17  C   -0.172376
    18  C    0.028778
    19  C    0.105211
    20  C    0.105031
    21  C   -0.012474
    22  O   -0.250257
    23  C    0.087501
    24  N   -0.298734
    25  C    0.055472
    26  C   -0.041435
    27  C   -0.007416
    28  C    0.040341
    29  C    0.076562
    30  C    0.015294
    31  C    0.012085
    32  N   -0.356447
    33  C    0.119041
    34  C   -0.160411
    35  C   -0.009448
    36  C    0.183586
    37  C    0.132500
    38  C    0.018580
    39  O   -0.153180
    40  C   -0.051980
    41  C    0.191729
    42  O   -0.263452
    43  O   -0.324264
    44  C    0.186505
    45  H   -0.034005
    46  H   -0.005137
    47  H   -0.038795
    48  H    0.013773
    49  H    0.000853
    50  H    0.026204
    51  H    0.010502
    52  H    0.029929
    53  H    0.011974
    54  H    0.021645
    55  H    0.043713
    56  H    0.030154
    57  H    0.034891
    58  H    0.019940
    59  H    0.013940
    60  H    0.022511
    61  H    0.040322
    62  H    0.021416
    63  H    0.020253
    64  H    0.009399
    65  H    0.022362
    66  H    0.017757
    67  H    0.015167
    68  H    0.010521
    69  H    0.016441
    70  H    0.036100
    71  H    0.017598
    72  H    0.007430
    73  H    0.037951
    74  H    0.031035
    75  H    0.003122
    76  H    0.027412
    77  H    0.047667
    78  H    0.049079
    79  H    0.037017
    80  Mg   0.819809
    81  C   -0.024965
    82  C   -0.097608
    83  C   -0.086975
    84  C   -0.094170
    85  N   -0.283887
    86  C   -0.030026
    87  C   -0.040820
    88  C    0.001985
    89  C    0.000869
    90  C    0.064168
    91  C    0.029197
    92  C   -0.076360
    93  H    0.023186
    94  N   -0.359620
    95  C    0.167021
    96  C   -0.136601
    97  C   -0.064250
    98  C    0.184919
    99  C    0.126750
   100  C    0.000335
   101  O   -0.204511
   102  C    0.054780
   103  N   -0.295296
   104  C   -0.001595
   105  C   -0.034001
   106  C   -0.063458
   107  C    0.012401
   108  C    0.107190
   109  C    0.036505
   110  C    0.030426
   111  N   -0.342684
   112  C    0.151459
   113  C   -0.189596
   114  C   -0.004839
   115  C    0.088718
   116  C    0.130650
   117  C    0.030273
   118  O   -0.149192
   119  C    0.028476
   120  C    0.222602
   121  O   -0.208344
   122  O   -0.379722
   123  C    0.180159
   124  H   -0.029638
   125  H   -0.042300
   126  H   -0.043965
   127  H    0.010502
   128  H    0.006339
   129  H    0.011230
   130  H    0.026806
   131  H    0.022148
   132  H    0.028649
   133  H    0.010446
   134  H    0.047615
   135  H    0.030606
   136  H    0.035833
   137  H    0.016223
   138  H    0.041143
   139  H    0.048742
   140  H    0.044985
   141  H    0.024333
   142  H    0.004684
   143  H    0.008074
   144  H    0.019800
   145  H    0.014490
   146  H    0.025112
   147  H    0.015643
   148  H    0.007068
   149  H    0.005818
   150  H    0.014920
   151  H    0.023377
   152  H   -0.003574
   153  H    0.043714
   154  H    0.053183
   155  H    0.038597
   156  H    0.018961
   157  H    0.058635
   158  H    0.038440
 Sum of Mulliken charges =  -0.00000

 Dipole moment (field-independent basis, Debye):
    X=             -6.9961    Y=              1.0239    Z=             -3.3011  Tot=              7.8033
 Quadrupole moment (field-independent basis, Debye-Ang):
   XX=           -327.9962   YY=           -534.7457   ZZ=           -494.0157
   XY=             34.3107   XZ=             69.9593   YZ=             15.6876

 Normal termination of Gaussian 16 at Tue Sep 14 23:11:24 2021.
