 Gaussian 16, Revision A.03,
 Gaussian 16:  ES64L-G16RevA.03 25-Dec-2016

 ----------------------------------------------------------
 #p cam-b3lyp/Def2SVP td=(nstates=5) density=(transition=1)
 ----------------------------------------------------------

 --------------------------------
 TDDFT excited states in gaussian
 --------------------------------
 Symbolic Z-matrix:
 Charge =  0 Multiplicity = 1

                         Standard orientation:
 ---------------------------------------------------------------------
 Center     Atomic      Atomic             Coordinates (Angstroms)
 Number     Number       Type             X           Y           Z
 ---------------------------------------------------------------------
      1         12           0      -30.277844    0.229818    0.229413
      2          6           0      -27.606437   -1.818889   -0.857227
      3          6           0      -30.334990    1.515731   -2.789916
      4          6           0      -31.956048    2.729794    1.595347
      5          6           0      -29.462713   -0.872566    3.507932
      6          7           0      -29.141971   -0.317360   -1.652571
      7          6           0      -28.220398   -1.174660   -1.901632
      8          6           0      -27.996908   -1.316365   -3.421324
      9          6           0      -28.527456    0.093555   -3.997669
     10          6           0      -29.346541    0.530058   -2.712468
     11          6           0      -27.425783    1.145669   -4.416665
     12          6           0      -28.896427   -2.517679   -4.023485
     13          6           0      -28.383411   -3.361825   -5.234832
     14          1           0      -27.416441   -2.626367   -6.234294
     15          7           0      -31.222666    1.792731   -0.530550
     16          6           0      -31.158732    2.119652   -1.876724
     17          6           0      -32.005354    3.343293   -2.105164
     18          6           0      -32.515552    3.673737   -0.780637
     19          6           0      -31.941322    2.770052    0.219891
     20          6           0      -32.122612    3.973445   -3.480146
     21          6           0      -33.492429    4.774698   -0.430857
     22          8           0      -33.865579    5.045726    0.718972
     23          6           0      -34.082852    5.570565   -1.523321
     24          7           0      -30.756333    0.800746    2.335888
     25          6           0      -31.429444    1.912863    2.569353
     26          6           0      -31.918226    1.947200    4.085389
     27          6           0      -31.032351    0.729947    4.694164
     28          6           0      -30.402641    0.155758    3.427894
     29          6           0      -31.732467    3.336678    4.779963
     30          6           0      -31.770047   -0.373034    5.521984
     31          6           0      -31.478731   -0.429251    6.999620
     32          7           0      -28.980216   -1.243386    1.187210
     33          6           0      -28.800450   -1.534919    2.524776
     34          6           0      -27.741934   -2.442766    2.681391
     35          6           0      -27.219697   -2.547296    1.378267
     36          6           0      -27.951607   -1.795468    0.489915
     37          6           0      -27.250524   -3.045476    3.899775
     38          6           0      -26.232293   -3.255056    0.659739
     39          8           0      -25.391801   -4.156831    0.925362
     40          6           0      -26.270672   -2.595097   -0.791470
     41          6           0      -26.123580   -3.639437   -1.836489
     42          8           0      -26.882924   -4.574478   -2.081886
     43          8           0      -24.969420   -3.299386   -2.610352
     44          6           0      -24.611721   -4.202942   -3.711270
     45          1           0      -30.411427    1.813401   -3.838179
     46          1           0      -32.564651    3.527868    2.024119
     47          1           0      -29.273174   -1.263512    4.510439
     48          1           0      -26.922043   -1.258740   -3.590938
     49          1           0      -29.049833   -0.097771   -4.934388
     50          1           0      -26.436866    0.866453   -4.053734
     51          1           0      -27.614917    2.123339   -3.973740
     52          1           0      -27.437549    1.166551   -5.506345
     53          1           0      -29.900223   -2.167681   -4.264815
     54          1           0      -29.112835   -3.212427   -3.211704
     55          1           0      -29.181957   -3.762693   -5.859941
     56          1           0      -27.696632   -4.104048   -4.826071
     57          1           0      -33.152384    4.235357   -3.725840
     58          1           0      -31.730683    3.341185   -4.276882
     59          1           0      -31.420842    4.803682   -3.555755
     60          1           0      -33.309683    6.063932   -2.112980
     61          1           0      -34.761460    6.317341   -1.111002
     62          1           0      -34.709276    5.018310   -2.223830
     63          1           0      -32.958448    1.642042    4.198467
     64          1           0      -30.145304    1.089705    5.217610
     65          1           0      -31.198762    4.021926    4.121162
     66          1           0      -31.256127    3.032538    5.712224
     67          1           0      -32.725091    3.672794    5.076863
     68          1           0      -31.476003   -1.337791    5.108014
     69          1           0      -32.845748   -0.279775    5.371415
     70          1           0      -30.900901    0.477511    7.173512
     71          1           0      -30.825912   -1.284909    7.176036
     72          1           0      -32.373263   -0.388698    7.619891
     73          1           0      -28.112923   -3.483115    4.401900
     74          1           0      -26.940920   -2.354446    4.683872
     75          1           0      -26.530096   -3.826890    3.657242
     76          1           0      -25.450059   -1.880170   -0.859258
     77          1           0      -23.672143   -3.896827   -4.171998
     78          1           0      -25.325133   -4.056827   -4.522528
     79          1           0      -24.472460   -5.209030   -3.317087
     80         12           0       30.110207    0.385544   -0.191914
     81          6           0       27.100810   -1.448171   -0.256008
     82          6           0       28.292921    3.106651   -0.925186
     83          6           0       32.862704    2.047655    0.392689
     84          6           0       31.591095   -2.525390    1.258570
     85          7           0       27.928657    0.765124   -0.501769
     86          6           0       26.886580   -0.097117   -0.567780
     87          6           0       25.573456    0.562425   -0.937519
     88          6           0       26.099289    1.978261   -1.406389
     89          6           0       27.533720    2.006456   -0.920756
     90          6           0       25.998883    2.244965   -2.964955
     91          6           0       24.376697    0.690482    0.102798
     92          6           0       24.596696    0.473846    1.623581
     93          1           0       23.726839    1.324080    2.623189
     94          7           0       30.512037    2.349865   -0.405001
     95          6           0       29.639597    3.329073   -0.602525
     96          6           0       30.348158    4.633961   -0.500681
     97          6           0       31.777998    4.284587   -0.266908
     98          6           0       31.750544    2.835346   -0.067218
     99          6           0       29.713992    5.963758   -0.807876
    100          6           0       32.913431    5.265304   -0.132648
    101          8           0       32.682869    6.460278   -0.300541
    102          6           0       34.389561    4.902647    0.273130
    103          7           0       32.010320   -0.142105    0.835836
    104          6           0       32.947776    0.735381    0.734267
    105          6           0       34.291839    0.059610    1.259590
    106          6           0       33.761796   -1.292739    1.740612
    107          6           0       32.323135   -1.340336    1.263205
    108          6           0       35.495708   -0.051331    0.309243
    109          6           0       33.678662   -1.421421    3.349101
    110          6           0       34.628996   -2.439207    4.006088
    111          7           0       29.533977   -1.553810    0.457051
    112          6           0       30.237885   -2.643735    0.896485
    113          6           0       29.397436   -3.867845    0.839435
    114          6           0       28.084221   -3.431357    0.505303
    115          6           0       28.292372   -2.021164    0.181332
    116          6           0       29.793485   -5.293381    1.284531
    117          6           0       26.715778   -3.776881    0.309850
    118          8           0       26.036129   -4.792523    0.536713
    119          6           0       26.021069   -2.518782   -0.270487
    120          6           0       25.448439   -2.918399   -1.633467
    121          8           0       24.329214   -3.132016   -2.017304
    122          8           0       26.480937   -2.819342   -2.572431
    123          6           0       26.136116   -3.050372   -4.009642
    124          1           0       27.675033    3.977004   -1.156564
    125          1           0       33.769111    2.641150    0.534800
    126          1           0       32.124881   -3.457630    1.452827
    127          1           0       25.239534    0.026474   -1.825790
    128          1           0       25.500673    2.757428   -0.934296
    129          1           0       25.623827    1.365384   -3.487111
    130          1           0       27.051207    2.305016   -3.240474
    131          1           0       25.415587    3.148013   -3.145811
    132          1           0       23.598312    0.004479   -0.231544
    133          1           0       23.919410    1.674250   -0.008285
    134          1           0       25.646699    0.705510    1.802406
    135          1           0       24.294345   -0.511762    1.976166
    136          1           0       30.439407    6.766024   -0.941309
    137          1           0       28.955220    6.124319   -0.041071
    138          1           0       29.127387    5.765713   -1.705574
    139          1           0       34.945451    4.127944   -0.256345
    140          1           0       34.372005    4.518630    1.293098
    141          1           0       35.052513    5.765744    0.219934
    142          1           0       34.730209    0.629906    2.077854
    143          1           0       34.290748   -2.200301    1.447602
    144          1           0       35.286773    0.392854   -0.664103
    145          1           0       35.835496   -1.082554    0.207528
    146          1           0       36.370590    0.502142    0.650357
    147          1           0       32.685859   -1.724806    3.678537
    148          1           0       33.876947   -0.419370    3.730083
    149          1           0       34.246140   -2.929630    4.901422
    150          1           0       35.490982   -1.855138    4.328373
    151          1           0       34.806167   -3.163243    3.210707
    152          1           0       30.711518   -5.356653    1.867835
    153          1           0       29.935100   -5.830523    0.347022
    154          1           0       28.933317   -5.745448    1.777720
    155          1           0       25.210067   -2.217237    0.391597
    156          1           0       25.323211   -3.736278   -4.246997
    157          1           0       27.034347   -3.524372   -4.404928
    158          1           0       25.985887   -2.184233   -4.654429
 ---------------------------------------------------------------------

 SCF Done:  E(RCAM-B3LYP) =  -4069.76223027     A.U. after   19 cycles

 Excitation energies and oscillator strengths:

 Excited State   1:      Singlet-A      1.7690 eV  700.86 nm  f=0.4069  <S**2>=0.000
     309 -> 316        0.18508
     312 -> 313        0.68378
     309 <- 316        0.10632
 This state for optimization and/or second-order correction.
 Total Energy, E(TD-HF/TD-DFT) =  -4069.69721996
 Copying the excited state density for this state as the 1-particle RhoCI density.

 Excited State   2:      Singlet-A      1.7997 eV  688.91 nm  f=0.3683  <S**2>=0.000
     310 -> 315       -0.21209
     311 -> 314        0.67497
     310 <- 315       -0.10952

 Excited State   3:      Singlet-A      2.2245 eV  557.36 nm  f=0.0808  <S**2>=0.000
     310 -> 314        0.62933
     311 -> 315        0.30796

 Excited State   4:      Singlet-A      2.2834 eV  542.99 nm  f=0.0990  <S**2>=0.000
     309 -> 313        0.63711
     312 -> 316       -0.29627

 Excited State   5:      Singlet-A      3.3138 eV  374.14 nm  f=0.0000  <S**2>=0.000
     311 -> 313        0.70711

 The electronic state is 1-A.
 Alpha  occ. eigenvalues --  -46.90077 -46.89398 -19.24606 -19.23948 -19.20422
 Alpha  occ. eigenvalues --  -19.20225 -19.19473 -19.19003 -19.18609 -19.18458
 Alpha  occ. eigenvalues --  -14.42324 -14.42158 -14.41849 -14.41729 -14.40444
 Alpha  occ. eigenvalues --  -14.40173 -14.39978 -14.38573 -10.39887 -10.39298
 Alpha  occ. eigenvalues --  -10.35697 -10.35615 -10.35131 -10.34494 -10.31874
 Alpha  occ. eigenvalues --  -10.31531 -10.31529 -10.31131 -10.31093 -10.31035
 Alpha  occ. eigenvalues --  -10.30971 -10.30779 -10.30757 -10.30738 -10.30714
 Alpha  occ. eigenvalues --  -10.30626 -10.30315 -10.30254 -10.30184 -10.30116
 Alpha  occ. eigenvalues --  -10.30109 -10.29875 -10.29412 -10.29337 -10.28976
 Alpha  occ. eigenvalues --  -10.28805 -10.28763 -10.28667 -10.28651 -10.28577
 Alpha  occ. eigenvalues --  -10.28398 -10.28391 -10.28313 -10.28027 -10.28017
 Alpha  occ. eigenvalues --  -10.27918 -10.27843 -10.27829 -10.27632 -10.27602
 Alpha  occ. eigenvalues --  -10.27571 -10.27546 -10.27496 -10.27474 -10.27382
 Alpha  occ. eigenvalues --  -10.27255 -10.27191 -10.27098 -10.26981 -10.26843
 Alpha  occ. eigenvalues --  -10.26593 -10.26578 -10.26388 -10.26387 -10.26381
 Alpha  occ. eigenvalues --  -10.26352 -10.26235 -10.26186 -10.26033 -10.25914
 Alpha  occ. eigenvalues --  -10.25833 -10.25817 -10.25797 -10.25411 -10.25388
 Alpha  occ. eigenvalues --  -10.24647  -3.18555  -3.17851  -1.93443  -1.93009
 Alpha  occ. eigenvalues --   -1.92858  -1.92755  -1.92318  -1.92137  -1.16066
 Alpha  occ. eigenvalues --   -1.13972  -1.09579  -1.09427  -1.09337  -1.07293
 Alpha  occ. eigenvalues --   -1.07286  -1.06754  -1.06732  -1.05788  -1.05217
 Alpha  occ. eigenvalues --   -1.04834  -1.04021  -1.03494  -1.03312  -1.01475
 Alpha  occ. eigenvalues --   -0.93593  -0.92963  -0.89816  -0.89504  -0.88833
 Alpha  occ. eigenvalues --   -0.88624  -0.88616  -0.88311  -0.87904  -0.87558
 Alpha  occ. eigenvalues --   -0.87382  -0.86915  -0.86912  -0.85420  -0.84901
 Alpha  occ. eigenvalues --   -0.84279  -0.83979  -0.83967  -0.82912  -0.82730
 Alpha  occ. eigenvalues --   -0.82065  -0.81803  -0.81516  -0.80819  -0.80674
 Alpha  occ. eigenvalues --   -0.80556  -0.78975  -0.78528  -0.77720  -0.77719
 Alpha  occ. eigenvalues --   -0.77039  -0.76975  -0.76700  -0.75895  -0.75380
 Alpha  occ. eigenvalues --   -0.75242  -0.73330  -0.73229  -0.72408  -0.72261
 Alpha  occ. eigenvalues --   -0.69576  -0.69278  -0.68937  -0.68702  -0.68601
 Alpha  occ. eigenvalues --   -0.67932  -0.67538  -0.67232  -0.66867  -0.65930
 Alpha  occ. eigenvalues --   -0.65706  -0.65667  -0.65601  -0.65523  -0.64885
 Alpha  occ. eigenvalues --   -0.64606  -0.63173  -0.61262  -0.60614  -0.60542
 Alpha  occ. eigenvalues --   -0.60211  -0.60152  -0.59476  -0.59294  -0.58563
 Alpha  occ. eigenvalues --   -0.58353  -0.58098  -0.57747  -0.57344  -0.57322
 Alpha  occ. eigenvalues --   -0.57001  -0.56382  -0.55886  -0.55773  -0.55706
 Alpha  occ. eigenvalues --   -0.55485  -0.55084  -0.54541  -0.54453  -0.53958
 Alpha  occ. eigenvalues --   -0.53800  -0.53622  -0.53537  -0.53226  -0.53020
 Alpha  occ. eigenvalues --   -0.52971  -0.52835  -0.52612  -0.52478  -0.52247
 Alpha  occ. eigenvalues --   -0.52029  -0.51777  -0.51560  -0.51546  -0.51257
 Alpha  occ. eigenvalues --   -0.51122  -0.51116  -0.50923  -0.50628  -0.50555
 Alpha  occ. eigenvalues --   -0.50353  -0.50027  -0.49872  -0.49810  -0.49565
 Alpha  occ. eigenvalues --   -0.49499  -0.49207  -0.49038  -0.48886  -0.48793
 Alpha  occ. eigenvalues --   -0.48672  -0.48565  -0.48526  -0.48387  -0.48303
 Alpha  occ. eigenvalues --   -0.48050  -0.47910  -0.47816  -0.47643  -0.47621
 Alpha  occ. eigenvalues --   -0.47446  -0.47319  -0.47247  -0.47037  -0.46944
 Alpha  occ. eigenvalues --   -0.46798  -0.46657  -0.46306  -0.46289  -0.46109
 Alpha  occ. eigenvalues --   -0.46097  -0.45912  -0.45592  -0.45539  -0.45369
 Alpha  occ. eigenvalues --   -0.45346  -0.44918  -0.44880  -0.44233  -0.44219
 Alpha  occ. eigenvalues --   -0.43935  -0.43928  -0.43918  -0.43591  -0.43564
 Alpha  occ. eigenvalues --   -0.43342  -0.43305  -0.43135  -0.42994  -0.42689
 Alpha  occ. eigenvalues --   -0.42612  -0.42263  -0.42084  -0.42021  -0.41941
 Alpha  occ. eigenvalues --   -0.41694  -0.41586  -0.41476  -0.41258  -0.41178
 Alpha  occ. eigenvalues --   -0.41064  -0.40932  -0.40761  -0.40694  -0.40653
 Alpha  occ. eigenvalues --   -0.40295  -0.40060  -0.39979  -0.39246  -0.39035
 Alpha  occ. eigenvalues --   -0.38863  -0.38494  -0.38218  -0.37836  -0.37668
 Alpha  occ. eigenvalues --   -0.37405  -0.36905  -0.36672  -0.36453  -0.36330
 Alpha  occ. eigenvalues --   -0.36112  -0.35644  -0.35022  -0.34482  -0.34274
 Alpha  occ. eigenvalues --   -0.33908  -0.33655  -0.33555  -0.31919  -0.31800
 Alpha  occ. eigenvalues --   -0.31422  -0.31300  -0.31056  -0.30974  -0.30509
 Alpha  occ. eigenvalues --   -0.30252  -0.29299  -0.29279  -0.24502  -0.24166
 Alpha  occ. eigenvalues --   -0.21677  -0.21542
 Alpha virt. eigenvalues --   -0.08922  -0.08618  -0.02654  -0.02041  -0.00627
 Alpha virt. eigenvalues --   -0.00241   0.01178   0.01859   0.02253   0.02320
 Alpha virt. eigenvalues --    0.04297   0.04575   0.04960   0.05431   0.05503

 Mulliken charges:
               1
     1  Mg  11.999996
     2  C    5.999869
     3  C    6.000053
     4  C    6.000110
     5  C    6.000007
     6  N    6.999975
     7  C    6.000158
     8  C    5.999969
     9  C    6.000069
    10  C    5.999839
    11  C    6.000031
    12  C    5.999993
    13  C    5.999993
    14  H    1.000034
    15  N    7.000068
    16  C    5.999779
    17  C    5.999834
    18  C    5.999977
    19  C    5.999769
    20  C    6.000058
    21  C    5.999903
    22  O    7.999849
    23  C    6.000056
    24  N    6.999973
    25  C    5.999849
    26  C    6.000067
    27  C    5.999963
    28  C    6.000140
    29  C    6.000022
    30  C    5.999968
    31  C    5.999995
    32  N    6.999997
    33  C    6.000155
    34  C    6.000215
    35  C    5.999958
    36  C    6.000205
    37  C    5.999940
    38  C    6.000125
    39  O    8.000201
    40  C    6.000000
    41  C    6.000025
    42  O    8.000037
    43  O    8.000010
    44  C    5.999976
    45  H    0.999954
    46  H    0.999958
    47  H    1.000043
    48  H    0.999993
    49  H    0.999957
    50  H    0.999931
    51  H    1.000006
    52  H    0.999962
    53  H    1.000058
    54  H    0.999966
    55  H    1.000015
    56  H    0.999989
    57  H    0.999881
    58  H    0.999891
    59  H    0.999854
    60  H    0.999956
    61  H    0.999900
    62  H    0.999948
    63  H    0.999972
    64  H    0.999992
    65  H    1.000017
    66  H    0.999943
    67  H    0.999986
    68  H    0.999978
    69  H    1.000061
    70  H    1.000024
    71  H    0.999993
    72  H    1.000027
    73  H    1.000124
    74  H    1.000162
    75  H    1.000109
    76  H    1.000045
    77  H    1.000043
    78  H    1.000028
    79  H    1.000024
    80  Mg  12.004619
    81  C    6.018259
    82  C    5.976431
    83  C    5.975297
    84  C    6.024111
    85  N    6.998874
    86  C    5.967094
    87  C    6.013120
    88  C    5.990025
    89  C    6.029529
    90  C    5.998358
    91  C    5.998368
    92  C    6.008991
    93  H    0.989028
    94  N    6.989441
    95  C    6.051962
    96  C    6.029589
    97  C    6.006183
    98  C    6.046737
    99  C    5.997394
   100  C    6.009921
   101  O    8.018047
   102  C    5.997285
   103  N    7.003242
   104  C    6.028654
   105  C    5.992337
   106  C    6.004962
   107  C    5.964780
   108  C    5.999253
   109  C    6.007172
   110  C    6.000181
   111  N    7.003848
   112  C    5.957096
   113  C    5.970277
   114  C    5.991087
   115  C    5.971663
   116  C    6.001163
   117  C    5.983670
   118  O    7.965703
   119  C    5.999865
   120  C    5.998645
   121  O    7.990809
   122  O    8.003269
   123  C    6.003385
   124  H    1.008200
   125  H    1.008286
   126  H    0.993588
   127  H    0.998269
   128  H    1.001293
   129  H    1.014423
   130  H    0.994941
   131  H    1.001610
   132  H    1.001655
   133  H    0.989967
   134  H    0.996273
   135  H    1.004789
   136  H    1.016559
   137  H    1.023196
   138  H    1.022537
   139  H    1.011602
   140  H    1.010202
   141  H    1.012477
   142  H    1.000143
   143  H    1.000633
   144  H    0.996401
   145  H    1.010495
   146  H    1.000116
   147  H    1.004024
   148  H    0.985710
   149  H    0.999746
   150  H    0.993345
   151  H    1.001104
   152  H    0.979664
   153  H    0.980719
   154  H    0.984636
   155  H    0.989615
   156  H    0.996551
   157  H    0.997556
   158  H    0.989951
 Sum of Mulliken charges = 624.00000

 Dipole moment (field-independent basis, Debye):
    X=              3.3306    Y=             10.3890    Z=             -1.5116  Tot=             11.0140
 Quadrupole moment (field-independent basis, Debye-Ang):
   XX=            191.9163   YY=              9.1448   ZZ=             -2.1175
   XY=            313.5537   XZ=            -47.4082   YZ=             -0.1297

 Normal termination of Gaussian 16 at Wed Sep 22 03:54:26 2021.
