 Gaussian 16, Revision A.03,
 Gaussian 16:  ES64L-G16RevA.03 25-Dec-2016

 ----------------------------------------------------------
 #p cam-b3lyp/Def2SVP td=(nstates=5) density=(transition=1)
 ----------------------------------------------------------

 --------------------------------
 TDDFT excited states in gaussian
 --------------------------------
 Symbolic Z-matrix:
 Charge =  0 Multiplicity = 1

                         Standard orientation:
 ---------------------------------------------------------------------
 Center     Atomic      Atomic             Coordinates (Angstroms)
 Number     Number       Type             X           Y           Z
 ---------------------------------------------------------------------
      1         12           0       19.557818    0.053110   -0.584779
      2          6           0       17.073901    1.253381    1.611508
      3          6           0       20.533557   -2.159294    1.857478
      4          6           0       21.999322   -1.092224   -2.586726
      5          6           0       18.910753    2.687520   -2.794841
      6          7           0       18.745899   -0.415651    1.390654
      7          6           0       17.776852    0.113039    2.132425
      8          6           0       17.540189   -0.527286    3.516095
      9          6           0       18.893925   -1.388292    3.563823
     10          6           0       19.465394   -1.278406    2.171343
     11          6           0       19.874432   -0.920824    4.611876
     12          6           0       16.202404   -1.450034    3.607931
     13          6           0       15.634838   -1.545640    5.027148
     14          1           0       14.195032   -0.989312    5.173191
     15          7           0       20.991189   -1.555594   -0.477781
     16          6           0       21.247739   -2.322066    0.685960
     17          6           0       22.113812   -3.407946    0.285321
     18          6           0       22.541627   -3.141141   -1.012133
     19          6           0       21.835082   -1.895717   -1.447459
     20          6           0       22.624064   -4.476590    1.233520
     21          6           0       23.459976   -3.900708   -1.941892
     22          8           0       23.622386   -3.514516   -3.062519
     23          6           0       24.125992   -5.176874   -1.534014
     24          7           0       20.486187    0.796936   -2.319695
     25          6           0       21.434848    0.102624   -3.012295
     26          6           0       21.681775    0.893488   -4.326950
     27          6           0       20.399023    1.655297   -4.608231
     28          6           0       19.865309    1.772633   -3.161112
     29          6           0       22.822809    1.886928   -4.112568
     30          6           0       19.472704    0.984647   -5.553838
     31          6           0       19.170393   -0.481823   -5.369019
     32          7           0       18.254724    1.646641   -0.657841
     33          6           0       18.091046    2.650026   -1.594275
     34          6           0       16.997160    3.531520   -1.157817
     35          6           0       16.571202    2.994554    0.069499
     36          6           0       17.339324    1.889914    0.317975
     37          6           0       16.518123    4.734300   -1.849040
     38          6           0       15.564901    3.052703    1.095595
     39          8           0       14.573436    3.826598    1.240688
     40          6           0       15.869053    1.865296    2.126423
     41          6           0       16.136666    2.517343    3.458167
     42          8           0       16.875958    3.447423    3.588936
     43          8           0       15.496129    1.915550    4.575075
     44          6           0       16.009382    2.348319    5.910405
     45          1           0       20.891944   -2.833027    2.637821
     46          1           0       22.846077   -1.368540   -3.219051
     47          1           0       18.540548    3.422875   -3.512606
     48          1           0       17.417960    0.250249    4.271182
     49          1           0       18.551057   -2.397640    3.794660
     50          1           0       19.728135   -1.571772    5.473679
     51          1           0       19.793688    0.145873    4.822083
     52          1           0       20.842789   -1.225720    4.215243
     53          1           0       16.429688   -2.464402    3.278595
     54          1           0       15.440106   -1.090390    2.916507
     55          1           0       16.387426   -1.000172    5.596886
     56          1           0       15.685538   -2.560031    5.422340
     57          1           0       21.926608   -4.445722    2.069743
     58          1           0       23.571739   -4.061004    1.574826
     59          1           0       22.626496   -5.468540    0.781254
     60          1           0       23.257495   -5.835731   -1.530060
     61          1           0       24.562583   -5.162882   -0.535734
     62          1           0       24.871318   -5.469173   -2.274505
     63          1           0       21.990955    0.291501   -5.180719
     64          1           0       20.529561    2.636763   -5.062856
     65          1           0       22.599195    2.941425   -3.950582
     66          1           0       23.479898    1.816402   -4.979317
     67          1           0       23.410717    1.542502   -3.261020
     68          1           0       19.772662    1.133369   -6.591416
     69          1           0       18.536208    1.527797   -5.428470
     70          1           0       18.124423   -0.529374   -5.064697
     71          1           0       19.704493   -1.126329   -4.670213
     72          1           0       19.221902   -0.961925   -6.346106
     73          1           0       17.286937    5.502179   -1.763748
     74          1           0       15.580797    4.965862   -1.343300
     75          1           0       16.390535    4.556907   -2.917760
     76          1           0       14.987711    1.226010    2.071717
     77          1           0       15.610831    3.329365    6.168682
     78          1           0       17.098514    2.386711    5.960368
     79          1           0       15.686042    1.750923    6.762374
     80         12           0      -19.426715    0.396033    0.153450
     81          6           0      -18.218173   -2.798210    0.075361
     82          6           0      -16.089847    1.479693    0.748108
     83          6           0      -20.506916    3.577790   -0.155590
     84          6           0      -22.380370   -0.717619   -1.320604
     85          7           0      -17.251319   -0.593363    0.013542
     86          6           0      -17.097776   -1.932222    0.215037
     87          6           0      -15.636929   -2.263836    0.345054
     88          6           0      -14.926870   -0.853441    0.535178
     89          6           0      -16.135727    0.131132    0.448743
     90          6           0      -13.845602   -0.788483    1.551133
     91          6           0      -14.940063   -3.229228   -0.726291
     92          6           0      -15.451081   -3.209151   -2.136407
     93          1           0      -14.415438   -3.091397   -3.245852
     94          7           0      -18.480898    2.238437    0.514606
     95          6           0      -17.164944    2.478301    0.762568
     96          6           0      -16.888991    3.877348    0.904481
     97          6           0      -18.226823    4.515504    0.755257
     98          6           0      -19.152067    3.431048    0.360137
     99          6           0      -15.619392    4.529936    1.180570
    100          6           0      -18.615093    5.974308    0.948878
    101          8           0      -17.787005    6.799479    1.107199
    102          6           0      -20.001925    6.549085    0.864332
    103          7           0      -21.106669    1.284834   -0.732941
    104          6           0      -21.378261    2.586333   -0.552145
    105          6           0      -22.720052    3.006736   -1.352050
    106          6           0      -23.445681    1.573964   -1.361250
    107          6           0      -22.238675    0.684218   -1.182167
    108          6           0      -23.560875    4.113332   -0.709284
    109          6           0      -24.329249    1.360158   -2.603518
    110          6           0      -25.759208    0.824245   -2.466220
    111          7           0      -20.131135   -1.379137   -0.602113
    112          6           0      -21.362854   -1.729282   -1.141131
    113          6           0      -21.479226   -3.125896   -1.306998
    114          6           0      -20.297080   -3.639585   -0.799834
    115          6           0      -19.483150   -2.531778   -0.371356
    116          6           0      -22.652937   -3.894523   -1.830542
    117          6           0      -19.527874   -4.764131   -0.462789
    118          8           0      -19.819814   -5.944866   -0.641438
    119          6           0      -18.101898   -4.298486   -0.052149
    120          6           0      -17.865161   -5.030529    1.260626
    121          8           0      -16.858085   -5.729311    1.502024
    122          8           0      -18.865191   -4.656989    2.127226
    123          6           0      -18.817153   -4.983736    3.573396
    124          1           0      -15.034037    1.752828    0.802814
    125          1           0      -20.777734    4.595533   -0.443810
    126          1           0      -23.336612   -1.064634   -1.716733
    127          1           0      -15.502435   -2.876338    1.237351
    128          1           0      -14.425560   -0.643913   -0.409308
    129          1           0      -13.940743    0.056798    2.232608
    130          1           0      -12.854398   -0.866616    1.104442
    131          1           0      -13.925902   -1.648660    2.215841
    132          1           0      -14.997724   -4.289708   -0.480744
    133          1           0      -13.904992   -2.918718   -0.872202
    134          1           0      -16.310962   -2.560824   -2.301537
    135          1           0      -15.806078   -4.216734   -2.355361
    136          1           0      -15.005815    3.859931    1.782020
    137          1           0      -15.712252    5.483760    1.698527
    138          1           0      -15.139673    4.698955    0.215840
    139          1           0      -20.498221    5.655801    1.244338
    140          1           0      -20.311387    6.763560   -0.158097
    141          1           0      -20.211270    7.435855    1.462818
    142          1           0      -22.397245    3.229560   -2.369482
    143          1           0      -24.079558    1.303977   -0.516977
    144          1           0      -24.439218    3.631934   -0.278454
    145          1           0      -23.697277    4.939503   -1.406486
    146          1           0      -23.059463    4.602333    0.125390
    147          1           0      -23.784024    0.678461   -3.256842
    148          1           0      -24.328902    2.288500   -3.174925
    149          1           0      -26.565305    1.349784   -2.978418
    150          1           0      -26.044199    0.632297   -1.430965
    151          1           0      -25.645056   -0.201568   -2.815158
    152          1           0      -22.800395   -4.871706   -1.370051
    153          1           0      -22.522737   -4.031847   -2.904240
    154          1           0      -23.607096   -3.395048   -1.657575
    155          1           0      -17.486462   -4.660965   -0.874624
    156          1           0      -19.190992   -4.173154    4.198695
    157          1           0      -17.780254   -5.190587    3.838757
    158          1           0      -19.347689   -5.850337    3.965915
 ---------------------------------------------------------------------

 SCF Done:  E(RCAM-B3LYP) =  -4069.75302875     A.U. after   18 cycles

 Excitation energies and oscillator strengths:

 Excited State   1:      Singlet-A      1.6346 eV  758.49 nm  f=0.3826  <S**2>=0.000
     309 -> 315        0.16910
     311 -> 313        0.68874
     309 <- 315        0.10872
 This state for optimization and/or second-order correction.
 Total Energy, E(TD-HF/TD-DFT) =  -4069.69295734
 Copying the excited state density for this state as the 1-particle RhoCI density.

 Excited State   2:      Singlet-A      1.6958 eV  731.14 nm  f=0.3741  <S**2>=0.000
     310 -> 316        0.17410
     312 -> 314        0.68764
     310 <- 316        0.10609

 Excited State   3:      Singlet-A      2.1488 eV  576.98 nm  f=0.1479  <S**2>=0.000
     309 -> 313        0.65217
     311 -> 315       -0.25540

 Excited State   4:      Singlet-A      2.1842 eV  567.65 nm  f=0.1185  <S**2>=0.000
     310 -> 314        0.64716
     312 -> 316       -0.27038

 Excited State   5:      Singlet-A      2.9470 eV  420.72 nm  f=0.0000  <S**2>=0.000
     312 -> 313        0.70710

 The electronic state is 1-A.
 Alpha  occ. eigenvalues --  -46.89937 -46.88615 -19.26215 -19.24490 -19.20317
 Alpha  occ. eigenvalues --  -19.20035 -19.19075 -19.18468 -19.18232 -19.17224
 Alpha  occ. eigenvalues --  -14.43407 -14.42570 -14.42023 -14.41332 -14.40042
 Alpha  occ. eigenvalues --  -14.39698 -14.39649 -14.39048 -10.40469 -10.39390
 Alpha  occ. eigenvalues --  -10.35180 -10.34732 -10.34267 -10.33562 -10.32816
 Alpha  occ. eigenvalues --  -10.32079 -10.31842 -10.31675 -10.31594 -10.31264
 Alpha  occ. eigenvalues --  -10.31112 -10.30999 -10.30940 -10.30915 -10.30747
 Alpha  occ. eigenvalues --  -10.30686 -10.30600 -10.30511 -10.30166 -10.29430
 Alpha  occ. eigenvalues --  -10.29381 -10.29377 -10.28886 -10.28848 -10.28844
 Alpha  occ. eigenvalues --  -10.28796 -10.28453 -10.28421 -10.28379 -10.28359
 Alpha  occ. eigenvalues --  -10.28301 -10.28285 -10.28236 -10.28192 -10.28188
 Alpha  occ. eigenvalues --  -10.28120 -10.27955 -10.27947 -10.27791 -10.27521
 Alpha  occ. eigenvalues --  -10.27508 -10.27498 -10.27220 -10.27216 -10.27118
 Alpha  occ. eigenvalues --  -10.27111 -10.26782 -10.26770 -10.26718 -10.26685
 Alpha  occ. eigenvalues --  -10.26680 -10.26643 -10.26582 -10.26409 -10.26335
 Alpha  occ. eigenvalues --  -10.26215 -10.26050 -10.25613 -10.25503 -10.25388
 Alpha  occ. eigenvalues --  -10.25151 -10.25108 -10.25098 -10.25063 -10.24453
 Alpha  occ. eigenvalues --  -10.24418  -3.18409  -3.17110  -1.93267  -1.92901
 Alpha  occ. eigenvalues --   -1.92684  -1.92032  -1.91542  -1.91427  -1.15675
 Alpha  occ. eigenvalues --   -1.15606  -1.12110  -1.11401  -1.09348  -1.07373
 Alpha  occ. eigenvalues --   -1.07247  -1.06646  -1.05289  -1.05159  -1.04355
 Alpha  occ. eigenvalues --   -1.03530  -1.02927  -1.02927  -1.02147  -1.01761
 Alpha  occ. eigenvalues --   -0.93684  -0.92943  -0.90041  -0.89835  -0.89431
 Alpha  occ. eigenvalues --   -0.88825  -0.88727  -0.88396  -0.87935  -0.87841
 Alpha  occ. eigenvalues --   -0.87244  -0.86927  -0.86213  -0.85877  -0.84699
 Alpha  occ. eigenvalues --   -0.84544  -0.83992  -0.83565  -0.83093  -0.82623
 Alpha  occ. eigenvalues --   -0.82466  -0.82171  -0.81106  -0.80978  -0.80583
 Alpha  occ. eigenvalues --   -0.79915  -0.78905  -0.78512  -0.77801  -0.77340
 Alpha  occ. eigenvalues --   -0.77099  -0.76985  -0.76692  -0.76278  -0.75470
 Alpha  occ. eigenvalues --   -0.74982  -0.73580  -0.72450  -0.71748  -0.71326
 Alpha  occ. eigenvalues --   -0.70029  -0.69697  -0.69384  -0.68842  -0.68399
 Alpha  occ. eigenvalues --   -0.67835  -0.67116  -0.66563  -0.66269  -0.65823
 Alpha  occ. eigenvalues --   -0.65489  -0.64933  -0.64709  -0.64396  -0.64197
 Alpha  occ. eigenvalues --   -0.63591  -0.63402  -0.61761  -0.60377  -0.60277
 Alpha  occ. eigenvalues --   -0.59932  -0.59390  -0.59139  -0.58975  -0.58883
 Alpha  occ. eigenvalues --   -0.58602  -0.58060  -0.57620  -0.57587  -0.57213
 Alpha  occ. eigenvalues --   -0.56525  -0.56389  -0.55795  -0.55755  -0.55323
 Alpha  occ. eigenvalues --   -0.55106  -0.54779  -0.54534  -0.54462  -0.54083
 Alpha  occ. eigenvalues --   -0.53974  -0.53970  -0.53712  -0.53609  -0.53270
 Alpha  occ. eigenvalues --   -0.53181  -0.53038  -0.52505  -0.52429  -0.52074
 Alpha  occ. eigenvalues --   -0.51875  -0.51839  -0.51799  -0.51627  -0.51522
 Alpha  occ. eigenvalues --   -0.51345  -0.51076  -0.50835  -0.50726  -0.50689
 Alpha  occ. eigenvalues --   -0.50588  -0.50197  -0.50004  -0.49975  -0.49708
 Alpha  occ. eigenvalues --   -0.49686  -0.49580  -0.49457  -0.49202  -0.49180
 Alpha  occ. eigenvalues --   -0.49069  -0.48991  -0.48295  -0.48224  -0.48215
 Alpha  occ. eigenvalues --   -0.47866  -0.47728  -0.47644  -0.47553  -0.47301
 Alpha  occ. eigenvalues --   -0.47216  -0.47169  -0.47078  -0.46893  -0.46702
 Alpha  occ. eigenvalues --   -0.46409  -0.46349  -0.46138  -0.45871  -0.45613
 Alpha  occ. eigenvalues --   -0.45551  -0.45526  -0.45399  -0.45313  -0.45213
 Alpha  occ. eigenvalues --   -0.45014  -0.44951  -0.44880  -0.44314  -0.44164
 Alpha  occ. eigenvalues --   -0.44149  -0.43996  -0.43725  -0.43497  -0.43376
 Alpha  occ. eigenvalues --   -0.43149  -0.43101  -0.43065  -0.42845  -0.42703
 Alpha  occ. eigenvalues --   -0.42633  -0.42518  -0.42459  -0.42369  -0.42072
 Alpha  occ. eigenvalues --   -0.41936  -0.41816  -0.41721  -0.41552  -0.41479
 Alpha  occ. eigenvalues --   -0.41282  -0.41037  -0.40924  -0.40559  -0.40373
 Alpha  occ. eigenvalues --   -0.40266  -0.40221  -0.39740  -0.39517  -0.39026
 Alpha  occ. eigenvalues --   -0.38669  -0.38337  -0.37979  -0.37709  -0.37362
 Alpha  occ. eigenvalues --   -0.37278  -0.37122  -0.36877  -0.36424  -0.36187
 Alpha  occ. eigenvalues --   -0.36142  -0.35597  -0.34779  -0.34676  -0.34512
 Alpha  occ. eigenvalues --   -0.33858  -0.33199  -0.33076  -0.31707  -0.31562
 Alpha  occ. eigenvalues --   -0.31363  -0.30888  -0.30500  -0.30308  -0.30003
 Alpha  occ. eigenvalues --   -0.29536  -0.29323  -0.28341  -0.24453  -0.24137
 Alpha  occ. eigenvalues --   -0.21710  -0.21381
 Alpha virt. eigenvalues --   -0.09657  -0.08954  -0.01950  -0.01732   0.00153
 Alpha virt. eigenvalues --    0.00443   0.01008   0.02179   0.02702   0.03269
 Alpha virt. eigenvalues --    0.04575   0.04659   0.04923   0.05306   0.05625

 Mulliken charges:
               1
     1  Mg  11.999963
     2  C    6.000236
     3  C    5.999714
     4  C    5.999802
     5  C    6.000240
     6  N    7.000107
     7  C    5.999509
     8  C    6.000166
     9  C    5.999773
    10  C    6.000542
    11  C    5.999927
    12  C    6.000017
    13  C    6.000031
    14  H    0.999932
    15  N    6.999850
    16  C    6.000647
    17  C    6.000127
    18  C    6.000326
    19  C    6.000394
    20  C    5.999963
    21  C    6.000162
    22  O    8.000362
    23  C    5.999936
    24  N    7.000021
    25  C    6.000324
    26  C    5.999952
    27  C    6.000044
    28  C    5.999644
    29  C    6.000009
    30  C    6.000082
    31  C    5.999993
    32  N    6.999973
    33  C    5.999463
    34  C    5.999594
    35  C    5.999918
    36  C    5.999667
    37  C    6.000069
    38  C    5.999790
    39  O    7.999468
    40  C    6.000007
    41  C    5.999920
    42  O    7.999940
    43  O    7.999956
    44  C    6.000055
    45  H    1.000169
    46  H    1.000114
    47  H    0.999859
    48  H    1.000000
    49  H    1.000127
    50  H    1.000134
    51  H    1.000156
    52  H    0.999966
    53  H    0.999911
    54  H    1.000055
    55  H    0.999962
    56  H    0.999984
    57  H    1.000206
    58  H    1.000207
    59  H    1.000247
    60  H    1.000128
    61  H    1.000110
    62  H    1.000225
    63  H    1.000038
    64  H    0.999982
    65  H    1.000132
    66  H    1.000061
    67  H    0.999935
    68  H    0.999933
    69  H    1.000041
    70  H    1.000066
    71  H    0.999814
    72  H    1.000018
    73  H    0.999698
    74  H    0.999735
    75  H    0.999722
    76  H    0.999868
    77  H    0.999895
    78  H    0.999966
    79  H    0.999926
    80  Mg  12.003243
    81  C    6.005310
    82  C    5.977403
    83  C    5.977414
    84  C    6.020791
    85  N    6.992725
    86  C    5.972256
    87  C    6.010528
    88  C    5.984612
    89  C    6.039534
    90  C    5.998853
    91  C    6.000814
    92  C    6.003178
    93  H    0.988622
    94  N    6.993010
    95  C    6.050509
    96  C    6.023833
    97  C    6.007204
    98  C    6.047485
    99  C    5.993738
   100  C    6.010843
   101  O    8.020515
   102  C    6.000171
   103  N    7.003968
   104  C    6.030953
   105  C    5.989637
   106  C    6.012972
   107  C    5.960484
   108  C    5.999537
   109  C    6.001932
   110  C    5.998645
   111  N    7.004340
   112  C    5.959664
   113  C    5.976584
   114  C    5.990618
   115  C    5.971012
   116  C    6.003694
   117  C    5.984471
   118  O    7.964068
   119  C    6.000952
   120  C    5.993970
   121  O    7.988620
   122  O    8.005397
   123  C    6.005697
   124  H    1.008812
   125  H    1.006696
   126  H    0.992377
   127  H    1.001510
   128  H    1.005796
   129  H    0.994057
   130  H    1.004245
   131  H    1.009614
   132  H    1.002978
   133  H    0.989898
   134  H    1.004520
   135  H    1.003911
   136  H    1.020246
   137  H    1.016902
   138  H    1.023598
   139  H    1.004801
   140  H    1.012519
   141  H    1.013560
   142  H    1.004538
   143  H    0.995865
   144  H    1.008546
   145  H    1.001194
   146  H    0.992965
   147  H    1.003123
   148  H    0.989340
   149  H    0.994997
   150  H    0.998889
   151  H    1.005122
   152  H    0.985529
   153  H    0.980799
   154  H    0.980730
   155  H    0.991348
   156  H    0.992517
   157  H    0.992984
   158  H    0.995667
 Sum of Mulliken charges = 624.00000

 Dipole moment (field-independent basis, Debye):
    X=              4.1808    Y=             10.0347    Z=              2.2938  Tot=             11.1102
 Quadrupole moment (field-independent basis, Debye-Ang):
   XX=           -152.6819   YY=              5.9537   ZZ=             -2.1467
   XY=           -193.4995   XZ=            -45.1500   YZ=              1.9877

 Normal termination of Gaussian 16 at Tue Sep 21 17:08:53 2021.
