 Gaussian 16, Revision A.03,
 Gaussian 16:  ES64L-G16RevA.03 25-Dec-2016

 ----------------------------------------------------------
 #p cam-b3lyp/Def2SVP td=(nstates=5) density=(transition=1)
 ----------------------------------------------------------

 --------------------------------
 TDDFT excited states in gaussian
 --------------------------------
 Symbolic Z-matrix:
 Charge =  0 Multiplicity = 1

                         Standard orientation:
 ---------------------------------------------------------------------
 Center     Atomic      Atomic             Coordinates (Angstroms)
 Number     Number       Type             X           Y           Z
 ---------------------------------------------------------------------
      1         12           0       20.837249    0.503262   -0.157519
      2          6           0       19.818258   -2.737676   -0.376551
      3          6           0       17.797589    1.210626    1.355541
      4          6           0       21.995593    3.604935    0.399669
      5          6           0       24.101249   -0.444068   -1.071103
      6          7           0       19.116683   -0.709875    0.654841
      7          6           0       18.948409   -2.018234    0.376889
      8          6           0       17.729809   -2.582878    1.010584
      9          6           0       16.890481   -1.178064    1.244095
     10          6           0       17.997225   -0.115480    1.078088
     11          6           0       15.680756   -1.028254    0.275016
     12          6           0       18.099860   -3.263324    2.318948
     13          6           0       18.890714   -2.434777    3.434204
     14          1           0       18.541369   -2.597654    4.908256
     15          7           0       20.027216    2.171060    0.744584
     16          6           0       18.690152    2.314285    1.194056
     17          6           0       18.491418    3.696296    1.478132
     18          6           0       19.664012    4.412709    1.272894
     19          6           0       20.639261    3.442504    0.747377
     20          6           0       17.120558    4.135536    1.950996
     21          6           0       19.922966    5.865948    1.591117
     22          8           0       18.954921    6.494519    2.087104
     23          6           0       21.190757    6.515191    1.576138
     24          7           0       22.842490    1.375292   -0.114832
     25          6           0       23.025448    2.711789    0.086682
     26          6           0       24.515638    3.102429   -0.059723
     27          6           0       25.171769    1.763159   -0.537042
     28          6           0       23.989351    0.809553   -0.506633
     29          6           0       24.744729    4.273143   -0.991657
     30          6           0       26.394523    1.330039    0.434975
     31          6           0       27.622042    0.789931   -0.307629
     32          7           0       21.868022   -1.255054   -0.662832
     33          6           0       23.096907   -1.475952   -1.197329
     34          6           0       23.095361   -2.820083   -1.707410
     35          6           0       21.805840   -3.408934   -1.466818
     36          6           0       21.115116   -2.408865   -0.802580
     37          6           0       24.302452   -3.573653   -2.150504
     38          6           0       20.969186   -4.564426   -1.520575
     39          8           0       21.290417   -5.637901   -2.045760
     40          6           0       19.663623   -4.162011   -0.859940
     41          6           0       18.564454   -4.339441   -1.839806
     42          8           0       18.387734   -5.432271   -2.341267
     43          8           0       17.782332   -3.239836   -2.020727
     44          6           0       16.679445   -3.409878   -2.968694
     45          1           0       16.762743    1.485561    1.569380
     46          1           0       22.280686    4.658255    0.362905
     47          1           0       25.033866   -0.774960   -1.533522
     48          1           0       17.153632   -3.320760    0.452237
     49          1           0       16.369674   -1.191620    2.202413
     50          1           0       14.758348   -0.922549    0.844890
     51          1           0       15.615516   -1.956946   -0.292506
     52          1           0       15.768336   -0.209493   -0.440351
     53          1           0       18.610322   -4.191372    2.060725
     54          1           0       17.140173   -3.663945    2.645229
     55          1           0       18.854744   -1.350089    3.332067
     56          1           0       19.898503   -2.835177    3.327935
     57          1           0       17.119263    3.966579    3.027985
     58          1           0       16.368967    3.485251    1.505147
     59          1           0       16.840242    5.166781    1.734296
     60          1           0       21.240219    7.324596    2.305189
     61          1           0       21.521942    6.804107    0.577836
     62          1           0       21.878243    5.783740    1.998755
     63          1           0       24.809109    3.336051    0.964297
     64          1           0       25.451911    1.851733   -1.586520
     65          1           0       23.828227    4.743956   -1.346267
     66          1           0       25.432248    4.200009   -1.833882
     67          1           0       25.101321    5.046535   -0.310729
     68          1           0       26.128167    0.566564    1.165982
     69          1           0       26.709525    2.146278    1.084831
     70          1           0       28.406226    1.544683   -0.255004
     71          1           0       27.368372    0.702386   -1.364294
     72          1           0       27.990713   -0.149096    0.105472
     73          1           0       24.779188   -3.260800   -3.078672
     74          1           0       23.977476   -4.612260   -2.222675
     75          1           0       25.112252   -3.515650   -1.423129
     76          1           0       19.519684   -4.853861   -0.029531
     77          1           0       16.064175   -4.238534   -2.616988
     78          1           0       17.009351   -3.541605   -3.999309
     79          1           0       16.121852   -2.480015   -3.079742
     80         12           0      -21.394950   -0.004318   -0.614774
     81          6           0      -18.026814   -0.185942    0.546418
     82          6           0      -21.946735   -2.736615    1.185802
     83          6           0      -24.711753    0.617114   -0.799552
     84          6           0      -20.613653    3.339433   -1.568242
     85          7           0      -20.151113   -1.326280    0.567144
     86          6           0      -18.769895   -1.283347    0.855947
     87          6           0      -18.290221   -2.478160    1.738946
     88          6           0      -19.601710   -3.303669    1.867529
     89          6           0      -20.632543   -2.462349    1.085528
     90          6           0      -19.310192   -4.717903    1.338685
     91          6           0      -17.651789   -2.139454    3.154759
     92          6           0      -16.175976   -2.473402    3.339088
     93          1           0      -15.798356   -3.396583    4.515526
     94          7           0      -23.079015   -0.936777   -0.014239
     95          6           0      -23.087092   -2.099562    0.755908
     96          6           0      -24.399210   -2.586330    0.901005
     97          6           0      -25.249295   -1.737143    0.216869
     98          6           0      -24.414311   -0.638365   -0.224557
     99          6           0      -24.894409   -3.879280    1.649296
    100          6           0      -26.731850   -1.992163    0.077983
    101          8           0      -27.278471   -2.992254    0.437398
    102          6           0      -27.552120   -0.872617   -0.732856
    103          7           0      -22.523799    1.744892   -1.041488
    104          6           0      -23.890861    1.712546   -1.087925
    105          6           0      -24.378784    3.197354   -1.342056
    106          6           0      -23.140353    4.032076   -1.708594
    107          6           0      -21.996897    2.989355   -1.408862
    108          6           0      -25.557094    3.327003   -2.264967
    109          6           0      -23.016372    5.206581   -0.745984
    110          6           0      -22.228687    6.401922   -1.212561
    111          7           0      -19.619896    1.255542   -0.770124
    112          6           0      -19.473112    2.554081   -1.196110
    113          6           0      -18.106786    2.930825   -1.159749
    114          6           0      -17.410550    1.866519   -0.539485
    115          6           0      -18.432529    0.927815   -0.222039
    116          6           0      -17.523263    4.236756   -1.524165
    117          6           0      -16.147166    1.317866   -0.028360
    118          8           0      -15.007700    1.795240   -0.113534
    119          6           0      -16.470613   -0.052843    0.680997
    120          6           0      -15.909563   -1.128190   -0.092642
    121          8           0      -16.438457   -1.497773   -1.167655
    122          8           0      -14.788938   -1.533037    0.536751
    123          6           0      -14.109055   -2.767461    0.057195
    124          1           0      -22.157161   -3.656016    1.736776
    125          1           0      -25.789963    0.754691   -0.905476
    126          1           0      -20.294834    4.308150   -1.957785
    127          1           0      -17.551086   -3.064490    1.193143
    128          1           0      -19.972219   -3.375932    2.889625
    129          1           0      -20.267891   -5.234174    1.279159
    130          1           0      -18.638073   -5.324534    1.945461
    131          1           0      -18.868553   -4.705419    0.341609
    132          1           0      -18.151091   -2.829123    3.835347
    133          1           0      -17.869165   -1.106278    3.425892
    134          1           0      -15.640086   -1.528039    3.430665
    135          1           0      -15.814091   -2.993870    2.451677
    136          1           0      -25.665855   -3.539415    2.340585
    137          1           0      -24.092246   -4.358712    2.210135
    138          1           0      -25.225223   -4.700069    1.012978
    139          1           0      -28.561779   -1.268714   -0.837276
    140          1           0      -26.993329   -0.790194   -1.665393
    141          1           0      -27.452170   -0.005961   -0.079458
    142          1           0      -24.738704    3.509155   -0.360943
    143          1           0      -23.092724    4.422237   -2.725211
    144          1           0      -25.489324    4.289072   -2.772104
    145          1           0      -26.440716    3.262612   -1.629701
    146          1           0      -25.682328    2.494564   -2.956416
    147          1           0      -22.613688    4.922215    0.226602
    148          1           0      -23.989084    5.584401   -0.431116
    149          1           0      -21.995284    6.367723   -2.276574
    150          1           0      -21.295377    6.424229   -0.649579
    151          1           0      -22.706834    7.327766   -0.892882
    152          1           0      -18.113620    4.742955   -2.288591
    153          1           0      -16.524376    4.013631   -1.899839
    154          1           0      -17.549955    4.829766   -0.609697
    155          1           0      -16.216022   -0.090397    1.740193
    156          1           0      -13.070907   -2.502770    0.263147
    157          1           0      -14.309296   -3.007726   -0.986553
    158          1           0      -14.263769   -3.601036    0.743092
 ---------------------------------------------------------------------

 SCF Done:  E(RCAM-B3LYP) =  -4069.80959635     A.U. after   18 cycles

 Excitation energies and oscillator strengths:

 Excited State   1:      Singlet-A      1.7225 eV  719.78 nm  f=0.3846  <S**2>=0.000
     310 -> 316        0.17103
     312 -> 314        0.68723
     310 <- 316        0.10382
 This state for optimization and/or second-order correction.
 Total Energy, E(TD-HF/TD-DFT) =  -4069.74629444
 Copying the excited state density for this state as the 1-particle RhoCI density.

 Excited State   2:      Singlet-A      1.7419 eV  711.79 nm  f=0.3951  <S**2>=0.000
     309 -> 315        0.17687
     311 -> 313        0.68503
     309 <- 315        0.10387

 Excited State   3:      Singlet-A      2.2176 eV  559.10 nm  f=0.1301  <S**2>=0.000
     309 -> 313        0.65046
     311 -> 315       -0.25334

 Excited State   4:      Singlet-A      2.2584 eV  549.00 nm  f=0.1171  <S**2>=0.000
     310 -> 314        0.63725
     312 -> 316       -0.28973

 Excited State   5:      Singlet-A      3.0744 eV  403.28 nm  f=0.0000  <S**2>=0.000
     312 -> 313        0.70710

 The electronic state is 1-A.
 Alpha  occ. eigenvalues --  -46.89106 -46.88522 -19.26521 -19.26390 -19.19674
 Alpha  occ. eigenvalues --  -19.19653 -19.19475 -19.18746 -19.18276 -19.18158
 Alpha  occ. eigenvalues --  -14.42545 -14.42193 -14.42077 -14.42058 -14.39786
 Alpha  occ. eigenvalues --  -14.39517 -14.38602 -14.38480 -10.39520 -10.39464
 Alpha  occ. eigenvalues --  -10.35488 -10.35403 -10.34832 -10.34446 -10.32856
 Alpha  occ. eigenvalues --  -10.32739 -10.31677 -10.31648 -10.31505 -10.31215
 Alpha  occ. eigenvalues --  -10.31184 -10.31001 -10.30611 -10.30517 -10.30488
 Alpha  occ. eigenvalues --  -10.30385 -10.30208 -10.29628 -10.29197 -10.29044
 Alpha  occ. eigenvalues --  -10.29022 -10.28698 -10.28558 -10.28456 -10.28373
 Alpha  occ. eigenvalues --  -10.28350 -10.28338 -10.28275 -10.28224 -10.28204
 Alpha  occ. eigenvalues --  -10.28148 -10.28035 -10.28019 -10.27968 -10.27789
 Alpha  occ. eigenvalues --  -10.27728 -10.27631 -10.27396 -10.27357 -10.27324
 Alpha  occ. eigenvalues --  -10.27290 -10.27227 -10.27196 -10.27172 -10.27120
 Alpha  occ. eigenvalues --  -10.27100 -10.26994 -10.26932 -10.26849 -10.26769
 Alpha  occ. eigenvalues --  -10.26543 -10.26463 -10.26452 -10.26369 -10.26336
 Alpha  occ. eigenvalues --  -10.26267 -10.26010 -10.25854 -10.25765 -10.25616
 Alpha  occ. eigenvalues --  -10.25549 -10.25449 -10.25178 -10.24970 -10.24847
 Alpha  occ. eigenvalues --  -10.24548  -3.17558  -3.17120  -1.92435  -1.92033
 Alpha  occ. eigenvalues --   -1.91997  -1.91841  -1.91555  -1.91446  -1.17414
 Alpha  occ. eigenvalues --   -1.16657  -1.11991  -1.09050  -1.08678  -1.08393
 Alpha  occ. eigenvalues --   -1.07991  -1.07410  -1.04981  -1.04540  -1.04129
 Alpha  occ. eigenvalues --   -1.03191  -1.02847  -1.02728  -1.01757  -1.01513
 Alpha  occ. eigenvalues --   -0.94069  -0.92224  -0.89677  -0.89358  -0.89279
 Alpha  occ. eigenvalues --   -0.89044  -0.88748  -0.88721  -0.87789  -0.87344
 Alpha  occ. eigenvalues --   -0.86655  -0.86518  -0.86323  -0.85844  -0.85098
 Alpha  occ. eigenvalues --   -0.84828  -0.84250  -0.84128  -0.83349  -0.83308
 Alpha  occ. eigenvalues --   -0.82801  -0.81922  -0.81456  -0.81146  -0.80897
 Alpha  occ. eigenvalues --   -0.80323  -0.78623  -0.77990  -0.77740  -0.77389
 Alpha  occ. eigenvalues --   -0.77059  -0.76695  -0.76269  -0.76162  -0.75141
 Alpha  occ. eigenvalues --   -0.74956  -0.72764  -0.72512  -0.72123  -0.71734
 Alpha  occ. eigenvalues --   -0.70147  -0.69269  -0.69122  -0.68844  -0.68628
 Alpha  occ. eigenvalues --   -0.67767  -0.67254  -0.67128  -0.66559  -0.65709
 Alpha  occ. eigenvalues --   -0.65614  -0.65335  -0.65214  -0.65009  -0.64572
 Alpha  occ. eigenvalues --   -0.64389  -0.63824  -0.62251  -0.60240  -0.60157
 Alpha  occ. eigenvalues --   -0.59733  -0.59645  -0.59443  -0.59338  -0.58825
 Alpha  occ. eigenvalues --   -0.58531  -0.58385  -0.58224  -0.58020  -0.57157
 Alpha  occ. eigenvalues --   -0.56841  -0.56585  -0.56422  -0.56056  -0.55803
 Alpha  occ. eigenvalues --   -0.55158  -0.54986  -0.54704  -0.54518  -0.54290
 Alpha  occ. eigenvalues --   -0.54251  -0.53826  -0.53753  -0.53482  -0.53179
 Alpha  occ. eigenvalues --   -0.53072  -0.52886  -0.52488  -0.52483  -0.52415
 Alpha  occ. eigenvalues --   -0.51887  -0.51825  -0.51692  -0.51489  -0.51432
 Alpha  occ. eigenvalues --   -0.51248  -0.51079  -0.50919  -0.50589  -0.50360
 Alpha  occ. eigenvalues --   -0.50329  -0.50168  -0.49976  -0.49877  -0.49597
 Alpha  occ. eigenvalues --   -0.49468  -0.49185  -0.49116  -0.48934  -0.48751
 Alpha  occ. eigenvalues --   -0.48684  -0.48474  -0.48438  -0.48268  -0.48157
 Alpha  occ. eigenvalues --   -0.48072  -0.47626  -0.47529  -0.47494  -0.47095
 Alpha  occ. eigenvalues --   -0.46969  -0.46723  -0.46429  -0.46426  -0.46405
 Alpha  occ. eigenvalues --   -0.46306  -0.46098  -0.46051  -0.45735  -0.45640
 Alpha  occ. eigenvalues --   -0.45624  -0.45317  -0.45231  -0.45164  -0.44934
 Alpha  occ. eigenvalues --   -0.44857  -0.44744  -0.44657  -0.44619  -0.44538
 Alpha  occ. eigenvalues --   -0.44328  -0.44134  -0.43730  -0.43723  -0.43546
 Alpha  occ. eigenvalues --   -0.43477  -0.43298  -0.43094  -0.42811  -0.42808
 Alpha  occ. eigenvalues --   -0.42571  -0.42438  -0.42317  -0.42303  -0.42245
 Alpha  occ. eigenvalues --   -0.41946  -0.41903  -0.41782  -0.41670  -0.41650
 Alpha  occ. eigenvalues --   -0.41272  -0.41149  -0.40958  -0.40597  -0.40480
 Alpha  occ. eigenvalues --   -0.40224  -0.40123  -0.39527  -0.39193  -0.39168
 Alpha  occ. eigenvalues --   -0.38678  -0.38397  -0.38235  -0.37828  -0.37691
 Alpha  occ. eigenvalues --   -0.37617  -0.37517  -0.37228  -0.36886  -0.36714
 Alpha  occ. eigenvalues --   -0.36011  -0.35966  -0.34692  -0.34351  -0.34176
 Alpha  occ. eigenvalues --   -0.33991  -0.33103  -0.32943  -0.31801  -0.31777
 Alpha  occ. eigenvalues --   -0.30903  -0.30875  -0.30768  -0.30564  -0.30441
 Alpha  occ. eigenvalues --   -0.30097  -0.28985  -0.28940  -0.24295  -0.24282
 Alpha  occ. eigenvalues --   -0.21664  -0.21263
 Alpha virt. eigenvalues --   -0.09137  -0.08764  -0.01879  -0.01709   0.00153
 Alpha virt. eigenvalues --    0.00557   0.01347   0.02018   0.02174   0.02726
 Alpha virt. eigenvalues --    0.04544   0.04739   0.04990   0.05513   0.05627

 Mulliken charges:
               1
     1  Mg  12.000037
     2  C    5.999494
     3  C    6.000517
     4  C    6.000589
     5  C    5.999560
     6  N    6.999922
     7  C    6.000904
     8  C    5.999561
     9  C    6.000417
    10  C    5.999184
    11  C    6.000121
    12  C    5.999846
    13  C    5.999920
    14  H    1.000205
    15  N    7.000321
    16  C    5.998687
    17  C    5.999428
    18  C    5.999835
    19  C    5.998741
    20  C    6.000144
    21  C    5.999622
    22  O    7.999369
    23  C    6.000150
    24  N    6.999873
    25  C    5.999116
    26  C    6.000286
    27  C    5.999680
    28  C    6.000861
    29  C    5.999991
    30  C    5.999893
    31  C    5.999963
    32  N    6.999913
    33  C    6.001006
    34  C    6.000934
    35  C    6.000053
    36  C    6.000904
    37  C    5.999849
    38  C    6.000484
    39  O    8.000821
    40  C    6.000078
    41  C    6.000110
    42  O    8.000125
    43  O    8.000010
    44  C    5.999965
    45  H    0.999650
    46  H    0.999781
    47  H    1.000195
    48  H    1.000005
    49  H    0.999858
    50  H    0.999858
    51  H    0.999599
    52  H    1.000025
    53  H    0.999869
    54  H    1.000188
    55  H    1.000401
    56  H    0.999828
    57  H    0.999412
    58  H    0.999404
    59  H    0.999480
    60  H    0.999656
    61  H    0.999683
    62  H    0.999843
    63  H    0.999999
    64  H    1.000023
    65  H    1.000072
    66  H    0.999773
    67  H    1.000013
    68  H    0.999994
    69  H    1.000307
    70  H    1.000182
    71  H    0.999935
    72  H    0.999980
    73  H    1.000734
    74  H    1.000416
    75  H    1.000737
    76  H    1.000272
    77  H    1.000095
    78  H    1.000059
    79  H    1.000185
    80  Mg  11.999886
    81  C    5.975000
    82  C    6.008930
    83  C    6.025492
    84  C    5.986824
    85  N    6.984217
    86  C    6.032090
    87  C    5.986512
    88  C    6.015689
    89  C    5.967101
    90  C    6.003492
    91  C    5.997386
    92  C    5.997874
    93  H    1.007157
    94  N    7.006725
    95  C    5.959792
    96  C    5.976880
    97  C    5.989743
    98  C    5.958908
    99  C    6.003422
   100  C    5.992420
   101  O    7.982818
   102  C    5.996789
   103  N    7.004114
   104  C    5.968881
   105  C    6.004245
   106  C    5.992429
   107  C    6.033834
   108  C    6.000442
   109  C    5.991598
   110  C    5.999851
   111  N    6.999604
   112  C    6.039918
   113  C    6.026939
   114  C    6.007694
   115  C    6.034262
   116  C    5.997086
   117  C    6.016704
   118  O    8.031425
   119  C    6.002915
   120  C    6.002295
   121  O    8.005172
   122  O    8.001163
   123  C    5.997756
   124  H    0.985932
   125  H    0.994330
   126  H    1.009022
   127  H    1.001581
   128  H    0.997023
   129  H    1.005782
   130  H    0.987604
   131  H    0.989153
   132  H    1.009763
   133  H    0.997847
   134  H    0.994935
   135  H    0.998952
   136  H    0.983343
   137  H    0.981364
   138  H    0.980064
   139  H    0.987768
   140  H    0.992647
   141  H    0.991740
   142  H    0.999575
   143  H    1.003617
   144  H    0.990724
   145  H    1.004316
   146  H    1.002286
   147  H    1.002400
   148  H    1.013354
   149  H    0.999921
   150  H    0.994199
   151  H    1.005948
   152  H    1.019115
   153  H    1.015847
   154  H    1.022647
   155  H    1.011053
   156  H    1.002081
   157  H    1.003173
   158  H    1.007414
 Sum of Mulliken charges = 624.00000

 Dipole moment (field-independent basis, Debye):
    X=              8.7402    Y=              6.1183    Z=             -1.9802  Tot=             10.8510
 Quadrupole moment (field-independent basis, Debye-Ang):
   XX=           -358.2336   YY=              2.2545   ZZ=              0.7831
   XY=           -141.2533   XZ=             36.8491   YZ=             -1.0133

 Normal termination of Gaussian 16 at Wed Sep 22 18:30:54 2021.
