 Gaussian 16, Revision A.03,
 Gaussian 16:  ES64L-G16RevA.03 25-Dec-2016

 -----------------------------------
 #p cam-b3lyp/Def2SVP td=(nstates=5)
 -----------------------------------

 --------------------------------
 TDDFT excited states in gaussian
 --------------------------------
 Symbolic Z-matrix:
 Charge =  0 Multiplicity = 1

                         Standard orientation:
 ---------------------------------------------------------------------
 Center     Atomic      Atomic             Coordinates (Angstroms)
 Number     Number       Type             X           Y           Z
 ---------------------------------------------------------------------
      1         12           0       22.032343   -0.622706    0.464287
      2          6           0       21.685494    2.159575   -1.760757
      3          6           0       23.575961    1.502399    2.642414
      4          6           0       22.753779   -3.145686    2.244939
      5          6           0       21.511298   -2.698266   -2.286390
      6          7           0       22.509627    1.535578    0.343224
      7          6           0       22.269397    2.500760   -0.538753
      8          6           0       22.627712    3.922459   -0.011727
      9          6           0       23.703311    3.517586    1.093335
     10          6           0       23.214402    2.114214    1.405487
     11          6           0       25.127861    3.432998    0.554814
     12          6           0       21.395656    4.647852    0.626690
     13          6           0       21.574461    6.149570    0.867990
     14          1           0       20.427808    7.028274    0.693596
     15          7           0       22.570080   -0.740212    2.361623
     16          6           0       23.171770    0.227514    3.094263
     17          6           0       23.365061   -0.344152    4.444269
     18          6           0       22.999622   -1.786697    4.384149
     19          6           0       22.782111   -1.956896    2.970254
     20          6           0       23.801730    0.466007    5.626094
     21          6           0       22.877614   -2.846512    5.432975
     22          8           0       22.774314   -4.086311    5.138353
     23          6           0       22.972375   -2.398179    6.834068
     24          7           0       22.341085   -2.637436    0.013536
     25          6           0       22.582906   -3.531285    0.978700
     26          6           0       22.488467   -4.935146    0.458898
     27          6           0       21.889570   -4.820748   -1.016904
     28          6           0       21.816901   -3.277470   -1.123119
     29          6           0       23.805188   -5.722793    0.415675
     30          6           0       20.612029   -5.642104   -1.322974
     31          6           0       19.446736   -5.092827   -0.530834
     32          7           0       21.487578   -0.354597   -1.619554
     33          6           0       21.348827   -1.356988   -2.590447
     34          6           0       21.077083   -0.681743   -3.872737
     35          6           0       21.093170    0.676071   -3.559803
     36          6           0       21.384154    0.839618   -2.175292
     37          6           0       20.912299   -1.321425   -5.132931
     38          6           0       20.956593    2.027634   -4.077956
     39          8           0       20.618563    2.511835   -5.159056
     40          6           0       21.454905    3.045773   -2.959517
     41          6           0       20.421789    4.133034   -2.841854
     42          8           0       19.280018    3.885822   -2.402981
     43          8           0       21.006612    5.324924   -3.036593
     44          6           0       20.042119    6.449379   -2.904280
     45          1           0       24.278765    2.017266    3.300381
     46          1           0       22.888397   -4.048453    2.844379
     47          1           0       21.254313   -3.283873   -3.170967
     48          1           0       23.083913    4.579968   -0.751989
     49          1           0       23.634094    4.148748    1.979092
     50          1           0       25.150764    3.539123   -0.529683
     51          1           0       25.492159    2.448429    0.848759
     52          1           0       25.774760    4.153680    1.055729
     53          1           0       21.271710    4.308185    1.654952
     54          1           0       20.498557    4.483061    0.028875
     55          1           0       22.439570    6.539346    0.330801
     56          1           0       21.818397    6.299836    1.919710
     57          1           0       24.154066    1.452473    5.327280
     58          1           0       24.683266   -0.023552    6.039537
     59          1           0       23.025487    0.530666    6.388720
     60          1           0       23.933265   -1.907569    6.990727
     61          1           0       22.773875   -3.277830    7.445346
     62          1           0       22.208606   -1.641303    7.015024
     63          1           0       21.816454   -5.534638    1.071624
     64          1           0       22.602978   -5.146629   -1.774217
     65          1           0       23.774856   -6.657544    0.976056
     66          1           0       24.599003   -5.072621    0.782314
     67          1           0       24.163806   -5.959076   -0.585814
     68          1           0       20.746241   -6.679528   -1.018532
     69          1           0       20.340876   -5.638729   -2.378775
     70          1           0       19.560972   -5.577575    0.438084
     71          1           0       18.502612   -5.373469   -0.998894
     72          1           0       19.544697   -4.018825   -0.371434
     73          1           0       20.065343   -0.832888   -5.614559
     74          1           0       20.737974   -2.390622   -5.014477
     75          1           0       21.874186   -1.104068   -5.597027
     76          1           0       22.418179    3.430686   -3.292783
     77          1           0       20.090245    7.024066   -3.829295
     78          1           0       20.290959    6.963428   -1.975713
     79          1           0       18.985856    6.178688   -2.884899
     80         12           0      -21.601377   -0.614909   -0.419178
     81          6           0      -23.338394    1.604652    1.514278
     82          6           0      -19.980227    1.862558   -1.947687
     83          6           0      -20.219072   -2.874731   -2.317857
     84          6           0      -23.811560   -3.108014    0.846551
     85          7           0      -21.772930    1.547779   -0.360672
     86          6           0      -22.347297    2.191938    0.685835
     87          6           0      -21.839481    3.601049    0.824411
     88          6           0      -20.969962    3.733598   -0.489804
     89          6           0      -20.957128    2.321112   -1.032847
     90          6           0      -21.465507    4.808541   -1.486746
     91          6           0      -21.083784    3.913745    2.255680
     92          6           0      -21.458935    5.192595    3.019913
     93          1           0      -22.055854    6.366858    2.182243
     94          7           0      -20.213492   -0.540450   -1.745590
     95          6           0      -19.626302    0.552931   -2.298245
     96          6           0      -18.732164    0.231441   -3.383781
     97          6           0      -18.637268   -1.127290   -3.364066
     98          6           0      -19.803089   -1.563763   -2.534494
     99          6           0      -18.200127    1.388272   -4.209765
    100          6           0      -17.710127   -2.043523   -4.187197
    101          8           0      -17.740437   -3.251450   -4.145787
    102          6           0      -16.770440   -1.302138   -5.091585
    103          7           0      -22.114818   -2.676841   -0.793719
    104          6           0      -21.259938   -3.384943   -1.553544
    105          6           0      -21.608251   -4.876430   -1.523685
    106          6           0      -22.545405   -4.991081   -0.273738
    107          6           0      -22.881425   -3.501237   -0.057625
    108          6           0      -22.226157   -5.534332   -2.830240
    109          6           0      -21.896334   -5.577542    1.036184
    110          6           0      -20.697696   -4.954788    1.702283
    111          7           0      -23.201749   -0.838277    0.966536
    112          6           0      -24.073628   -1.870846    1.326777
    113          6           0      -25.069774   -1.420371    2.307156
    114          6           0      -24.810710   -0.046247    2.420756
    115          6           0      -23.676520    0.214014    1.588842
    116          6           0      -26.083039   -2.245514    3.058127
    117          6           0      -25.205579    1.146047    3.018876
    118          8           0      -26.122860    1.439657    3.769533
    119          6           0      -24.142190    2.214138    2.654265
    120          6           0      -24.975804    3.372792    2.259671
    121          8           0      -25.527860    3.517555    1.166280
    122          8           0      -25.159418    4.227722    3.307566
    123          6           0      -26.186807    5.269969    3.216445
    124          1           0      -19.334409    2.676232   -2.284968
    125          1           0      -19.764632   -3.692738   -2.879395
    126          1           0      -24.385981   -3.976520    1.177759
    127          1           0      -22.651157    4.316569    0.692376
    128          1           0      -19.938206    3.943111   -0.208354
    129          1           0      -21.976876    4.313948   -2.312475
    130          1           0      -20.598116    5.332875   -1.887784
    131          1           0      -22.147015    5.453636   -0.932089
    132          1           0      -20.023446    3.944944    2.004764
    133          1           0      -21.279424    3.116552    2.972137
    134          1           0      -20.567301    5.650358    3.447507
    135          1           0      -22.087845    4.940625    3.873693
    136          1           0      -18.958636    1.976235   -4.726785
    137          1           0      -17.619018    1.201528   -5.112640
    138          1           0      -17.606286    1.915757   -3.463272
    139          1           0      -16.168740   -0.593094   -4.523471
    140          1           0      -17.454423   -0.897345   -5.837228
    141          1           0      -15.985852   -1.857846   -5.603870
    142          1           0      -20.624021   -5.327145   -1.391324
    143          1           0      -23.466406   -5.491510   -0.573605
    144          1           0      -22.306517   -4.779825   -3.612406
    145          1           0      -23.262664   -5.824679   -2.662774
    146          1           0      -21.717825   -6.419001   -3.216745
    147          1           0      -21.677753   -6.587730    0.689055
    148          1           0      -22.610756   -5.641338    1.856316
    149          1           0      -20.286342   -4.176621    1.058038
    150          1           0      -19.909204   -5.694734    1.838781
    151          1           0      -20.879259   -4.437481    2.644159
    152          1           0      -27.099445   -2.078528    2.704330
    153          1           0      -26.022126   -2.023056    4.123581
    154          1           0      -25.821295   -3.266048    2.777540
    155          1           0      -23.452888    2.399827    3.478170
    156          1           0      -26.551189    5.576005    4.197804
    157          1           0      -26.955352    5.022550    2.485770
    158          1           0      -25.814826    6.184265    2.754430
 ---------------------------------------------------------------------

 SCF Done:  E(RCAM-B3LYP) =  -4069.80675492     A.U. after   19 cycles

 Excitation energies and oscillator strengths:

 Excited State   1:      Singlet-A      1.6799 eV  738.06 nm  f=0.3858  <S**2>=0.000
     309 -> 315        0.17554
     311 -> 313        0.68569
     309 <- 315        0.10513
 This state for optimization and/or second-order correction.
 Total Energy, E(TD-HF/TD-DFT) =  -4069.74502110
 Copying the excited state density for this state as the 1-particle RhoCI density.

 Excited State   2:      Singlet-A      1.7684 eV  701.09 nm  f=0.3773  <S**2>=0.000
     310 -> 316       -0.19166
     312 -> 314        0.68182
     310 <- 316       -0.10600

 Excited State   3:      Singlet-A      2.1926 eV  565.48 nm  f=0.0984  <S**2>=0.000
     309 -> 313        0.64072
     311 -> 315       -0.27826

 Excited State   4:      Singlet-A      2.2757 eV  544.81 nm  f=0.0579  <S**2>=0.000
     310 -> 314        0.61594
     312 -> 316        0.33784

 Excited State   5:      Singlet-A      3.0051 eV  412.57 nm  f=0.0000  <S**2>=0.000
     312 -> 313        0.70711

 The electronic state is 1-A.
 Alpha  occ. eigenvalues --  -46.87945 -46.87804 -19.26294 -19.23901 -19.19921
 Alpha  occ. eigenvalues --  -19.19030 -19.18822 -19.18328 -19.18179 -19.17639
 Alpha  occ. eigenvalues --  -14.42458 -14.41697 -14.41457 -14.41048 -14.39989
 Alpha  occ. eigenvalues --  -14.39410 -14.38738 -14.38595 -10.39089 -10.38243
 Alpha  occ. eigenvalues --  -10.35950 -10.35455 -10.34399 -10.33535 -10.31690
 Alpha  occ. eigenvalues --  -10.31413 -10.30916 -10.30816 -10.30647 -10.30578
 Alpha  occ. eigenvalues --  -10.30572 -10.30515 -10.30439 -10.30232 -10.30214
 Alpha  occ. eigenvalues --  -10.30124 -10.29929 -10.29639 -10.29262 -10.29020
 Alpha  occ. eigenvalues --  -10.28954 -10.28914 -10.28757 -10.28705 -10.28546
 Alpha  occ. eigenvalues --  -10.28373 -10.28124 -10.28051 -10.27839 -10.27815
 Alpha  occ. eigenvalues --  -10.27801 -10.27799 -10.27751 -10.27735 -10.27732
 Alpha  occ. eigenvalues --  -10.27592 -10.27581 -10.27548 -10.27509 -10.27487
 Alpha  occ. eigenvalues --  -10.27477 -10.27457 -10.27411 -10.27316 -10.27228
 Alpha  occ. eigenvalues --  -10.27167 -10.26712 -10.26506 -10.26482 -10.26415
 Alpha  occ. eigenvalues --  -10.26252 -10.26241 -10.26192 -10.26028 -10.26027
 Alpha  occ. eigenvalues --  -10.26025 -10.25889 -10.25853 -10.25552 -10.25443
 Alpha  occ. eigenvalues --  -10.25204 -10.25043 -10.24841 -10.24795 -10.24696
 Alpha  occ. eigenvalues --  -10.24048  -3.16800  -3.16547  -1.91665  -1.91429
 Alpha  occ. eigenvalues --   -1.91269  -1.91133  -1.91015  -1.90857  -1.16643
 Alpha  occ. eigenvalues --   -1.14831  -1.11514  -1.08990  -1.08636  -1.07223
 Alpha  occ. eigenvalues --   -1.06652  -1.05910  -1.05576  -1.04686  -1.04589
 Alpha  occ. eigenvalues --   -1.04101  -1.03768  -1.03242  -1.02984  -1.02419
 Alpha  occ. eigenvalues --   -0.92329  -0.91980  -0.89616  -0.89528  -0.89195
 Alpha  occ. eigenvalues --   -0.88408  -0.88295  -0.88012  -0.87947  -0.87879
 Alpha  occ. eigenvalues --   -0.87681  -0.87455  -0.87281  -0.86546  -0.84990
 Alpha  occ. eigenvalues --   -0.84361  -0.83945  -0.83573  -0.82974  -0.82696
 Alpha  occ. eigenvalues --   -0.82656  -0.82591  -0.81595  -0.81051  -0.80604
 Alpha  occ. eigenvalues --   -0.80514  -0.79011  -0.78805  -0.77452  -0.77226
 Alpha  occ. eigenvalues --   -0.76970  -0.76942  -0.75931  -0.75690  -0.75198
 Alpha  occ. eigenvalues --   -0.74906  -0.72782  -0.72629  -0.71680  -0.71674
 Alpha  occ. eigenvalues --   -0.69915  -0.69631  -0.69015  -0.68881  -0.68138
 Alpha  occ. eigenvalues --   -0.67649  -0.67304  -0.67227  -0.65403  -0.65294
 Alpha  occ. eigenvalues --   -0.64962  -0.64862  -0.64734  -0.64629  -0.64277
 Alpha  occ. eigenvalues --   -0.63749  -0.62307  -0.61702  -0.61104  -0.60449
 Alpha  occ. eigenvalues --   -0.59812  -0.59306  -0.59272  -0.58995  -0.58512
 Alpha  occ. eigenvalues --   -0.57917  -0.57790  -0.57593  -0.57538  -0.57317
 Alpha  occ. eigenvalues --   -0.56318  -0.56292  -0.55988  -0.55528  -0.55348
 Alpha  occ. eigenvalues --   -0.55304  -0.55106  -0.54659  -0.54532  -0.54404
 Alpha  occ. eigenvalues --   -0.53902  -0.53624  -0.53307  -0.53230  -0.53195
 Alpha  occ. eigenvalues --   -0.52923  -0.52763  -0.52612  -0.52607  -0.52447
 Alpha  occ. eigenvalues --   -0.52426  -0.52285  -0.51924  -0.51624  -0.51618
 Alpha  occ. eigenvalues --   -0.51246  -0.51204  -0.50599  -0.50579  -0.50449
 Alpha  occ. eigenvalues --   -0.50220  -0.50039  -0.49925  -0.49522  -0.49486
 Alpha  occ. eigenvalues --   -0.49322  -0.49223  -0.49104  -0.49081  -0.48765
 Alpha  occ. eigenvalues --   -0.48601  -0.48561  -0.48469  -0.48453  -0.48051
 Alpha  occ. eigenvalues --   -0.48000  -0.47772  -0.47702  -0.47304  -0.47158
 Alpha  occ. eigenvalues --   -0.46805  -0.46786  -0.46644  -0.46563  -0.46501
 Alpha  occ. eigenvalues --   -0.46367  -0.46171  -0.45831  -0.45696  -0.45470
 Alpha  occ. eigenvalues --   -0.45238  -0.45209  -0.44816  -0.44586  -0.44514
 Alpha  occ. eigenvalues --   -0.44498  -0.44153  -0.44104  -0.44096  -0.44027
 Alpha  occ. eigenvalues --   -0.43899  -0.43819  -0.43504  -0.43450  -0.43393
 Alpha  occ. eigenvalues --   -0.43162  -0.43035  -0.42896  -0.42835  -0.42708
 Alpha  occ. eigenvalues --   -0.42664  -0.42424  -0.42127  -0.42018  -0.41833
 Alpha  occ. eigenvalues --   -0.41712  -0.41562  -0.41541  -0.41239  -0.41149
 Alpha  occ. eigenvalues --   -0.41049  -0.40877  -0.40830  -0.40736  -0.40579
 Alpha  occ. eigenvalues --   -0.40509  -0.40241  -0.39577  -0.39449  -0.39194
 Alpha  occ. eigenvalues --   -0.38477  -0.38456  -0.38183  -0.37756  -0.37328
 Alpha  occ. eigenvalues --   -0.37271  -0.36991  -0.36722  -0.36436  -0.36261
 Alpha  occ. eigenvalues --   -0.36201  -0.35141  -0.34346  -0.34294  -0.33780
 Alpha  occ. eigenvalues --   -0.33267  -0.33194  -0.32928  -0.32481  -0.31351
 Alpha  occ. eigenvalues --   -0.31349  -0.31043  -0.30704  -0.30079  -0.30038
 Alpha  occ. eigenvalues --   -0.29699  -0.29457  -0.29330  -0.24088  -0.23800
 Alpha  occ. eigenvalues --   -0.21135  -0.20595
 Alpha virt. eigenvalues --   -0.08782  -0.07816  -0.01757  -0.01740  -0.00065
 Alpha virt. eigenvalues --    0.00236   0.02192   0.02289   0.03037   0.03115
 Alpha virt. eigenvalues --    0.04710   0.05035   0.05088   0.06122   0.06169

 Mulliken charges:
               1
     1  Mg   0.838750
     2  C   -0.002988
     3  C   -0.094132
     4  C   -0.045876
     5  C   -0.063955
     6  N   -0.256804
     7  C   -0.052460
     8  C   -0.014007
     9  C   -0.087001
    10  C    0.046351
    11  C    0.104808
    12  C    0.053455
    13  C   -0.071808
    14  H    0.036117
    15  N   -0.433143
    16  C    0.168440
    17  C   -0.177137
    18  C   -0.003996
    19  C    0.148731
    20  C    0.110173
    21  C    0.012303
    22  O   -0.249616
    23  C    0.062469
    24  N   -0.341155
    25  C    0.041258
    26  C   -0.028187
    27  C   -0.023984
    28  C    0.074846
    29  C    0.076174
    30  C    0.035143
    31  C   -0.004505
    32  N   -0.310462
    33  C    0.080387
    34  C   -0.169731
    35  C    0.008348
    36  C    0.082984
    37  C    0.127317
    38  C    0.046103
    39  O   -0.188486
    40  C   -0.005317
    41  C    0.212871
    42  O   -0.257112
    43  O   -0.304793
    44  C    0.157697
    45  H   -0.017583
    46  H   -0.016826
    47  H   -0.041511
    48  H    0.000930
    49  H   -0.004018
    50  H    0.025471
    51  H    0.016452
    52  H    0.016674
    53  H    0.011221
    54  H    0.044110
    55  H    0.017871
    56  H    0.017972
    57  H    0.005887
    58  H    0.026843
    59  H    0.039582
    60  H    0.037357
    61  H    0.035672
    62  H    0.031518
    63  H    0.016558
    64  H    0.009457
    65  H    0.023220
    66  H    0.012554
    67  H    0.004751
    68  H    0.006366
    69  H    0.004711
    70  H    0.008791
    71  H    0.018122
    72  H    0.028984
    73  H    0.047534
    74  H    0.009100
    75  H    0.046002
    76  H    0.035149
    77  H    0.042926
    78  H    0.046419
    79  H    0.053665
    80  Mg   0.850589
    81  C    0.012174
    82  C   -0.109473
    83  C   -0.070328
    84  C   -0.108761
    85  N   -0.257945
    86  C   -0.051845
    87  C   -0.000870
    88  C   -0.101403
    89  C    0.045308
    90  C    0.094740
    91  C    0.048932
    92  C   -0.072546
    93  H    0.012986
    94  N   -0.419488
    95  C    0.163753
    96  C   -0.108883
    97  C   -0.091228
    98  C    0.161850
    99  C    0.094034
   100  C    0.026229
   101  O   -0.168438
   102  C    0.036200
   103  N   -0.251386
   104  C    0.003057
   105  C   -0.036993
   106  C    0.001968
   107  C   -0.034616
   108  C    0.070315
   109  C    0.035406
   110  C    0.008527
   111  N   -0.312636
   112  C    0.155305
   113  C   -0.183117
   114  C    0.078814
   115  C    0.062708
   116  C    0.144281
   117  C   -0.022501
   118  O   -0.177580
   119  C    0.001693
   120  C    0.195345
   121  O   -0.239447
   122  O   -0.323704
   123  C    0.190514
   124  H   -0.033037
   125  H   -0.010540
   126  H   -0.035055
   127  H    0.022029
   128  H    0.005890
   129  H    0.023430
   130  H    0.016559
   131  H    0.024981
   132  H    0.008961
   133  H    0.018135
   134  H    0.025943
   135  H    0.040056
   136  H    0.037370
   137  H    0.007463
   138  H    0.045245
   139  H    0.040723
   140  H    0.049172
   141  H    0.021324
   142  H    0.008524
   143  H    0.002528
   144  H    0.016671
   145  H    0.005050
   146  H    0.028217
   147  H    0.006566
   148  H    0.007626
   149  H    0.009866
   150  H    0.017914
   151  H    0.021340
   152  H    0.036288
   153  H    0.041558
   154  H   -0.001567
   155  H    0.044051
   156  H    0.042881
   157  H    0.040274
   158  H    0.012025
 Sum of Mulliken charges =  -0.00000

 Dipole moment (field-independent basis, Debye):
    X=              8.1637    Y=              1.8287    Z=              1.7061  Tot=              8.5382
 Quadrupole moment (field-independent basis, Debye-Ang):
   XX=           -617.4226   YY=           -471.8703   ZZ=           -515.3034
   XY=             45.8661   XZ=            109.1757   YZ=             21.6564

 Normal termination of Gaussian 16 at Wed Sep  1 12:45:02 2021.
