 Gaussian 16, Revision A.03,
 Gaussian 16:  ES64L-G16RevA.03 25-Dec-2016

 ----------------------------------------------------------
 #p cam-b3lyp/Def2SVP td=(nstates=5) density=(transition=1)
 ----------------------------------------------------------

 --------------------------------
 TDDFT excited states in gaussian
 --------------------------------
 Symbolic Z-matrix:
 Charge =  0 Multiplicity = 1

                         Standard orientation:
 ---------------------------------------------------------------------
 Center     Atomic      Atomic             Coordinates (Angstroms)
 Number     Number       Type             X           Y           Z
 ---------------------------------------------------------------------
      1         12           0       28.106902    0.343034   -0.198104
      2          6           0       25.606566   -1.938347    0.167435
      3          6           0       25.656833    2.790791   -0.384899
      4          6           0       30.575700    2.618343   -0.173602
      5          6           0       30.486054   -2.101199    0.668574
      6          7           0       25.878282    0.426744    0.145723
      7          6           0       25.109398   -0.677193    0.232422
      8          6           0       23.673845   -0.356681    0.436960
      9          6           0       23.674978    1.193192   -0.137841
     10          6           0       25.180876    1.530529   -0.138731
     11          6           0       22.967773    1.326452   -1.518818
     12          6           0       23.338101   -0.427124    1.918201
     13          6           0       24.185790    0.447139    2.953973
     14          1           0       23.496233    1.143866    4.120369
     15          7           0       28.127305    2.403691   -0.267177
     16          6           0       27.007388    3.245798   -0.483786
     17          6           0       27.512157    4.553203   -0.740786
     18          6           0       28.897972    4.571794   -0.643231
     19          6           0       29.300540    3.177530   -0.393144
     20          6           0       26.515608    5.654396   -1.040874
     21          6           0       29.809176    5.774526   -0.701303
     22          8           0       29.238634    6.880903   -0.870500
     23          6           0       31.196950    5.792081   -0.380661
     24          7           0       30.205963    0.278944    0.412703
     25          6           0       31.018172    1.363717    0.258139
     26          6           0       32.480529    1.028230    0.637166
     27          6           0       32.415747   -0.512914    0.906726
     28          6           0       30.934259   -0.797963    0.726896
     29          6           0       33.486555    1.432346   -0.419317
     30          6           0       32.983565   -0.874792    2.381232
     31          6           0       33.866998   -2.126976    2.420768
     32          7           0       28.134985   -1.689027    0.330526
     33          6           0       29.143264   -2.590761    0.452549
     34          6           0       28.542387   -3.896445    0.420783
     35          6           0       27.120174   -3.751906    0.266154
     36          6           0       26.937437   -2.379099    0.244767
     37          6           0       29.232107   -5.169851    0.772911
     38          6           0       25.834440   -4.370587    0.219607
     39          8           0       25.644897   -5.593437    0.227979
     40          6           0       24.831818   -3.235924    0.118820
     41          6           0       24.045155   -3.410361   -1.126382
     42          8           0       23.431026   -4.444638   -1.299835
     43          8           0       24.021270   -2.319190   -1.940234
     44          6           0       23.228601   -2.471372   -3.161885
     45          1           0       24.905396    3.510024   -0.716965
     46          1           0       31.373621    3.327060   -0.404158
     47          1           0       31.177316   -2.941767    0.761829
     48          1           0       22.930864   -0.981104   -0.059303
     49          1           0       23.034000    1.833191    0.469896
     50          1           0       22.143028    2.034624   -1.447714
     51          1           0       22.546051    0.348375   -1.751887
     52          1           0       23.625307    1.607400   -2.342532
     53          1           0       23.323497   -1.482675    2.190455
     54          1           0       22.267894   -0.220695    1.917922
     55          1           0       24.750406    1.274452    2.523813
     56          1           0       24.825700   -0.310828    3.404810
     57          1           0       26.194168    6.025447   -0.067503
     58          1           0       25.650509    5.220170   -1.540466
     59          1           0       26.875790    6.480206   -1.655128
     60          1           0       31.508090    6.757250    0.020262
     61          1           0       31.835928    5.425409   -1.185037
     62          1           0       31.285384    5.143137    0.489577
     63          1           0       32.625128    1.579966    1.566683
     64          1           0       32.918066   -1.042876    0.097685
     65          1           0       33.057779    1.994893   -1.248221
     66          1           0       34.193896    0.713363   -0.831754
     67          1           0       34.041466    2.227439    0.079537
     68          1           0       32.204898   -1.035287    3.126973
     69          1           0       33.533569   -0.044135    2.823147
     70          1           0       34.898428   -1.806697    2.565464
     71          1           0       33.839187   -2.593436    1.435783
     72          1           0       33.585920   -2.821740    3.212373
     73          1           0       29.988288   -5.541012    0.082202
     74          1           0       28.432556   -5.902491    0.889016
     75          1           0       29.772133   -5.096511    1.716950
     76          1           0       24.170214   -3.340370    0.979242
     77          1           0       22.210203   -2.726260   -2.867228
     78          1           0       23.651547   -3.186684   -3.867436
     79          1           0       23.284711   -1.569179   -3.770807
     80         12           0      -28.255280    0.427808    0.275554
     81          6           0      -26.404678   -2.285515   -1.043419
     82          6           0      -27.799945    2.038124   -2.655114
     83          6           0      -29.855073    2.960625    1.596086
     84          6           0      -27.960728   -1.146058    3.485543
     85          7           0      -27.115248   -0.012876   -1.650588
     86          6           0      -26.681681   -1.282062   -1.995495
     87          6           0      -26.435522   -1.269562   -3.465551
     88          6           0      -26.340973    0.211734   -3.832487
     89          6           0      -27.153526    0.833333   -2.669098
     90          6           0      -24.846773    0.707162   -3.792215
     91          6           0      -27.515529   -2.047033   -4.393834
     92          6           0      -27.040711   -2.936268   -5.583652
     93          1           0      -26.015143   -2.301580   -6.566933
     94          7           0      -28.737832    2.272471   -0.473721
     95          6           0      -28.479182    2.710185   -1.670627
     96          6           0      -28.980786    4.091396   -1.775214
     97          6           0      -29.787128    4.336872   -0.622695
     98          6           0      -29.464318    3.175127    0.253542
     99          6           0      -28.757245    5.133178   -2.931123
    100          6           0      -30.742068    5.478028   -0.273815
    101          8           0      -31.293491    5.616798    0.834713
    102          6           0      -30.865850    6.585211   -1.209380
    103          7           0      -28.675126    0.902352    2.362219
    104          6           0      -29.480892    2.009148    2.616228
    105          6           0      -29.970746    1.950520    4.114512
    106          6           0      -29.458026    0.572631    4.602480
    107          6           0      -28.674748    0.039682    3.400673
    108          6           0      -29.560540    3.179716    4.925918
    109          6           0      -30.525159   -0.386175    5.187919
    110          6           0      -30.136022   -1.227942    6.425560
    111          7           0      -27.372178   -1.322942    1.108222
    112          6           0      -27.286054   -1.803820    2.410925
    113          6           0      -26.706586   -3.122491    2.375084
    114          6           0      -26.297489   -3.322284    1.055740
    115          6           0      -26.727580   -2.207795    0.284014
    116          6           0      -26.595319   -4.027735    3.442054
    117          6           0      -25.680844   -4.267781    0.113520
    118          8           0      -25.232923   -5.395871    0.244530
    119          6           0      -25.755210   -3.622448   -1.308941
    120          6           0      -24.338104   -3.559823   -1.850354
    121          8           0      -23.428273   -2.773938   -1.711795
    122          8           0      -24.317896   -4.628324   -2.699504
    123          6           0      -23.209781   -4.708605   -3.680892
    124          1           0      -27.737198    2.535409   -3.625676
    125          1           0      -30.556860    3.727031    1.931411
    126          1           0      -28.058564   -1.736579    4.398367
    127          1           0      -25.509341   -1.738047   -3.799363
    128          1           0      -26.901645    0.458827   -4.733652
    129          1           0      -24.621103    1.489435   -4.516151
    130          1           0      -24.130539   -0.062018   -4.082168
    131          1           0      -24.719056    1.126485   -2.794824
    132          1           0      -28.282300   -1.344315   -4.718281
    133          1           0      -28.116390   -2.712295   -3.772647
    134          1           0      -27.958373   -3.051922   -6.161526
    135          1           0      -26.673808   -3.820428   -5.062305
    136          1           0      -29.641267    5.372151   -3.521873
    137          1           0      -27.990215    4.718357   -3.585705
    138          1           0      -28.485469    6.137293   -2.605451
    139          1           0      -31.133648    6.227096   -2.203781
    140          1           0      -29.936325    7.152019   -1.263901
    141          1           0      -31.748723    7.150195   -0.911933
    142          1           0      -31.054102    1.838173    4.069284
    143          1           0      -28.640753    0.697867    5.312485
    144          1           0      -28.582932    3.000030    5.374450
    145          1           0      -30.201049    3.393054    5.781091
    146          1           0      -29.332357    3.995701    4.240998
    147          1           0      -30.979682   -1.048026    4.450882
    148          1           0      -31.421060    0.162113    5.482278
    149          1           0      -29.858345   -2.196523    6.009555
    150          1           0      -31.067853   -1.352899    6.978018
    151          1           0      -29.318762   -0.749255    6.964351
    152          1           0      -25.843209   -4.815815    3.412865
    153          1           0      -27.589644   -4.446524    3.600249
    154          1           0      -26.309664   -3.422571    4.301689
    155          1           0      -26.399150   -4.218175   -1.955634
    156          1           0      -23.691114   -5.002293   -4.613278
    157          1           0      -22.432155   -5.442534   -3.470888
    158          1           0      -22.760428   -3.725083   -3.815721
 ---------------------------------------------------------------------

 SCF Done:  E(RCAM-B3LYP) =  -4069.80409886     A.U. after   17 cycles

 Excitation energies and oscillator strengths:

 Excited State   1:      Singlet-A      1.7330 eV  715.44 nm  f=0.3685  <S**2>=0.000
     310 -> 315       -0.19051
     312 -> 314        0.68135
     310 <- 315       -0.10755
 This state for optimization and/or second-order correction.
 Total Energy, E(TD-HF/TD-DFT) =  -4069.74041320
 Copying the excited state density for this state as the 1-particle RhoCI density.

 Excited State   2:      Singlet-A      1.7418 eV  711.81 nm  f=0.4079  <S**2>=0.000
     309 -> 316       -0.17689
     311 -> 313        0.68509
     309 <- 316       -0.10388

 Excited State   3:      Singlet-A      2.2176 eV  559.10 nm  f=0.1296  <S**2>=0.000
     309 -> 313        0.65047
     311 -> 316        0.25333

 Excited State   4:      Singlet-A      2.2617 eV  548.20 nm  f=0.0687  <S**2>=0.000
     310 -> 314        0.62175
     312 -> 315        0.32226

 Excited State   5:      Singlet-A      3.0498 eV  406.53 nm  f=0.0000  <S**2>=0.000
     312 -> 313        0.70711

 The electronic state is 1-A.
 Alpha  occ. eigenvalues --  -46.89363 -46.89108 -19.26392 -19.24351 -19.20023
 Alpha  occ. eigenvalues --  -19.19477 -19.19252 -19.18674 -19.18277 -19.18163
 Alpha  occ. eigenvalues --  -14.42079 -14.42061 -14.41771 -14.41419 -14.39852
 Alpha  occ. eigenvalues --  -14.39789 -14.38949 -14.38605 -10.39466 -10.39225
 Alpha  occ. eigenvalues --  -10.35518 -10.34837 -10.34808 -10.34448 -10.32742
 Alpha  occ. eigenvalues --  -10.31692 -10.31679 -10.31445 -10.31218 -10.31186
 Alpha  occ. eigenvalues --  -10.30807 -10.30744 -10.30520 -10.30387 -10.30334
 Alpha  occ. eigenvalues --  -10.30211 -10.30035 -10.29980 -10.29859 -10.29537
 Alpha  occ. eigenvalues --  -10.29448 -10.29200 -10.29044 -10.28559 -10.28458
 Alpha  occ. eigenvalues --  -10.28375 -10.28341 -10.28278 -10.28207 -10.28206
 Alpha  occ. eigenvalues --  -10.28020 -10.27911 -10.27891 -10.27731 -10.27705
 Alpha  occ. eigenvalues --  -10.27661 -10.27575 -10.27526 -10.27475 -10.27399
 Alpha  occ. eigenvalues --  -10.27360 -10.27348 -10.27308 -10.27293 -10.27228
 Alpha  occ. eigenvalues --  -10.27176 -10.27175 -10.26995 -10.26772 -10.26683
 Alpha  occ. eigenvalues --  -10.26546 -10.26534 -10.26468 -10.26366 -10.26340
 Alpha  occ. eigenvalues --  -10.26199 -10.26044 -10.25797 -10.25706 -10.25621
 Alpha  occ. eigenvalues --  -10.25617 -10.25555 -10.25250 -10.24971 -10.24789
 Alpha  occ. eigenvalues --  -10.24551  -3.17751  -3.17561  -1.92648  -1.92437
 Alpha  occ. eigenvalues --   -1.92208  -1.92043  -1.92036  -1.91843  -1.17416
 Alpha  occ. eigenvalues --   -1.16107  -1.09583  -1.09358  -1.09052  -1.08398
 Alpha  occ. eigenvalues --   -1.07992  -1.07752  -1.05146  -1.04984  -1.04543
 Alpha  occ. eigenvalues --   -1.03933  -1.03048  -1.02731  -1.02062  -1.01516
 Alpha  occ. eigenvalues --   -0.94071  -0.92759  -0.89282  -0.89046  -0.88874
 Alpha  occ. eigenvalues --   -0.88750  -0.88470  -0.87978  -0.87792  -0.87555
 Alpha  occ. eigenvalues --   -0.87120  -0.86878  -0.86327  -0.85847  -0.85101
 Alpha  occ. eigenvalues --   -0.84225  -0.84130  -0.83585  -0.83353  -0.82804
 Alpha  occ. eigenvalues --   -0.82725  -0.82461  -0.81494  -0.81459  -0.80900
 Alpha  occ. eigenvalues --   -0.80588  -0.78625  -0.78380  -0.77994  -0.77443
 Alpha  occ. eigenvalues --   -0.77061  -0.77025  -0.76164  -0.75853  -0.75110
 Alpha  occ. eigenvalues --   -0.74959  -0.72514  -0.72501  -0.72126  -0.71810
 Alpha  occ. eigenvalues --   -0.70149  -0.69124  -0.68890  -0.68846  -0.68745
 Alpha  occ. eigenvalues --   -0.67690  -0.67358  -0.67131  -0.66562  -0.65469
 Alpha  occ. eigenvalues --   -0.65338  -0.65302  -0.65216  -0.65040  -0.64392
 Alpha  occ. eigenvalues --   -0.64320  -0.63827  -0.61930  -0.60474  -0.60243
 Alpha  occ. eigenvalues --   -0.59736  -0.59597  -0.59341  -0.59227  -0.58828
 Alpha  occ. eigenvalues --   -0.58388  -0.58312  -0.58023  -0.57935  -0.57493
 Alpha  occ. eigenvalues --   -0.56843  -0.56588  -0.56146  -0.55890  -0.55806
 Alpha  occ. eigenvalues --   -0.55195  -0.55160  -0.54520  -0.54455  -0.54253
 Alpha  occ. eigenvalues --   -0.53755  -0.53691  -0.53560  -0.53486  -0.53239
 Alpha  occ. eigenvalues --   -0.53217  -0.53075  -0.52941  -0.52486  -0.52420
 Alpha  occ. eigenvalues --   -0.52113  -0.51889  -0.51827  -0.51677  -0.51561
 Alpha  occ. eigenvalues --   -0.51434  -0.51196  -0.51081  -0.50921  -0.50792
 Alpha  occ. eigenvalues --   -0.50406  -0.50333  -0.49969  -0.49601  -0.49601
 Alpha  occ. eigenvalues --   -0.49471  -0.49351  -0.49118  -0.48976  -0.48829
 Alpha  occ. eigenvalues --   -0.48754  -0.48686  -0.48476  -0.48169  -0.48160
 Alpha  occ. eigenvalues --   -0.47654  -0.47629  -0.47382  -0.47125  -0.47098
 Alpha  occ. eigenvalues --   -0.46887  -0.46726  -0.46641  -0.46430  -0.46408
 Alpha  occ. eigenvalues --   -0.46247  -0.46054  -0.45912  -0.45737  -0.45642
 Alpha  occ. eigenvalues --   -0.45541  -0.45233  -0.45024  -0.44919  -0.44860
 Alpha  occ. eigenvalues --   -0.44684  -0.44659  -0.44621  -0.44541  -0.44345
 Alpha  occ. eigenvalues --   -0.44039  -0.43841  -0.43734  -0.43677  -0.43548
 Alpha  occ. eigenvalues --   -0.43010  -0.42959  -0.42813  -0.42713  -0.42440
 Alpha  occ. eigenvalues --   -0.42306  -0.42297  -0.42247  -0.42154  -0.41909
 Alpha  occ. eigenvalues --   -0.41906  -0.41785  -0.41532  -0.41275  -0.41232
 Alpha  occ. eigenvalues --   -0.41151  -0.40960  -0.40859  -0.40544  -0.40482
 Alpha  occ. eigenvalues --   -0.40240  -0.39847  -0.39605  -0.39529  -0.39195
 Alpha  occ. eigenvalues --   -0.38767  -0.38680  -0.37830  -0.37693  -0.37657
 Alpha  occ. eigenvalues --   -0.37519  -0.37386  -0.36888  -0.36517  -0.36441
 Alpha  occ. eigenvalues --   -0.35968  -0.35922  -0.34694  -0.34655  -0.33994
 Alpha  occ. eigenvalues --   -0.33892  -0.33105  -0.33095  -0.31780  -0.31681
 Alpha  occ. eigenvalues --   -0.31163  -0.30879  -0.30552  -0.30455  -0.30442
 Alpha  occ. eigenvalues --   -0.30101  -0.29251  -0.28988  -0.24297  -0.23962
 Alpha  occ. eigenvalues --   -0.21667  -0.20963
 Alpha virt. eigenvalues --   -0.09140  -0.08271  -0.02052  -0.01882  -0.00130
 Alpha virt. eigenvalues --    0.00150   0.01343   0.01758   0.02015   0.02327
 Alpha virt. eigenvalues --    0.04989   0.05203   0.05512   0.05787   0.05977

 Mulliken charges:
               1
     1  Mg  12.000050
     2  C    5.999668
     3  C    6.000505
     4  C    6.000393
     5  C    5.999565
     6  N    6.999988
     7  C    6.000686
     8  C    5.999649
     9  C    6.000340
    10  C    5.999269
    11  C    6.000072
    12  C    5.999843
    13  C    5.999935
    14  H    1.000173
    15  N    7.000263
    16  C    5.998769
    17  C    5.999619
    18  C    5.999766
    19  C    5.998916
    20  C    6.000111
    21  C    5.999697
    22  O    7.999464
    23  C    6.000149
    24  N    6.999859
    25  C    5.999315
    26  C    6.000193
    27  C    5.999747
    28  C    6.000763
    29  C    6.000027
    30  C    5.999940
    31  C    5.999967
    32  N    6.999948
    33  C    6.000892
    34  C    6.000764
    35  C    6.000118
    36  C    6.000726
    37  C    5.999889
    38  C    6.000363
    39  O    8.000707
    40  C    6.000080
    41  C    6.000106
    42  O    8.000120
    43  O    8.000000
    44  C    5.999943
    45  H    0.999790
    46  H    0.999790
    47  H    1.000096
    48  H    1.000045
    49  H    0.999921
    50  H    0.999973
    51  H    0.999694
    52  H    1.000055
    53  H    0.999879
    54  H    1.000219
    55  H    1.000342
    56  H    0.999822
    57  H    0.999496
    58  H    0.999551
    59  H    0.999596
    60  H    0.999673
    61  H    0.999712
    62  H    0.999831
    63  H    0.999972
    64  H    0.999997
    65  H    1.000081
    66  H    0.999757
    67  H    0.999970
    68  H    0.999984
    69  H    1.000224
    70  H    1.000106
    71  H    0.999953
    72  H    0.999952
    73  H    1.000595
    74  H    1.000346
    75  H    1.000588
    76  H    1.000234
    77  H    1.000128
    78  H    1.000049
    79  H    1.000214
    80  Mg  11.998257
    81  C    6.021243
    82  C    5.971831
    83  C    5.981822
    84  C    6.020894
    85  N    6.996618
    86  C    5.966931
    87  C    6.010130
    88  C    5.996053
    89  C    6.033340
    90  C    6.000961
    91  C    6.004137
    92  C    6.001006
    93  H    0.991720
    94  N    6.987476
    95  C    6.047292
    96  C    6.024031
    97  C    6.011145
    98  C    6.040016
    99  C    5.996654
   100  C    6.013467
   101  O    8.025927
   102  C    5.993167
   103  N    7.004956
   104  C    6.039646
   105  C    5.990024
   106  C    6.008450
   107  C    5.966915
   108  C    5.995467
   109  C    6.005305
   110  C    5.999934
   111  N    7.006437
   112  C    5.956001
   113  C    5.973050
   114  C    5.994382
   115  C    5.963501
   116  C    6.006572
   117  C    5.983355
   118  O    7.969611
   119  C    5.998056
   120  C    5.998303
   121  O    7.991514
   122  O    8.000418
   123  C    6.003334
   124  H    1.005541
   125  H    1.007482
   126  H    0.993840
   127  H    0.995758
   128  H    0.997465
   129  H    0.997427
   130  H    1.012036
   131  H    0.999640
   132  H    0.984723
   133  H    1.003160
   134  H    0.995934
   135  H    1.005054
   136  H    1.020976
   137  H    1.019383
   138  H    1.018311
   139  H    1.006264
   140  H    1.007769
   141  H    1.014793
   142  H    1.002990
   143  H    1.001333
   144  H    1.010208
   145  H    1.007982
   146  H    0.993345
   147  H    0.999924
   148  H    0.989359
   149  H    1.007435
   150  H    0.996147
   151  H    0.998039
   152  H    0.983296
   153  H    0.976944
   154  H    0.981588
   155  H    0.991170
   156  H    0.994668
   157  H    0.996312
   158  H    0.994352
 Sum of Mulliken charges = 624.00000

 Dipole moment (field-independent basis, Debye):
    X=             -3.8669    Y=              9.5391    Z=             -2.4891  Tot=             10.5898
 Quadrupole moment (field-independent basis, Debye-Ang):
   XX=            213.3643   YY=              9.5769   ZZ=             -3.9262
   XY=           -282.7774   XZ=             71.1455   YZ=             -0.4538

 Normal termination of Gaussian 16 at Wed Sep 22 18:12:48 2021.
