 Gaussian 16, Revision A.03,
 Gaussian 16:  ES64L-G16RevA.03 25-Dec-2016

 ----------------------------------------------------------
 #p cam-b3lyp/Def2SVP td=(nstates=5) density=(transition=1)
 ----------------------------------------------------------

 --------------------------------
 TDDFT excited states in gaussian
 --------------------------------
 Symbolic Z-matrix:
 Charge =  0 Multiplicity = 1

                         Standard orientation:
 ---------------------------------------------------------------------
 Center     Atomic      Atomic             Coordinates (Angstroms)
 Number     Number       Type             X           Y           Z
 ---------------------------------------------------------------------
      1         12           0      -10.359843    0.513435   -0.167948
      2          6           0       -7.980885   -1.093689   -2.273857
      3          6           0      -11.182665   -2.526117    1.179953
      4          6           0      -11.841326    2.168747    2.536161
      5          6           0       -9.051141    3.616467   -1.171421
      6          7           0       -9.381109   -1.592219   -0.413260
      7          6           0       -8.645265   -2.032728   -1.446814
      8          6           0       -8.825833   -3.532990   -1.588847
      9          6           0       -9.812455   -4.030958   -0.426290
     10          6           0      -10.261135   -2.558929    0.053699
     11          6           0      -10.954682   -4.854976   -1.061969
     12          6           0       -7.484148   -4.246466   -1.545035
     13          6           0       -6.428539   -3.689260   -0.560657
     14          1           0       -6.146334   -4.530093    0.714349
     15          7           0      -11.471804   -0.096846    1.605452
     16          6           0      -11.653111   -1.422057    1.936564
     17          6           0      -12.560266   -1.424859    3.041116
     18          6           0      -12.723941   -0.082010    3.554539
     19          6           0      -12.043684    0.768131    2.544942
     20          6           0      -13.028974   -2.698071    3.706661
     21          6           0      -13.319352    0.344544    4.897272
     22          8           0      -13.693738   -0.496567    5.691551
     23          6           0      -13.455624    1.711755    5.301684
     24          7           0      -10.359019    2.576684    0.644433
     25          6           0      -11.142305    2.982201    1.632978
     26          6           0      -11.027407    4.470106    1.921870
     27          6           0       -9.834418    4.839203    0.938940
     28          6           0       -9.764929    3.660206    0.036814
     29          6           0      -12.372795    5.295932    1.624872
     30          6           0       -8.509149    5.170820    1.767735
     31          6           0       -7.960180    6.569039    1.801387
     32          7           0       -9.068313    1.156489   -1.567179
     33          6           0       -8.723958    2.467824   -1.953587
     34          6           0       -7.846807    2.447256   -3.139007
     35          6           0       -7.586256    1.083141   -3.268082
     36          6           0       -8.226175    0.306292   -2.240074
     37          6           0       -7.414827    3.621666   -4.083526
     38          6           0       -6.822400    0.135681   -4.086142
     39          8           0       -6.089532    0.270016   -5.080005
     40          6           0       -7.048490   -1.299203   -3.505453
     41          6           0       -5.653022   -1.628405   -3.100824
     42          8           0       -4.984188   -0.992082   -2.327424
     43          8           0       -5.201870   -2.655998   -3.814429
     44          6           0       -3.839463   -3.220518   -3.515941
     45          1           0      -11.661767   -3.482369    1.399500
     46          1           0      -12.307514    2.817788    3.280127
     47          1           0       -8.631895    4.612926   -1.328962
     48          1           0       -9.241294   -3.545350   -2.596515
     49          1           0       -9.294111   -4.595164    0.349468
     50          1           0      -10.927785   -5.857027   -0.634335
     51          1           0      -10.871919   -4.986358   -2.141161
     52          1           0      -11.878603   -4.362726   -0.759576
     53          1           0       -7.030709   -4.229879   -2.536143
     54          1           0       -7.612474   -5.283030   -1.231961
     55          1           0       -6.653976   -2.751925   -0.052238
     56          1           0       -5.524019   -3.593289   -1.161378
     57          1           0      -12.563381   -3.580683    3.267373
     58          1           0      -14.119363   -2.696144    3.688603
     59          1           0      -12.808652   -2.606077    4.769614
     60          1           0      -12.520493    2.257057    5.431060
     61          1           0      -13.977784    1.753537    6.257372
     62          1           0      -14.007542    2.152144    4.470589
     63          1           0      -10.655317    4.701481    2.919605
     64          1           0      -10.166558    5.807027    0.562876
     65          1           0      -13.163562    4.607024    1.326462
     66          1           0      -12.166969    5.950075    0.777408
     67          1           0      -12.718955    5.951382    2.425521
     68          1           0       -7.643531    4.656695    1.349864
     69          1           0       -8.613752    4.868307    2.808776
     70          1           0       -7.110512    6.725975    1.136857
     71          1           0       -7.639360    6.609142    2.842853
     72          1           0       -8.712069    7.357911    1.774626
     73          1           0       -6.654359    4.201805   -3.561527
     74          1           0       -8.318383    4.176732   -4.336225
     75          1           0       -6.925581    3.194821   -4.958863
     76          1           0       -7.473299   -1.887527   -4.319617
     77          1           0       -3.038739   -2.684996   -4.026508
     78          1           0       -3.775106   -4.269374   -3.808374
     79          1           0       -3.743273   -3.149361   -2.432542
     80         12           0        9.850031    0.311867    0.402225
     81          6           0        7.327922   -1.949612   -0.595227
     82          6           0        9.489800    2.000579   -2.546783
     83          6           0       12.633701    1.927227    1.117679
     84          6           0       10.462136   -1.799136    3.186977
     85          7           0        8.454293    0.092595   -1.312640
     86          6           0        7.553981   -0.858068   -1.467071
     87          6           0        6.610748   -0.443363   -2.581848
     88          6           0        7.497797    0.515930   -3.465406
     89          6           0        8.578171    0.913397   -2.391633
     90          6           0        8.001062   -0.207385   -4.772039
     91          6           0        5.379776    0.340094   -2.058045
     92          6           0        4.118172    0.372540   -3.028203
     93          1           0        4.137406   -0.297316   -4.404822
     94          7           0       10.778426    1.870671   -0.458526
     95          6           0       10.459465    2.527440   -1.674689
     96          6           0       11.385991    3.671754   -1.839635
     97          6           0       12.369653    3.592131   -0.789447
     98          6           0       11.987268    2.435699    0.049625
     99          6           0       11.266454    4.685210   -2.922562
    100          6           0       13.623962    4.477928   -0.424762
    101          8           0       14.319144    4.314211    0.587140
    102          6           0       14.092111    5.493561   -1.426292
    103          7           0       11.426184    0.024237    1.892754
    104          6           0       12.430541    0.851910    2.008426
    105          6           0       13.350531    0.586732    3.167050
    106          6           0       12.660381   -0.641420    3.858168
    107          6           0       11.370637   -0.780993    2.988551
    108          6           0       14.809038    0.457418    2.718113
    109          6           0       12.314275   -0.434823    5.327410
    110          6           0       12.547048   -1.657586    6.285468
    111          7           0        9.040985   -1.507055    1.265724
    112          6           0        9.381033   -2.213581    2.435998
    113          6           0        8.411535   -3.232000    2.651522
    114          6           0        7.681072   -3.307596    1.422902
    115          6           0        8.057187   -2.233818    0.656342
    116          6           0        8.213011   -3.996962    3.928575
    117          6           0        6.571850   -3.909159    0.644320
    118          8           0        5.860494   -4.857148    0.904605
    119          6           0        6.522734   -3.178622   -0.781053
    120          6           0        5.127925   -3.155577   -1.314976
    121          8           0        4.179507   -2.627326   -0.813855
    122          8           0        5.012544   -3.938760   -2.478661
    123          6           0        3.703184   -4.583128   -2.714909
    124          1           0        9.567777    2.464351   -3.532756
    125          1           0       13.482347    2.482217    1.521448
    126          1           0       10.630716   -2.382708    4.094516
    127          1           0        6.252258   -1.399598   -2.962754
    128          1           0        6.946097    1.406442   -3.768469
    129          1           0        7.646191   -1.237230   -4.793682
    130          1           0        9.075557   -0.296819   -4.612010
    131          1           0        7.675853    0.254810   -5.704172
    132          1           0        5.747317    1.359231   -1.931365
    133          1           0        5.123648   -0.080903   -1.085866
    134          1           0        3.896420    1.434124   -3.147716
    135          1           0        3.303339   -0.040409   -2.433045
    136          1           0       10.367888    4.701619   -3.538286
    137          1           0       12.053069    4.586737   -3.670129
    138          1           0       11.304922    5.635595   -2.389636
    139          1           0       13.603859    6.463864   -1.336880
    140          1           0       13.853178    4.954745   -2.344008
    141          1           0       15.172785    5.558233   -1.302556
    142          1           0       13.217987    1.488392    3.764858
    143          1           0       13.239494   -1.562464    3.804364
    144          1           0       14.925863    0.139485    1.681619
    145          1           0       15.227232   -0.334528    3.338176
    146          1           0       15.372158    1.382350    2.844540
    147          1           0       11.268062   -0.154600    5.448771
    148          1           0       12.824364    0.492662    5.587134
    149          1           0       12.804497   -2.558095    5.728140
    150          1           0       11.581013   -1.810061    6.766292
    151          1           0       13.282102   -1.566616    7.085844
    152          1           0        9.210959   -4.335335    4.207745
    153          1           0        7.566211   -4.869959    3.839357
    154          1           0        7.871774   -3.323388    4.715322
    155          1           0        7.007512   -3.822056   -1.514580
    156          1           0        3.282299   -4.156396   -3.625446
    157          1           0        3.022430   -4.460227   -1.871830
    158          1           0        3.928456   -5.639881   -2.858302
 ---------------------------------------------------------------------

 SCF Done:  E(RCAM-B3LYP) =  -4069.76011940     A.U. after   19 cycles

 Excitation energies and oscillator strengths:

 Excited State   1:      Singlet-A      1.6888 eV  734.15 nm  f=0.3529  <S**2>=0.000
     309 -> 315        0.20071
     312 -> 313        0.68048
     309 <- 315        0.11490
 This state for optimization and/or second-order correction.
 Total Energy, E(TD-HF/TD-DFT) =  -4069.69805651
 Copying the excited state density for this state as the 1-particle RhoCI density.

 Excited State   2:      Singlet-A      1.7945 eV  690.91 nm  f=0.3699  <S**2>=0.000
     310 -> 316        0.18871
     311 -> 314        0.68032
     310 <- 316        0.10300

 Excited State   3:      Singlet-A      2.1688 eV  571.68 nm  f=0.0991  <S**2>=0.000
     310 -> 314        0.64286
     311 -> 316       -0.27241

 Excited State   4:      Singlet-A      2.1996 eV  563.66 nm  f=0.0724  <S**2>=0.000
     309 -> 313        0.61835
     312 -> 315       -0.32957

 Excited State   5:      Singlet-A      2.9582 eV  419.12 nm  f=0.0000  <S**2>=0.000
     311 -> 313        0.70698

 The electronic state is 1-A.
 Alpha  occ. eigenvalues --  -46.90105 -46.88460 -19.24909 -19.23210 -19.20240
 Alpha  occ. eigenvalues --  -19.19496 -19.18745 -19.18687 -19.18293 -19.17973
 Alpha  occ. eigenvalues --  -14.42318 -14.41883 -14.41870 -14.41664 -14.40032
 Alpha  occ. eigenvalues --  -14.39665 -14.39433 -14.37926 -10.38565 -10.38472
 Alpha  occ. eigenvalues --  -10.36731 -10.34857 -10.34740 -10.34226 -10.32267
 Alpha  occ. eigenvalues --  -10.32128 -10.31893 -10.31469 -10.31273 -10.30877
 Alpha  occ. eigenvalues --  -10.30864 -10.30824 -10.30740 -10.30637 -10.30603
 Alpha  occ. eigenvalues --  -10.30561 -10.30537 -10.30008 -10.29845 -10.29741
 Alpha  occ. eigenvalues --  -10.29659 -10.29133 -10.28741 -10.28717 -10.28603
 Alpha  occ. eigenvalues --  -10.28257 -10.28203 -10.28085 -10.28065 -10.28027
 Alpha  occ. eigenvalues --  -10.28015 -10.27989 -10.27960 -10.27906 -10.27813
 Alpha  occ. eigenvalues --  -10.27773 -10.27718 -10.27629 -10.27580 -10.27560
 Alpha  occ. eigenvalues --  -10.27558 -10.27512 -10.27338 -10.27312 -10.26910
 Alpha  occ. eigenvalues --  -10.26908 -10.26837 -10.26807 -10.26720 -10.26588
 Alpha  occ. eigenvalues --  -10.26431 -10.26323 -10.26159 -10.26081 -10.26077
 Alpha  occ. eigenvalues --  -10.26019 -10.25836 -10.25815 -10.25767 -10.25680
 Alpha  occ. eigenvalues --  -10.25548 -10.25546 -10.25440 -10.25371 -10.24946
 Alpha  occ. eigenvalues --  -10.24348  -3.18411  -3.16921  -1.93275  -1.92898
 Alpha  occ. eigenvalues --   -1.92688  -1.91833  -1.91378  -1.91217  -1.16896
 Alpha  occ. eigenvalues --   -1.15131  -1.10418  -1.10119  -1.09470  -1.08700
 Alpha  occ. eigenvalues --   -1.07542  -1.06933  -1.05033  -1.04499  -1.04432
 Alpha  occ. eigenvalues --   -1.03563  -1.02289  -1.01616  -1.01495  -1.00893
 Alpha  occ. eigenvalues --   -0.91828  -0.91739  -0.89215  -0.88853  -0.88830
 Alpha  occ. eigenvalues --   -0.88683  -0.88154  -0.87641  -0.87515  -0.87154
 Alpha  occ. eigenvalues --   -0.86977  -0.86019  -0.85365  -0.85254  -0.84573
 Alpha  occ. eigenvalues --   -0.83948  -0.83903  -0.83615  -0.82801  -0.82743
 Alpha  occ. eigenvalues --   -0.82489  -0.81606  -0.80965  -0.80588  -0.80139
 Alpha  occ. eigenvalues --   -0.79792  -0.78524  -0.77793  -0.77233  -0.77126
 Alpha  occ. eigenvalues --   -0.76296  -0.76280  -0.76166  -0.75326  -0.75056
 Alpha  occ. eigenvalues --   -0.74860  -0.72751  -0.72430  -0.71620  -0.71612
 Alpha  occ. eigenvalues --   -0.69762  -0.68773  -0.68532  -0.68434  -0.67989
 Alpha  occ. eigenvalues --   -0.67164  -0.66571  -0.66539  -0.65975  -0.65487
 Alpha  occ. eigenvalues --   -0.65084  -0.65069  -0.64635  -0.64448  -0.63911
 Alpha  occ. eigenvalues --   -0.63384  -0.62272  -0.60991  -0.60181  -0.60132
 Alpha  occ. eigenvalues --   -0.59160  -0.59026  -0.58870  -0.58555  -0.58521
 Alpha  occ. eigenvalues --   -0.57977  -0.57693  -0.57463  -0.57145  -0.56757
 Alpha  occ. eigenvalues --   -0.56381  -0.56176  -0.55729  -0.55359  -0.55006
 Alpha  occ. eigenvalues --   -0.54904  -0.54763  -0.54389  -0.54200  -0.53759
 Alpha  occ. eigenvalues --   -0.53613  -0.53445  -0.53140  -0.53041  -0.52947
 Alpha  occ. eigenvalues --   -0.52727  -0.52513  -0.52371  -0.52097  -0.51934
 Alpha  occ. eigenvalues --   -0.51898  -0.51660  -0.51620  -0.51410  -0.51272
 Alpha  occ. eigenvalues --   -0.51128  -0.50843  -0.50541  -0.50446  -0.50099
 Alpha  occ. eigenvalues --   -0.50066  -0.49967  -0.49679  -0.49564  -0.49358
 Alpha  occ. eigenvalues --   -0.49209  -0.49096  -0.48870  -0.48846  -0.48583
 Alpha  occ. eigenvalues --   -0.48400  -0.48263  -0.48129  -0.47937  -0.47735
 Alpha  occ. eigenvalues --   -0.47704  -0.47453  -0.47241  -0.47204  -0.46931
 Alpha  occ. eigenvalues --   -0.46845  -0.46804  -0.46485  -0.46482  -0.46424
 Alpha  occ. eigenvalues --   -0.46191  -0.46062  -0.45678  -0.45490  -0.45487
 Alpha  occ. eigenvalues --   -0.45368  -0.45187  -0.45073  -0.44969  -0.44963
 Alpha  occ. eigenvalues --   -0.44806  -0.44752  -0.44244  -0.44183  -0.43863
 Alpha  occ. eigenvalues --   -0.43839  -0.43647  -0.43562  -0.43467  -0.43231
 Alpha  occ. eigenvalues --   -0.43077  -0.42998  -0.42758  -0.42659  -0.42525
 Alpha  occ. eigenvalues --   -0.42282  -0.42176  -0.41930  -0.41880  -0.41614
 Alpha  occ. eigenvalues --   -0.41474  -0.41393  -0.41292  -0.41268  -0.41148
 Alpha  occ. eigenvalues --   -0.41060  -0.40888  -0.40741  -0.40060  -0.40025
 Alpha  occ. eigenvalues --   -0.39924  -0.39900  -0.39695  -0.38973  -0.38643
 Alpha  occ. eigenvalues --   -0.38543  -0.37853  -0.37636  -0.37466  -0.37298
 Alpha  occ. eigenvalues --   -0.36965  -0.36608  -0.36267  -0.36254  -0.35670
 Alpha  occ. eigenvalues --   -0.35540  -0.35345  -0.34095  -0.34083  -0.33982
 Alpha  occ. eigenvalues --   -0.33713  -0.33236  -0.33023  -0.31835  -0.31268
 Alpha  occ. eigenvalues --   -0.31114  -0.30632  -0.30575  -0.30401  -0.30165
 Alpha  occ. eigenvalues --   -0.29843  -0.28815  -0.28224  -0.24170  -0.23648
 Alpha  occ. eigenvalues --   -0.21251  -0.21206
 Alpha virt. eigenvalues --   -0.08657  -0.08413  -0.02443  -0.01948  -0.00050
 Alpha virt. eigenvalues --    0.00376   0.01132   0.02536   0.02795   0.03092
 Alpha virt. eigenvalues --    0.04901   0.04903   0.05378   0.05856   0.06466

 Mulliken charges:
               1
     1  Mg  11.995000
     2  C    5.983312
     3  C    6.032947
     4  C    6.020225
     5  C    5.973991
     6  N    6.993148
     7  C    6.030682
     8  C    5.998866
     9  C    6.015217
    10  C    5.954674
    11  C    6.001217
    12  C    5.996996
    13  C    5.991934
    14  H    1.014004
    15  N    7.013544
    16  C    5.948890
    17  C    5.983969
    18  C    5.987874
    19  C    5.955799
    20  C    6.005016
    21  C    5.988595
    22  O    7.981717
    23  C    6.004456
    24  N    6.995863
    25  C    5.971099
    26  C    6.013260
    27  C    5.984007
    28  C    6.040909
    29  C    6.002913
    30  C    5.998940
    31  C    5.997983
    32  N    6.992521
    33  C    6.048846
    34  C    6.025859
    35  C    6.003310
    36  C    6.036274
    37  C    6.003356
    38  C    6.014651
    39  O    8.033333
    40  C    6.000657
    41  C    6.006722
    42  O    8.002032
    43  O    8.001428
    44  C    5.997836
    45  H    0.994330
    46  H    0.990302
    47  H    1.009079
    48  H    0.993987
    49  H    0.993083
    50  H    0.995113
    51  H    0.988573
    52  H    1.004086
    53  H    0.994940
    54  H    1.008241
    55  H    0.999846
    56  H    0.996142
    57  H    0.979889
    58  H    0.980086
    59  H    0.982739
    60  H    0.988541
    61  H    0.987371
    62  H    0.993357
    63  H    0.997748
    64  H    1.005371
    65  H    1.003547
    66  H    0.987183
    67  H    0.998276
    68  H    0.996422
    69  H    1.013951
    70  H    0.997434
    71  H    1.005311
    72  H    1.004889
    73  H    1.017225
    74  H    1.015451
    75  H    1.011425
    76  H    1.009973
    77  H    1.001895
    78  H    1.005980
    79  H    1.004346
    80  Mg  12.000061
    81  C    5.999419
    82  C    5.999401
    83  C    6.000597
    84  C    6.000488
    85  N    6.999665
    86  C    6.000142
    87  C    5.999966
    88  C    6.000015
    89  C    6.000142
    90  C    5.999997
    91  C    6.000000
    92  C    6.000290
    93  H    0.999399
    94  N    7.000119
    95  C    6.000085
    96  C    5.999753
    97  C    6.000258
    98  C    5.999791
    99  C    6.000106
   100  C    6.000074
   101  O    8.000227
   102  C    5.999953
   103  N    7.000243
   104  C    5.999810
   105  C    6.000009
   106  C    6.000044
   107  C    5.999854
   108  C    5.999834
   109  C    5.999779
   110  C    5.999920
   111  N    6.999959
   112  C    5.999986
   113  C    6.000316
   114  C    6.000002
   115  C    6.000138
   116  C    5.999906
   117  C    6.000019
   118  O    8.000131
   119  C    6.000084
   120  C    5.999918
   121  O    7.999386
   122  O    8.000176
   123  C    6.000166
   124  H    0.999693
   125  H    1.000402
   126  H    1.000545
   127  H    0.999816
   128  H    0.999360
   129  H    0.999868
   130  H    1.000472
   131  H    0.999573
   132  H    1.000184
   133  H    1.000191
   134  H    0.999215
   135  H    0.998983
   136  H    0.999637
   137  H    1.000086
   138  H    0.999995
   139  H    1.000056
   140  H    0.999986
   141  H    1.000290
   142  H    1.000180
   143  H    1.000258
   144  H    1.000033
   145  H    1.000344
   146  H    1.000206
   147  H    1.000030
   148  H    1.000246
   149  H    1.000059
   150  H    1.000166
   151  H    1.000379
   152  H    1.000343
   153  H    1.000308
   154  H    1.000334
   155  H    1.000028
   156  H    0.998907
   157  H    0.999617
   158  H    1.000583
 Sum of Mulliken charges = 624.00000

 Dipole moment (field-independent basis, Debye):
    X=              6.6607    Y=              3.1360    Z=             -7.4837  Tot=             10.4978
 Quadrupole moment (field-independent basis, Debye-Ang):
   XX=           -126.9295   YY=              4.1825   ZZ=             -0.2911
   XY=            -30.8425   XZ=             78.3953   YZ=             -3.5302

 Normal termination of Gaussian 16 at Tue Sep 21 19:16:41 2021.
