 Gaussian 16, Revision A.03,
 Gaussian 16:  ES64L-G16RevA.03 25-Dec-2016

 -----------------------------------
 #p cam-b3lyp/Def2SVP td=(nstates=5)
 -----------------------------------

 --------------------------------
 TDDFT excited states in gaussian
 --------------------------------
 Symbolic Z-matrix:
 Charge =  0 Multiplicity = 1

                         Standard orientation:
 ---------------------------------------------------------------------
 Center     Atomic      Atomic             Coordinates (Angstroms)
 Number     Number       Type             X           Y           Z
 ---------------------------------------------------------------------
      1         12           0      -11.058027   -0.507349    0.259324
      2          6           0       -9.382232    2.461835    0.045959
      3          6           0      -11.619735   -0.265466   -3.246186
      4          6           0      -12.369430   -3.615005    0.352108
      5          6           0       -9.655411   -1.038407    3.403808
      6          7           0      -10.192830    0.829403   -1.528232
      7          6           0       -9.744800    2.091960   -1.279360
      8          6           0       -9.511638    2.815059   -2.576940
      9          6           0      -10.220263    1.903137   -3.670463
     10          6           0      -10.752707    0.716798   -2.806002
     11          6           0      -10.998905    2.610790   -4.718541
     12          6           0       -8.036357    3.305084   -2.962692
     13          6           0       -6.871291    2.489252   -2.486237
     14          1           0       -5.805863    2.138021   -3.515213
     15          7           0      -12.080691   -1.640610   -1.186128
     16          6           0      -12.229358   -1.381005   -2.513253
     17          6           0      -12.949178   -2.419793   -3.188828
     18          6           0      -13.287226   -3.377842   -2.099254
     19          6           0      -12.574264   -2.893399   -0.897072
     20          6           0      -13.315397   -2.506572   -4.593225
     21          6           0      -14.169659   -4.616497   -2.157539
     22          8           0      -14.569843   -5.019757   -3.191433
     23          6           0      -14.542745   -5.503508   -1.002186
     24          7           0      -10.905673   -2.113729    1.598812
     25          6           0      -11.689914   -3.195429    1.475362
     26          6           0      -11.356370   -4.278074    2.630187
     27          6           0      -10.799278   -3.266051    3.745945
     28          6           0      -10.391621   -2.116342    2.855684
     29          6           0      -12.537051   -5.126837    3.110063
     30          6           0       -9.727038   -3.903348    4.648049
     31          6           0       -9.799778   -3.761822    6.173012
     32          7           0       -9.685248    0.446489    1.452631
     33          6           0       -9.218697    0.164517    2.730558
     34          6           0       -8.457227    1.231748    3.252829
     35          6           0       -8.512131    2.213056    2.276826
     36          6           0       -9.280143    1.695536    1.174264
     37          6           0       -7.807390    1.324624    4.598775
     38          6           0       -8.197012    3.520323    1.874790
     39          8           0       -7.545598    4.353779    2.501121
     40          6           0       -8.576219    3.695363    0.376651
     41          6           0       -9.370961    4.992926    0.371786
     42          8           0       -9.131624    5.958882   -0.383476
     43          8           0      -10.439395    4.825276    1.220861
     44          6           0      -11.560446    5.795085    1.277370
     45          1           0      -11.648283   -0.193153   -4.335354
     46          1           0      -12.611803   -4.678801    0.309609
     47          1           0       -9.278934   -1.183478    4.418182
     48          1           0      -10.003481    3.786869   -2.521119
     49          1           0       -9.414171    1.412511   -4.215228
     50          1           0      -11.994597    2.195584   -4.873986
     51          1           0      -10.435392    2.725458   -5.644515
     52          1           0      -11.207280    3.627546   -4.385409
     53          1           0       -7.781565    4.298717   -2.593897
     54          1           0       -7.907705    3.245873   -4.043905
     55          1           0       -7.135134    1.640298   -1.856430
     56          1           0       -6.271114    3.141392   -1.850872
     57          1           0      -13.459872   -1.498068   -4.979455
     58          1           0      -14.215633   -3.089699   -4.783538
     59          1           0      -12.476077   -2.978291   -5.105501
     60          1           0      -14.541499   -4.702099   -0.262989
     61          1           0      -13.780041   -6.247380   -0.774013
     62          1           0      -15.499481   -6.022696   -1.061085
     63          1           0      -10.516155   -4.861045    2.251762
     64          1           0      -11.507659   -2.806503    4.434788
     65          1           0      -12.818488   -4.748309    4.093097
     66          1           0      -12.314029   -6.187034    2.993888
     67          1           0      -13.426012   -5.013577    2.490276
     68          1           0       -8.769078   -3.494736    4.325308
     69          1           0       -9.642567   -4.954429    4.371609
     70          1           0       -9.694823   -4.657005    6.786171
     71          1           0      -10.664533   -3.186538    6.506274
     72          1           0       -9.013166   -3.032784    6.364915
     73          1           0       -7.791931    2.325990    5.029718
     74          1           0       -6.780950    0.967918    4.510341
     75          1           0       -8.314881    0.735785    5.363975
     76          1           0       -7.603813    3.773800   -0.108006
     77          1           0      -12.528697    5.309615    1.398228
     78          1           0      -11.560449    6.365950    0.348675
     79          1           0      -11.586930    6.570962    2.041471
     80         12           0       11.094987   -0.635268   -0.223807
     81          6           0        8.142979    1.318568   -0.510833
     82          6           0       11.250723    0.533535    3.111108
     83          6           0       14.001617   -2.085762    0.079352
     84          6           0       10.858250   -1.393627   -3.609873
     85          7           0        9.818110    0.803460    1.170178
     86          6           0        8.621438    1.361274    0.792141
     87          6           0        7.904870    2.067921    1.930345
     88          6           0        9.011945    1.899461    3.057399
     89          6           0       10.085567    0.991738    2.437681
     90          6           0        9.460959    3.256956    3.590133
     91          6           0        6.573883    1.358599    2.263303
     92          6           0        5.341332    2.236752    2.703969
     93          1           0        5.616210    3.662036    3.238590
     94          7           0       12.419741   -0.832682    1.397869
     95          6           0       12.332426   -0.209932    2.643287
     96          6           0       13.496439   -0.623888    3.442678
     97          6           0       14.261673   -1.479626    2.584873
     98          6           0       13.517700   -1.510462    1.311070
     99          6           0       13.757250   -0.136097    4.766508
    100          6           0       15.573561   -2.197741    2.884899
    101          8           0       16.172546   -2.831517    2.001555
    102          6           0       16.075700   -2.306528    4.271022
    103          7           0       12.318021   -1.517692   -1.603969
    104          6           0       13.432216   -2.137785   -1.206542
    105          6           0       14.183997   -2.775262   -2.419937
    106          6           0       13.086319   -2.715263   -3.529187
    107          6           0       12.034235   -1.831148   -2.936594
    108          6           0       15.554550   -2.089017   -2.765063
    109          6           0       12.570895   -4.197467   -3.679590
    110          6           0       11.319767   -4.686022   -2.871281
    111          7           0        9.754026   -0.255029   -1.747209
    112          6           0        9.813037   -0.632417   -3.101019
    113          6           0        8.657469   -0.021865   -3.804057
    114          6           0        8.046166    0.770577   -2.839503
    115          6           0        8.666684    0.612452   -1.618376
    116          6           0        8.569639   -0.073405   -5.253213
    117          6           0        7.010076    1.790929   -2.700060
    118          8           0        6.283888    2.251445   -3.573717
    119          6           0        7.035698    2.226445   -1.160095
    120          6           0        7.284730    3.681595   -1.017792
    121          8           0        8.375982    4.216659   -0.844596
    122          8           0        6.056887    4.365969   -1.093389
    123          6           0        5.991590    5.809123   -1.044749
    124          1           0       11.248010    0.639365    4.198324
    125          1           0       14.960435   -2.607740    0.117012
    126          1           0       10.869841   -1.736800   -4.646196
    127          1           0        7.705942    3.117906    1.714175
    128          1           0        8.499877    1.458332    3.912118
    129          1           0        9.368816    3.380924    4.668563
    130          1           0        8.982472    4.129846    3.145980
    131          1           0       10.536674    3.313039    3.418200
    132          1           0        6.719153    0.606225    3.038407
    133          1           0        6.388681    0.839622    1.322203
    134          1           0        4.828208    1.772581    3.545536
    135          1           0        4.609273    2.114990    1.905632
    136          1           0       13.909770   -1.017136    5.390229
    137          1           0       13.035878    0.629933    5.049336
    138          1           0       14.661542    0.444040    4.579975
    139          1           0       16.471565   -1.370327    4.665779
    140          1           0       16.905480   -3.012490    4.299665
    141          1           0       15.222784   -2.523036    4.913618
    142          1           0       14.366725   -3.757848   -1.984860
    143          1           0       13.495768   -2.401033   -4.489574
    144          1           0       16.374170   -2.640679   -2.304446
    145          1           0       15.463253   -1.044378   -2.469338
    146          1           0       15.643726   -2.134116   -3.850344
    147          1           0       13.421667   -4.878255   -3.644651
    148          1           0       12.104086   -4.191000   -4.665001
    149          1           0       11.624118   -5.668570   -2.511795
    150          1           0       10.432941   -4.814161   -3.493280
    151          1           0       11.052636   -4.095363   -1.995672
    152          1           0        9.532110    0.222466   -5.668643
    153          1           0        7.830767    0.674274   -5.543342
    154          1           0        8.131492   -1.014097   -5.585616
    155          1           0        6.023974    2.000583   -0.821773
    156          1           0        5.945486    6.273655   -2.029428
    157          1           0        6.694887    6.214760   -0.317315
    158          1           0        5.058133    5.948194   -0.498641
 ---------------------------------------------------------------------

 SCF Done:  E(RCAM-B3LYP) =  -4069.75734058     A.U. after   17 cycles

 Excitation energies and oscillator strengths:

 Excited State   1:      Singlet-A      1.6344 eV  758.61 nm  f=0.3878  <S**2>=0.000
     309 -> 315       -0.16904
     311 -> 313        0.68879
     309 <- 315       -0.10870
 This state for optimization and/or second-order correction.
 Total Energy, E(TD-HF/TD-DFT) =  -4069.69727857
 Copying the excited state density for this state as the 1-particle RhoCI density.

 Excited State   2:      Singlet-A      1.7488 eV  708.99 nm  f=0.3695  <S**2>=0.000
     310 -> 316       -0.18985
     312 -> 314        0.68131
     310 <- 316       -0.10805

 Excited State   3:      Singlet-A      2.1486 eV  577.04 nm  f=0.1468  <S**2>=0.000
     309 -> 313        0.65212
     311 -> 315        0.25535

 Excited State   4:      Singlet-A      2.2729 eV  545.49 nm  f=0.0725  <S**2>=0.000
     310 -> 314        0.62312
     312 -> 316        0.32197

 Excited State   5:      Singlet-A      2.5671 eV  482.98 nm  f=0.0000  <S**2>=0.000
     312 -> 313        0.70706

 The electronic state is 1-A.
 Alpha  occ. eigenvalues --  -46.89945 -46.88443 -19.26218 -19.23867 -19.20316
 Alpha  occ. eigenvalues --  -19.19783 -19.19238 -19.18684 -19.18477 -19.17238
 Alpha  occ. eigenvalues --  -14.42580 -14.42058 -14.42028 -14.41224 -14.40051
 Alpha  occ. eigenvalues --  -14.39658 -14.39623 -14.38852 -10.40469 -10.39382
 Alpha  occ. eigenvalues --  -10.35294 -10.35235 -10.34275 -10.33576 -10.32821
 Alpha  occ. eigenvalues --  -10.32081 -10.31607 -10.31051 -10.31003 -10.30938
 Alpha  occ. eigenvalues --  -10.30928 -10.30759 -10.30710 -10.30696 -10.30390
 Alpha  occ. eigenvalues --  -10.30328 -10.30250 -10.30174 -10.30145 -10.29384
 Alpha  occ. eigenvalues --  -10.29125 -10.29121 -10.28968 -10.28904 -10.28856
 Alpha  occ. eigenvalues --  -10.28784 -10.28453 -10.28407 -10.28306 -10.28194
 Alpha  occ. eigenvalues --  -10.28169 -10.27969 -10.27946 -10.27899 -10.27802
 Alpha  occ. eigenvalues --  -10.27519 -10.27519 -10.27504 -10.27502 -10.27392
 Alpha  occ. eigenvalues --  -10.27317 -10.27230 -10.27199 -10.27180 -10.27088
 Alpha  occ. eigenvalues --  -10.26977 -10.26810 -10.26797 -10.26719 -10.26690
 Alpha  occ. eigenvalues --  -10.26687 -10.26462 -10.26370 -10.26357 -10.26322
 Alpha  occ. eigenvalues --  -10.26251 -10.26041 -10.25701 -10.25514 -10.25260
 Alpha  occ. eigenvalues --  -10.25250 -10.25233 -10.25167 -10.25074 -10.25030
 Alpha  occ. eigenvalues --  -10.24627  -3.18417  -3.16986  -1.93275  -1.92909
 Alpha  occ. eigenvalues --   -1.92692  -1.91893  -1.91453  -1.91273  -1.15677
 Alpha  occ. eigenvalues --   -1.14546  -1.11416  -1.09576  -1.09357  -1.09153
 Alpha  occ. eigenvalues --   -1.07246  -1.07139  -1.05170  -1.04693  -1.04365
 Alpha  occ. eigenvalues --   -1.03975  -1.03033  -1.02932  -1.02153  -1.01308
 Alpha  occ. eigenvalues --   -0.93689  -0.91904  -0.89856  -0.89822  -0.88721
 Alpha  occ. eigenvalues --   -0.88576  -0.88400  -0.88331  -0.87946  -0.87266
 Alpha  occ. eigenvalues --   -0.87250  -0.86673  -0.86118  -0.85885  -0.84545
 Alpha  occ. eigenvalues --   -0.84059  -0.84009  -0.83225  -0.83092  -0.82585
 Alpha  occ. eigenvalues --   -0.82179  -0.81924  -0.80987  -0.80757  -0.80594
 Alpha  occ. eigenvalues --   -0.80361  -0.78886  -0.78528  -0.77807  -0.77042
 Alpha  occ. eigenvalues --   -0.76983  -0.76768  -0.76702  -0.75695  -0.75477
 Alpha  occ. eigenvalues --   -0.74712  -0.73591  -0.72057  -0.71756  -0.71233
 Alpha  occ. eigenvalues --   -0.70054  -0.69391  -0.69179  -0.68827  -0.68384
 Alpha  occ. eigenvalues --   -0.67763  -0.66641  -0.66570  -0.66286  -0.65496
 Alpha  occ. eigenvalues --   -0.64920  -0.64711  -0.64613  -0.64394  -0.64390
 Alpha  occ. eigenvalues --   -0.64107  -0.63597  -0.61437  -0.60286  -0.60267
 Alpha  occ. eigenvalues --   -0.59400  -0.59285  -0.58971  -0.58895  -0.58068
 Alpha  occ. eigenvalues --   -0.57978  -0.57802  -0.57625  -0.57215  -0.57086
 Alpha  occ. eigenvalues --   -0.56535  -0.56214  -0.55803  -0.55420  -0.55323
 Alpha  occ. eigenvalues --   -0.55233  -0.55102  -0.54474  -0.54211  -0.53973
 Alpha  occ. eigenvalues --   -0.53896  -0.53756  -0.53273  -0.53253  -0.53201
 Alpha  occ. eigenvalues --   -0.53075  -0.52671  -0.52505  -0.52266  -0.52089
 Alpha  occ. eigenvalues --   -0.51852  -0.51800  -0.51724  -0.51416  -0.51352
 Alpha  occ. eigenvalues --   -0.51229  -0.51086  -0.50707  -0.50707  -0.50593
 Alpha  occ. eigenvalues --   -0.50532  -0.49987  -0.49844  -0.49711  -0.49697
 Alpha  occ. eigenvalues --   -0.49489  -0.49465  -0.49189  -0.49001  -0.48961
 Alpha  occ. eigenvalues --   -0.48825  -0.48441  -0.48323  -0.48239  -0.48008
 Alpha  occ. eigenvalues --   -0.47870  -0.47563  -0.47524  -0.47310  -0.47279
 Alpha  occ. eigenvalues --   -0.47221  -0.47089  -0.46898  -0.46863  -0.46613
 Alpha  occ. eigenvalues --   -0.46418  -0.46149  -0.46030  -0.45916  -0.45632
 Alpha  occ. eigenvalues --   -0.45532  -0.45333  -0.45322  -0.45006  -0.44928
 Alpha  occ. eigenvalues --   -0.44888  -0.44549  -0.44171  -0.44164  -0.44158
 Alpha  occ. eigenvalues --   -0.44012  -0.43981  -0.43851  -0.43594  -0.43385
 Alpha  occ. eigenvalues --   -0.43342  -0.43234  -0.43076  -0.42864  -0.42704
 Alpha  occ. eigenvalues --   -0.42654  -0.42476  -0.42371  -0.42072  -0.41951
 Alpha  occ. eigenvalues --   -0.41866  -0.41723  -0.41632  -0.41493  -0.41293
 Alpha  occ. eigenvalues --   -0.41243  -0.40959  -0.40572  -0.40545  -0.40275
 Alpha  occ. eigenvalues --   -0.40210  -0.39795  -0.39286  -0.39025  -0.38667
 Alpha  occ. eigenvalues --   -0.38475  -0.37988  -0.37671  -0.37365  -0.37351
 Alpha  occ. eigenvalues --   -0.37035  -0.36878  -0.36563  -0.36113  -0.36002
 Alpha  occ. eigenvalues --   -0.35611  -0.35595  -0.34782  -0.34080  -0.33956
 Alpha  occ. eigenvalues --   -0.33864  -0.33223  -0.33084  -0.31571  -0.31138
 Alpha  occ. eigenvalues --   -0.30897  -0.30889  -0.30737  -0.30508  -0.30087
 Alpha  occ. eigenvalues --   -0.29549  -0.29271  -0.28352  -0.24462  -0.23810
 Alpha  occ. eigenvalues --   -0.21718  -0.20712
 Alpha virt. eigenvalues --   -0.09666  -0.08074  -0.01958  -0.01635   0.00144
 Alpha virt. eigenvalues --    0.00310   0.00998   0.02256   0.02692   0.03395
 Alpha virt. eigenvalues --    0.04575   0.04929   0.04936   0.05197   0.05810

 Mulliken charges:
               1
     1  Mg   0.824964
     2  C    0.019322
     3  C   -0.076912
     4  C   -0.075390
     5  C   -0.091436
     6  N   -0.272114
     7  C   -0.046172
     8  C    0.019040
     9  C   -0.037982
    10  C    0.011880
    11  C    0.090849
    12  C    0.034483
    13  C   -0.114181
    14  H    0.013136
    15  N   -0.363520
    16  C    0.155798
    17  C   -0.164846
    18  C   -0.053252
    19  C    0.114035
    20  C    0.136369
    21  C   -0.034854
    22  O   -0.178670
    23  C    0.046385
    24  N   -0.288427
    25  C    0.057838
    26  C   -0.083527
    27  C   -0.035967
    28  C    0.048075
    29  C    0.096435
    30  C    0.031049
    31  C    0.010256
    32  N   -0.351621
    33  C    0.123597
    34  C   -0.172920
    35  C    0.107902
    36  C    0.078499
    37  C    0.118822
    38  C   -0.023682
    39  O   -0.181143
    40  C   -0.040641
    41  C    0.244441
    42  O   -0.225129
    43  O   -0.349286
    44  C    0.180480
    45  H   -0.015890
    46  H   -0.017670
    47  H   -0.038136
    48  H    0.014981
    49  H    0.022629
    50  H    0.014108
    51  H    0.019259
    52  H    0.005465
    53  H    0.034707
    54  H    0.020996
    55  H    0.042716
    56  H    0.034062
    57  H    0.010823
    58  H    0.039523
    59  H    0.029792
    60  H    0.015050
    61  H    0.048988
    62  H    0.031073
    63  H    0.029313
    64  H    0.016061
    65  H    0.016619
    66  H    0.016701
    67  H    0.012774
    68  H    0.006004
    69  H    0.002059
    70  H    0.033032
    71  H    0.005105
    72  H    0.010813
    73  H    0.037138
    74  H    0.036799
    75  H    0.010810
    76  H    0.037253
    77  H    0.035778
    78  H    0.037977
    79  H    0.041303
    80  Mg   0.820955
    81  C    0.030447
    82  C   -0.107790
    83  C   -0.061808
    84  C   -0.079866
    85  N   -0.200739
    86  C   -0.088541
    87  C   -0.039317
    88  C   -0.030697
    89  C    0.038543
    90  C    0.063015
    91  C    0.035460
    92  C   -0.045845
    93  H    0.028388
    94  N   -0.333851
    95  C    0.142383
    96  C   -0.171192
    97  C   -0.048977
    98  C    0.118303
    99  C    0.141187
   100  C    0.013135
   101  O   -0.220368
   102  C    0.057319
   103  N   -0.336827
   104  C    0.016341
   105  C   -0.060053
   106  C    0.004171
   107  C    0.025607
   108  C    0.091703
   109  C   -0.015089
   110  C    0.015218
   111  N   -0.395372
   112  C    0.152182
   113  C   -0.185209
   114  C    0.030641
   115  C    0.122634
   116  C    0.129665
   117  C    0.041253
   118  O   -0.160671
   119  C   -0.039234
   120  C    0.232515
   121  O   -0.217112
   122  O   -0.361534
   123  C    0.186765
   124  H   -0.014656
   125  H   -0.010820
   126  H   -0.032538
   127  H    0.024807
   128  H    0.002047
   129  H    0.002961
   130  H    0.024223
   131  H    0.005857
   132  H    0.006449
   133  H    0.011533
   134  H    0.020865
   135  H    0.030468
   136  H    0.039905
   137  H    0.014456
   138  H    0.038006
   139  H    0.028204
   140  H    0.036866
   141  H    0.029713
   142  H    0.014367
   143  H    0.008474
   144  H    0.034225
   145  H    0.027531
   146  H    0.007450
   147  H    0.020550
   148  H    0.002216
   149  H    0.010321
   150  H    0.021398
   151  H    0.027560
   152  H    0.036458
   153  H    0.019261
   154  H    0.021640
   155  H    0.045556
   156  H    0.053726
   157  H    0.030120
   158  H    0.023065
 Sum of Mulliken charges =  -0.00000

 Dipole moment (field-independent basis, Debye):
    X=             -1.7906    Y=             -2.9888    Z=              7.2798  Tot=              8.0706
 Quadrupole moment (field-independent basis, Debye-Ang):
   XX=           -483.7740   YY=           -530.5654   ZZ=           -476.3518
   XY=            -22.1482   XZ=            -14.9379   YZ=            -12.7305

 Normal termination of Gaussian 16 at Wed Sep 15 00:06:52 2021.
