 Gaussian 16, Revision A.03,
 Gaussian 16:  ES64L-G16RevA.03 25-Dec-2016

 ----------------------------------------------------------
 #p cam-b3lyp/Def2SVP td=(nstates=5) density=(transition=1)
 ----------------------------------------------------------

 --------------------------------
 TDDFT excited states in gaussian
 --------------------------------
 Symbolic Z-matrix:
 Charge =  0 Multiplicity = 1

                         Standard orientation:
 ---------------------------------------------------------------------
 Center     Atomic      Atomic             Coordinates (Angstroms)
 Number     Number       Type             X           Y           Z
 ---------------------------------------------------------------------
      1         12           0      -30.438958    0.018839    0.098301
      2          6           0      -27.169419    0.660571   -0.757364
      3          6           0      -29.648223   -3.131791    1.182589
      4          6           0      -33.736984   -0.536242    1.140565
      5          6           0      -31.185931    3.381386   -0.149722
      6          7           0      -28.526764   -0.967311    0.367205
      7          6           0      -27.298877   -0.629158   -0.208151
      8          6           0      -26.228643   -1.679696    0.098843
      9          6           0      -27.143311   -2.854974    0.527937
     10          6           0      -28.550429   -2.286802    0.804207
     11          6           0      -27.090661   -4.051269   -0.447354
     12          6           0      -25.250860   -1.213796    1.195765
     13          6           0      -23.732364   -1.532821    0.971859
     14          1           0      -22.927792   -1.766108    2.190533
     15          7           0      -31.509214   -1.597798    0.960704
     16          6           0      -31.033633   -2.831342    1.247084
     17          6           0      -32.069228   -3.772893    1.551114
     18          6           0      -33.287325   -3.086862    1.415410
     19          6           0      -32.880122   -1.649784    1.125719
     20          6           0      -31.836638   -5.265694    1.792920
     21          6           0      -34.733051   -3.674638    1.601547
     22          8           0      -34.848545   -4.865001    1.990650
     23          6           0      -36.062033   -2.879008    1.246009
     24          7           0      -32.135187    1.301633    0.733938
     25          6           0      -33.380235    0.819462    0.966479
     26          6           0      -34.434242    1.896680    0.981199
     27          6           0      -33.638971    3.169765    0.619842
     28          6           0      -32.245013    2.600838    0.343092
     29          6           0      -35.677080    1.607678    0.075510
     30          6           0      -33.744750    4.319441    1.731474
     31          6           0      -34.652415    5.495102    1.351613
     32          7           0      -29.440302    1.696360   -0.408945
     33          6           0      -29.852775    3.043143   -0.511918
     34          6           0      -28.798168    3.823126   -1.172957
     35          6           0      -27.779557    2.895772   -1.342625
     36          6           0      -28.191169    1.689860   -0.751664
     37          6           0      -28.764765    5.259304   -1.556255
     38          6           0      -26.408468    2.735292   -1.847453
     39          8           0      -25.703915    3.457406   -2.571889
     40          6           0      -25.966305    1.251463   -1.526150
     41          6           0      -25.656813    0.476335   -2.799845
     42          8           0      -26.317340    0.444812   -3.842963
     43          8           0      -24.453998   -0.106731   -2.531972
     44          6           0      -23.801115   -0.785465   -3.638860
     45          1           0      -29.409868   -4.140540    1.525932
     46          1           0      -34.805454   -0.598945    1.357373
     47          1           0      -31.358331    4.453891   -0.259825
     48          1           0      -25.644842   -1.879580   -0.800283
     49          1           0      -26.701614   -3.182587    1.468989
     50          1           0      -26.235021   -4.164400   -1.113039
     51          1           0      -27.935445   -3.913003   -1.121962
     52          1           0      -27.174972   -5.007449    0.068557
     53          1           0      -25.541653   -1.547117    2.191606
     54          1           0      -25.435293   -0.144034    1.297138
     55          1           0      -23.277868   -0.713398    0.415079
     56          1           0      -23.656068   -2.463857    0.408472
     57          1           0      -32.452192   -5.779734    1.055055
     58          1           0      -31.947695   -5.487603    2.854369
     59          1           0      -30.802564   -5.429377    1.489739
     60          1           0      -36.296205   -2.277883    2.123813
     61          1           0      -36.834229   -3.633070    1.095479
     62          1           0      -35.894610   -2.429609    0.266804
     63          1           0      -34.815201    1.977906    1.999304
     64          1           0      -33.846033    3.610403   -0.355103
     65          1           0      -35.952492    2.479311   -0.517575
     66          1           0      -36.553899    1.308491    0.649481
     67          1           0      -35.469261    0.736474   -0.544339
     68          1           0      -32.784519    4.794453    1.932105
     69          1           0      -34.035053    3.886804    2.688830
     70          1           0      -35.212373    5.824173    2.227154
     71          1           0      -35.352625    5.183464    0.576872
     72          1           0      -34.116816    6.357117    0.954340
     73          1           0      -29.753198    5.672661   -1.355562
     74          1           0      -28.308304    5.371257   -2.539923
     75          1           0      -28.128752    5.748945   -0.818019
     76          1           0      -25.117301    1.209280   -0.843346
     77          1           0      -24.469853   -1.413256   -4.229100
     78          1           0      -22.932343   -1.399359   -3.401302
     79          1           0      -23.377108   -0.048640   -4.321548
     80         12           0       29.754442    0.656022    0.560845
     81          6           0       28.801362   -2.470749   -0.953663
     82          6           0       29.011211    2.224397   -2.292854
     83          6           0       31.465151    3.286935    1.736651
     84          6           0       30.913479   -1.226111    3.284532
     85          7           0       29.058300   -0.058184   -1.372314
     86          6           0       28.548223   -1.318309   -1.728398
     87          6           0       27.805911   -1.265744   -3.117918
     88          6           0       27.960684    0.231071   -3.524312
     89          6           0       28.674013    0.864303   -2.300150
     90          6           0       28.683453    0.527089   -4.813878
     91          6           0       26.282679   -1.815715   -3.037108
     92          6           0       25.926258   -2.905650   -4.055517
     93          1           0       24.722080   -2.531535   -4.997510
     94          7           0       30.061000    2.558476   -0.126601
     95          6           0       29.695349    3.034208   -1.321241
     96          6           0       30.113267    4.426037   -1.498027
     97          6           0       30.918763    4.690007   -0.336804
     98          6           0       30.862332    3.483127    0.494664
     99          6           0       29.759838    5.234435   -2.671829
    100          6           0       31.748589    5.996823   -0.135710
    101          8           0       32.369844    6.216277    0.890655
    102          6           0       31.821051    7.076765   -1.167625
    103          7           0       30.962767    0.953715    2.218489
    104          6           0       31.467385    2.204539    2.557582
    105          6           0       32.185615    2.161688    3.946283
    106          6           0       31.681368    0.800806    4.556255
    107          6           0       31.098292    0.138959    3.307920
    108          6           0       33.726120    2.426477    3.980079
    109          6           0       30.607450    0.960539    5.667049
    110          6           0       30.665549    0.049093    6.866885
    111          7           0       29.901626   -1.420690    1.071220
    112          6           0       30.392399   -2.010114    2.201567
    113          6           0       30.080981   -3.504997    2.145246
    114          6           0       29.418955   -3.713878    0.959573
    115          6           0       29.395502   -2.433004    0.308362
    116          6           0       30.383486   -4.446307    3.288867
    117          6           0       28.792616   -4.677038    0.071586
    118          8           0       28.679793   -5.894151    0.327339
    119          6           0       28.423089   -3.897100   -1.326652
    120          6           0       29.219075   -4.346872   -2.533987
    121          8           0       30.465722   -4.357922   -2.509401
    122          8           0       28.412159   -4.889123   -3.535118
    123          6           0       29.173837   -5.690587   -4.485938
    124          1           0       28.690499    2.818282   -3.151039
    125          1           0       31.943092    4.209735    2.071016
    126          1           0       31.188847   -1.724388    4.216885
    127          1           0       28.397704   -1.951306   -3.724137
    128          1           0       26.948884    0.551407   -3.776577
    129          1           0       29.067013   -0.366595   -5.306312
    130          1           0       29.568872    1.016520   -4.409599
    131          1           0       28.068911    1.058810   -5.540941
    132          1           0       25.694672   -0.909560   -3.180133
    133          1           0       26.071084   -2.121174   -2.012746
    134          1           0       25.764029   -3.820941   -3.486287
    135          1           0       26.780711   -3.073986   -4.712258
    136          1           0       30.541157    5.704152   -3.268514
    137          1           0       29.327746    6.142184   -2.252194
    138          1           0       28.942842    4.846448   -3.280568
    139          1           0       30.792685    7.418999   -1.289602
    140          1           0       32.110363    6.593734   -2.101362
    141          1           0       32.533341    7.804627   -0.781108
    142          1           0       31.719678    2.977220    4.499426
    143          1           0       32.495958    0.151079    4.875386
    144          1           0       33.965368    2.729917    2.961123
    145          1           0       34.317450    1.586831    4.344234
    146          1           0       33.975070    3.331411    4.535735
    147          1           0       29.732995    0.750711    5.051393
    148          1           0       30.489403    1.975434    6.047273
    149          1           0       30.463478    0.687157    7.727281
    150          1           0       31.650315   -0.392761    7.022266
    151          1           0       29.791342   -0.597975    6.790898
    152          1           0       30.870960   -3.858843    4.066701
    153          1           0       31.127378   -5.165422    2.946667
    154          1           0       29.471018   -4.960300    3.590375
    155          1           0       27.348171   -3.977833   -1.488344
    156          1           0       28.985921   -6.762681   -4.447477
    157          1           0       30.252833   -5.547562   -4.425810
    158          1           0       28.881258   -5.341761   -5.475968
 ---------------------------------------------------------------------

 SCF Done:  E(RCAM-B3LYP) =  -4069.81571029     A.U. after   19 cycles

 Excitation energies and oscillator strengths:

 Excited State   1:      Singlet-A      1.6980 eV  730.19 nm  f=0.4080  <S**2>=0.000
     310 -> 316       -0.17306
     312 -> 314        0.68834
     310 <- 316       -0.10784
 This state for optimization and/or second-order correction.
 Total Energy, E(TD-HF/TD-DFT) =  -4069.75331077
 Copying the excited state density for this state as the 1-particle RhoCI density.

 Excited State   2:      Singlet-A      1.7088 eV  725.55 nm  f=0.3717  <S**2>=0.000
     309 -> 315        0.17445
     311 -> 313        0.68605
     309 <- 315        0.10517

 Excited State   3:      Singlet-A      2.2476 eV  551.63 nm  f=0.0932  <S**2>=0.000
     309 -> 313        0.62547
     311 -> 315       -0.31551

 Excited State   4:      Singlet-A      2.2865 eV  542.24 nm  f=0.0918  <S**2>=0.000
     310 -> 314        0.63010
     312 -> 316        0.31285

 Excited State   5:      Singlet-A      3.1611 eV  392.22 nm  f=0.0000  <S**2>=0.000
     312 -> 313        0.70711

 The electronic state is 1-A.
 Alpha  occ. eigenvalues --  -46.89188 -46.88382 -19.26700 -19.26377 -19.20854
 Alpha  occ. eigenvalues --  -19.20279 -19.19928 -19.19698 -19.18548 -19.18461
 Alpha  occ. eigenvalues --  -14.42566 -14.42421 -14.42187 -14.41651 -14.40242
 Alpha  occ. eigenvalues --  -14.39684 -14.39368 -14.39123 -10.40836 -10.39970
 Alpha  occ. eigenvalues --  -10.36690 -10.36505 -10.34927 -10.34766 -10.32214
 Alpha  occ. eigenvalues --  -10.32065 -10.31745 -10.31607 -10.31592 -10.31199
 Alpha  occ. eigenvalues --  -10.31107 -10.30960 -10.30649 -10.30493 -10.30414
 Alpha  occ. eigenvalues --  -10.30336 -10.30122 -10.29955 -10.29782 -10.29689
 Alpha  occ. eigenvalues --  -10.29503 -10.29136 -10.29004 -10.28864 -10.28829
 Alpha  occ. eigenvalues --  -10.28562 -10.28507 -10.28492 -10.28364 -10.28238
 Alpha  occ. eigenvalues --  -10.28171 -10.28048 -10.28034 -10.28029 -10.27986
 Alpha  occ. eigenvalues --  -10.27929 -10.27757 -10.27725 -10.27717 -10.27625
 Alpha  occ. eigenvalues --  -10.27484 -10.27466 -10.27363 -10.27309 -10.27291
 Alpha  occ. eigenvalues --  -10.27222 -10.27079 -10.27002 -10.26944 -10.26928
 Alpha  occ. eigenvalues --  -10.26749 -10.26585 -10.26507 -10.26294 -10.26147
 Alpha  occ. eigenvalues --  -10.26143 -10.26068 -10.25987 -10.25921 -10.25776
 Alpha  occ. eigenvalues --  -10.25721 -10.25532 -10.25498 -10.25429 -10.25218
 Alpha  occ. eigenvalues --  -10.24601  -3.17721  -3.17033  -1.92587  -1.92163
 Alpha  occ. eigenvalues --   -1.92051  -1.91915  -1.91472  -1.91361  -1.16852
 Alpha  occ. eigenvalues --   -1.16344  -1.10111  -1.09043  -1.08631  -1.08374
 Alpha  occ. eigenvalues --   -1.07960  -1.07767  -1.04689  -1.04017  -1.03920
 Alpha  occ. eigenvalues --   -1.03534  -1.03298  -1.02645  -1.02165  -1.01884
 Alpha  occ. eigenvalues --   -0.92635  -0.91433  -0.89117  -0.88890  -0.88851
 Alpha  occ. eigenvalues --   -0.88746  -0.88709  -0.88035  -0.87330  -0.87293
 Alpha  occ. eigenvalues --   -0.87230  -0.87001  -0.86406  -0.86123  -0.84327
 Alpha  occ. eigenvalues --   -0.84289  -0.83910  -0.83664  -0.82720  -0.82521
 Alpha  occ. eigenvalues --   -0.81937  -0.81652  -0.81207  -0.81135  -0.80233
 Alpha  occ. eigenvalues --   -0.80205  -0.78433  -0.77951  -0.77610  -0.77491
 Alpha  occ. eigenvalues --   -0.76931  -0.76758  -0.76225  -0.75903  -0.75307
 Alpha  occ. eigenvalues --   -0.74707  -0.72720  -0.72451  -0.71738  -0.70973
 Alpha  occ. eigenvalues --   -0.69210  -0.69003  -0.68983  -0.68406  -0.67915
 Alpha  occ. eigenvalues --   -0.67899  -0.67265  -0.66719  -0.66143  -0.65341
 Alpha  occ. eigenvalues --   -0.65092  -0.65007  -0.64994  -0.64898  -0.64570
 Alpha  occ. eigenvalues --   -0.64355  -0.62701  -0.62595  -0.60291  -0.59959
 Alpha  occ. eigenvalues --   -0.59775  -0.59609  -0.58936  -0.58920  -0.58620
 Alpha  occ. eigenvalues --   -0.58526  -0.58335  -0.57743  -0.57321  -0.57249
 Alpha  occ. eigenvalues --   -0.56259  -0.55980  -0.55772  -0.55431  -0.55359
 Alpha  occ. eigenvalues --   -0.55119  -0.55030  -0.54927  -0.53779  -0.53773
 Alpha  occ. eigenvalues --   -0.53517  -0.53384  -0.53153  -0.53136  -0.52808
 Alpha  occ. eigenvalues --   -0.52611  -0.52603  -0.52460  -0.52027  -0.51834
 Alpha  occ. eigenvalues --   -0.51620  -0.51600  -0.51489  -0.51369  -0.51276
 Alpha  occ. eigenvalues --   -0.51194  -0.51136  -0.51113  -0.50885  -0.50828
 Alpha  occ. eigenvalues --   -0.50251  -0.49956  -0.49611  -0.49476  -0.49375
 Alpha  occ. eigenvalues --   -0.49342  -0.49159  -0.49069  -0.48793  -0.48627
 Alpha  occ. eigenvalues --   -0.48524  -0.48323  -0.48280  -0.48159  -0.48148
 Alpha  occ. eigenvalues --   -0.47956  -0.47860  -0.47697  -0.47487  -0.47239
 Alpha  occ. eigenvalues --   -0.47193  -0.47025  -0.46876  -0.46758  -0.46591
 Alpha  occ. eigenvalues --   -0.46486  -0.46399  -0.46023  -0.46017  -0.45949
 Alpha  occ. eigenvalues --   -0.45677  -0.45582  -0.45371  -0.45266  -0.44787
 Alpha  occ. eigenvalues --   -0.44572  -0.44447  -0.44330  -0.44144  -0.44133
 Alpha  occ. eigenvalues --   -0.44035  -0.43817  -0.43804  -0.43784  -0.43616
 Alpha  occ. eigenvalues --   -0.43495  -0.43293  -0.43201  -0.42999  -0.42956
 Alpha  occ. eigenvalues --   -0.42852  -0.42670  -0.42484  -0.42466  -0.42134
 Alpha  occ. eigenvalues --   -0.41971  -0.41727  -0.41708  -0.41594  -0.41163
 Alpha  occ. eigenvalues --   -0.41124  -0.40810  -0.40788  -0.40617  -0.40562
 Alpha  occ. eigenvalues --   -0.40179  -0.39728  -0.39503  -0.39374  -0.39135
 Alpha  occ. eigenvalues --   -0.38695  -0.38398  -0.38295  -0.38168  -0.37812
 Alpha  occ. eigenvalues --   -0.37429  -0.37417  -0.37396  -0.36867  -0.36429
 Alpha  occ. eigenvalues --   -0.36419  -0.36110  -0.35155  -0.34883  -0.34809
 Alpha  occ. eigenvalues --   -0.34438  -0.33046  -0.32887  -0.31595  -0.31553
 Alpha  occ. eigenvalues --   -0.31391  -0.31212  -0.30697  -0.30507  -0.30466
 Alpha  occ. eigenvalues --   -0.30390  -0.29849  -0.29782  -0.24213  -0.24171
 Alpha  occ. eigenvalues --   -0.21096  -0.20778
 Alpha virt. eigenvalues --   -0.08595  -0.08427  -0.02036  -0.01318  -0.00045
 Alpha virt. eigenvalues --    0.00158   0.01625   0.01784   0.01966   0.02326
 Alpha virt. eigenvalues --    0.02803   0.04534   0.04973   0.05034   0.05543

 Mulliken charges:
               1
     1  Mg  12.000022
     2  C    5.999613
     3  C    6.000206
     4  C    6.000369
     5  C    5.999930
     6  N    6.999806
     7  C    6.000441
     8  C    5.999909
     9  C    6.000103
    10  C    5.999642
    11  C    6.000044
    12  C    6.000012
    13  C    5.999987
    14  H    1.000025
    15  N    7.000063
    16  C    5.999513
    17  C    5.999798
    18  C    5.999832
    19  C    5.999469
    20  C    6.000065
    21  C    5.999869
    22  O    7.999757
    23  C    5.999993
    24  N    7.000091
    25  C    5.999559
    26  C    6.000155
    27  C    5.999897
    28  C    6.000350
    29  C    5.999995
    30  C    5.999955
    31  C    5.999987
    32  N    7.000023
    33  C    6.000510
    34  C    6.000258
    35  C    6.000104
    36  C    6.000333
    37  C    5.999911
    38  C    6.000208
    39  O    8.000383
    40  C    6.000016
    41  C    6.000061
    42  O    8.000032
    43  O    8.000017
    44  C    5.999978
    45  H    0.999848
    46  H    0.999931
    47  H    1.000192
    48  H    0.999973
    49  H    0.999914
    50  H    0.999821
    51  H    0.999996
    52  H    0.999989
    53  H    1.000104
    54  H    0.999916
    55  H    0.999953
    56  H    1.000038
    57  H    0.999807
    58  H    0.999771
    59  H    0.999787
    60  H    0.999882
    61  H    0.999862
    62  H    0.999907
    63  H    0.999974
    64  H    0.999970
    65  H    0.999886
    66  H    1.000023
    67  H    1.000036
    68  H    0.999962
    69  H    1.000140
    70  H    1.000073
    71  H    1.000071
    72  H    0.999987
    73  H    1.000214
    74  H    1.000221
    75  H    1.000261
    76  H    1.000085
    77  H    1.000055
    78  H    1.000045
    79  H    1.000016
    80  Mg  11.996943
    81  C    5.971183
    82  C    6.021955
    83  C    6.019059
    84  C    5.975055
    85  N    6.993359
    86  C    6.040847
    87  C    5.989332
    88  C    6.013628
    89  C    5.965491
    90  C    6.000799
    91  C    5.995224
    92  C    5.996953
    93  H    1.010590
    94  N    7.007962
    95  C    5.954819
    96  C    5.976195
    97  C    5.988030
    98  C    5.956043
    99  C    6.008392
   100  C    5.986998
   101  O    7.976168
   102  C    6.002320
   103  N    6.999348
   104  C    5.968578
   105  C    6.008373
   106  C    5.990051
   107  C    6.033622
   108  C    5.998163
   109  C    5.998415
   110  C    5.997724
   111  N    6.997569
   112  C    6.048190
   113  C    6.031085
   114  C    6.002474
   115  C    6.038960
   116  C    5.995137
   117  C    6.016490
   118  O    8.029226
   119  C    6.006381
   120  C    6.005470
   121  O    8.003498
   122  O    8.002908
   123  C    5.996230
   124  H    0.991833
   125  H    0.991914
   126  H    1.009194
   127  H    1.001836
   128  H    0.994148
   129  H    0.987231
   130  H    1.006922
   131  H    0.997706
   132  H    1.011871
   133  H    0.995606
   134  H    0.996262
   135  H    1.001947
   136  H    0.975620
   137  H    0.979352
   138  H    0.979572
   139  H    0.994423
   140  H    0.994829
   141  H    0.985036
   142  H    0.999941
   143  H    0.999346
   144  H    1.005600
   145  H    0.987718
   146  H    0.998185
   147  H    0.999201
   148  H    1.012782
   149  H    1.005274
   150  H    1.001183
   151  H    0.995900
   152  H    1.020484
   153  H    1.021335
   154  H    1.020039
   155  H    1.008914
   156  H    1.003032
   157  H    1.003438
   158  H    1.007094
 Sum of Mulliken charges = 624.00000

 Dipole moment (field-independent basis, Debye):
    X=             -1.3219    Y=            -10.8058    Z=              2.8679  Tot=             11.2578
 Quadrupole moment (field-independent basis, Debye-Ang):
   XX=            -86.5071   YY=             -9.7540   ZZ=              4.6816
   XY=           -332.9480   XZ=             88.6917   YZ=              0.7847

 Normal termination of Gaussian 16 at Thu Sep 23 12:13:54 2021.
