 Gaussian 16, Revision A.03,
 Gaussian 16:  ES64L-G16RevA.03 25-Dec-2016

 -----------------------------------
 #p cam-b3lyp/Def2SVP td=(nstates=5)
 -----------------------------------

 --------------------------------
 TDDFT excited states in gaussian
 --------------------------------
 Symbolic Z-matrix:
 Charge =  0 Multiplicity = 1

                         Standard orientation:
 ---------------------------------------------------------------------
 Center     Atomic      Atomic             Coordinates (Angstroms)
 Number     Number       Type             X           Y           Z
 ---------------------------------------------------------------------
      1         12           0      -29.270518    0.380937    0.480212
      2          6           0      -27.909974   -2.084460   -1.594318
      3          6           0      -29.580958    2.331233   -2.372500
      4          6           0      -30.131279    2.826208    2.442611
      5          6           0      -28.629554   -1.731508    3.249764
      6          7           0      -28.414398    0.294452   -1.717614
      7          6           0      -28.068252   -0.851748   -2.312450
      8          6           0      -27.916919   -0.578775   -3.771640
      9          6           0      -28.035756    0.959012   -3.908241
     10          6           0      -28.751265    1.245894   -2.603040
     11          6           0      -26.777586    1.805968   -4.107334
     12          6           0      -28.997152   -1.322435   -4.619535
     13          6           0      -28.544867   -2.150404   -5.865523
     14          1           0      -27.271823   -1.707577   -6.652075
     15          7           0      -29.940287    2.310311    0.064660
     16          6           0      -30.158905    2.821524   -1.207751
     17          6           0      -30.750881    4.107673   -1.031784
     18          6           0      -30.813731    4.355173    0.398020
     19          6           0      -30.304055    3.160438    1.054314
     20          6           0      -31.106685    5.074938   -2.181958
     21          6           0      -31.252717    5.632850    1.169615
     22          8           0      -31.248224    5.739288    2.354969
     23          6           0      -31.775222    6.774504    0.319909
     24          7           0      -29.365266    0.483622    2.536714
     25          6           0      -29.697403    1.655521    3.122989
     26          6           0      -29.712165    1.601903    4.675561
     27          6           0      -29.487072    0.044430    4.895859
     28          6           0      -29.164757   -0.471049    3.498277
     29          6           0      -28.565510    2.589033    5.297968
     30          6           0      -30.655050   -0.657852    5.657063
     31          6           0      -31.696617   -1.395168    4.834597
     32          7           0      -28.473648   -1.558416    0.842624
     33          6           0      -28.364925   -2.297970    1.989269
     34          6           0      -27.805681   -3.646905    1.624655
     35          6           0      -27.622262   -3.584351    0.224778
     36          6           0      -28.000228   -2.277604   -0.229715
     37          6           0      -27.355369   -4.740153    2.555151
     38          6           0      -27.168380   -4.325919   -0.949160
     39          8           0      -26.719418   -5.474805   -0.994640
     40          6           0      -27.495874   -3.440060   -2.147516
     41          6           0      -26.235612   -3.375863   -2.961941
     42          8           0      -25.267289   -2.685091   -2.702719
     43          8           0      -26.338781   -4.340243   -3.861584
     44          6           0      -25.126364   -4.797101   -4.522537
     45          1           0      -29.548238    2.998426   -3.235809
     46          1           0      -30.586018    3.566099    3.104127
     47          1           0      -28.446500   -2.387793    4.103496
     48          1           0      -26.939472   -0.937824   -4.092226
     49          1           0      -28.623317    1.134541   -4.809481
     50          1           0      -25.835920    1.262866   -4.189326
     51          1           0      -26.674669    2.524719   -3.293893
     52          1           0      -26.933433    2.361075   -5.032093
     53          1           0      -29.833848   -0.688023   -4.911299
     54          1           0      -29.381723   -1.994779   -3.852744
     55          1           0      -29.403297   -2.085127   -6.535248
     56          1           0      -28.401928   -3.186474   -5.559618
     57          1           0      -30.674255    6.067965   -2.059084
     58          1           0      -32.172184    5.302667   -2.216489
     59          1           0      -30.844613    4.710609   -3.176157
     60          1           0      -32.551851    6.461208   -0.378104
     61          1           0      -30.923790    7.238974   -0.177672
     62          1           0      -32.113998    7.593907    0.953845
     63          1           0      -30.667535    1.915664    5.095825
     64          1           0      -28.640067   -0.176635    5.545177
     65          1           0      -27.806294    1.908567    5.683764
     66          1           0      -28.892303    3.127828    6.187631
     67          1           0      -28.057352    3.204949    4.555136
     68          1           0      -31.212016    0.170376    6.095383
     69          1           0      -30.301974   -1.298057    6.465246
     70          1           0      -31.899834   -0.719833    4.002604
     71          1           0      -32.514123   -1.472456    5.551022
     72          1           0      -31.455571   -2.336343    4.341111
     73          1           0      -27.357396   -4.547950    3.628113
     74          1           0      -26.329390   -5.016456    2.311583
     75          1           0      -27.961463   -5.605027    2.287288
     76          1           0      -28.197930   -3.874973   -2.859174
     77          1           0      -24.155242   -4.417959   -4.205910
     78          1           0      -25.254491   -4.418316   -5.537007
     79          1           0      -25.264579   -5.842643   -4.798199
     80         12           0       29.071317    0.500740   -0.569291
     81          6           0       27.699720   -2.363246    0.837602
     82          6           0       26.128158    2.260559    0.324807
     83          6           0       30.717864    3.396790   -0.826065
     84          6           0       32.144183   -1.217003   -0.757744
     85          7           0       27.221287    0.047368    0.817770
     86          6           0       26.829751   -1.255758    1.009856
     87          6           0       25.451671   -1.335335    1.587903
     88          6           0       24.854579    0.091299    1.187183
     89          6           0       26.129434    0.905156    0.767467
     90          6           0       23.729575    0.086179    0.033487
     91          6           0       25.512512   -1.727850    3.153046
     92          6           0       24.331433   -2.388480    3.657858
     93          1           0       23.704278   -1.685366    4.880321
     94          7           0       28.492000    2.533318   -0.474839
     95          6           0       27.223999    3.055042   -0.094052
     96          6           0       27.290250    4.501089   -0.221522
     97          6           0       28.609614    4.872194   -0.577815
     98          6           0       29.329964    3.563294   -0.728123
     99          6           0       26.155635    5.377069    0.159816
    100          6           0       29.112875    6.370686   -0.706604
    101          8           0       28.284085    7.255330   -0.498036
    102          6           0       30.444101    6.723281   -1.361271
    103          7           0       31.132600    0.962932   -0.659374
    104          6           0       31.505210    2.248195   -0.885472
    105          6           0       33.146016    2.436894   -0.945290
    106          6           0       33.585929    0.907334   -1.141548
    107          6           0       32.257118    0.132379   -0.873450
    108          6           0       33.692542    3.328349   -2.123952
    109          6           0       34.692680    0.471837   -0.179326
    110          6           0       36.040373   -0.069934   -0.713219
    111          7           0       29.712278   -1.449114   -0.343296
    112          6           0       30.957512   -1.988070   -0.489284
    113          6           0       30.872848   -3.414611   -0.338760
    114          6           0       29.565307   -3.577859    0.255854
    115          6           0       28.942131   -2.318262    0.255165
    116          6           0       32.002800   -4.395137   -0.465364
    117          6           0       28.700693   -4.545386    0.898630
    118          8           0       28.791437   -5.733807    0.960353
    119          6           0       27.354643   -3.817750    1.285892
    120          6           0       26.108760   -4.313198    0.518988
    121          8           0       26.044213   -4.434544   -0.685451
    122          8           0       25.108667   -4.693292    1.437629
    123          6           0       23.950078   -5.339403    0.898947
    124          1           0       25.170799    2.728882    0.559389
    125          1           0       31.334168    4.286654   -0.683151
    126          1           0       33.112960   -1.711509   -0.849354
    127          1           0       24.793961   -1.982312    1.006515
    128          1           0       24.427221    0.540497    2.084395
    129          1           0       22.843555    0.517239    0.499420
    130          1           0       23.526143   -0.910716   -0.356334
    131          1           0       24.096153    0.748965   -0.750907
    132          1           0       25.614663   -0.762383    3.648283
    133          1           0       26.463249   -2.259977    3.195112
    134          1           0       24.643778   -3.396372    3.928521
    135          1           0       23.553941   -2.399676    2.894048
    136          1           0       25.234104    4.809256    0.286916
    137          1           0       25.930938    6.068887   -0.652357
    138          1           0       26.350496    5.890202    1.101822
    139          1           0       31.314200    6.380933   -0.800182
    140          1           0       30.469098    7.806367   -1.485681
    141          1           0       30.437637    6.286779   -2.360097
    142          1           0       33.391997    2.778460    0.059785
    143          1           0       33.820616    0.624840   -2.168045
    144          1           0       34.130596    4.241186   -1.721345
    145          1           0       32.869856    3.595648   -2.788238
    146          1           0       34.445549    2.732412   -2.640764
    147          1           0       34.320041   -0.222119    0.573768
    148          1           0       35.002809    1.235695    0.533543
    149          1           0       36.252612   -1.128832   -0.563114
    150          1           0       36.800529    0.458290   -0.137176
    151          1           0       36.146572    0.117899   -1.782325
    152          1           0       31.554761   -5.379948   -0.599979
    153          1           0       32.509048   -4.640061    0.467821
    154          1           0       32.762233   -4.131766   -1.201097
    155          1           0       27.236245   -4.074599    2.338933
    156          1           0       23.210502   -5.063526    1.651325
    157          1           0       24.013869   -6.424616    0.976653
    158          1           0       23.774613   -5.029564   -0.130476
 ---------------------------------------------------------------------

 SCF Done:  E(RCAM-B3LYP) =  -4069.77938623     A.U. after   17 cycles

 Excitation energies and oscillator strengths:

 Excited State   1:      Singlet-A      1.6845 eV  736.01 nm  f=0.3860  <S**2>=0.000
     309 -> 315       -0.17410
     311 -> 313        0.68817
     309 <- 315       -0.10834
 This state for optimization and/or second-order correction.
 Total Energy, E(TD-HF/TD-DFT) =  -4069.71748055
 Copying the excited state density for this state as the 1-particle RhoCI density.

 Excited State   2:      Singlet-A      1.7292 eV  716.98 nm  f=0.3999  <S**2>=0.000
     310 -> 316       -0.18718
     312 -> 314        0.68374
     310 <- 316       -0.10975

 Excited State   3:      Singlet-A      2.2139 eV  560.03 nm  f=0.1005  <S**2>=0.000
     310 -> 314        0.64250
     312 -> 316        0.28232

 Excited State   4:      Singlet-A      2.2457 eV  552.09 nm  f=0.1075  <S**2>=0.000
     309 -> 313        0.63690
     311 -> 315        0.29189

 Excited State   5:      Singlet-A      3.1827 eV  389.56 nm  f=0.0000  <S**2>=0.000
     312 -> 313        0.70711

 The electronic state is 1-A.
 Alpha  occ. eigenvalues --  -46.89801 -46.88796 -19.26263 -19.25132 -19.20744
 Alpha  occ. eigenvalues --  -19.19697 -19.19648 -19.19418 -19.18628 -19.18259
 Alpha  occ. eigenvalues --  -14.42313 -14.42013 -14.41787 -14.41602 -14.40198
 Alpha  occ. eigenvalues --  -14.39319 -14.39082 -14.38743 -10.40084 -10.39157
 Alpha  occ. eigenvalues --  -10.36381 -10.35469 -10.34500 -10.34020 -10.32060
 Alpha  occ. eigenvalues --  -10.31812 -10.31621 -10.31458 -10.31269 -10.31189
 Alpha  occ. eigenvalues --  -10.31076 -10.30970 -10.30794 -10.30645 -10.30561
 Alpha  occ. eigenvalues --  -10.30476 -10.29742 -10.29654 -10.29565 -10.29487
 Alpha  occ. eigenvalues --  -10.29387 -10.29282 -10.29262 -10.28981 -10.28650
 Alpha  occ. eigenvalues --  -10.28509 -10.28509 -10.28480 -10.28380 -10.28285
 Alpha  occ. eigenvalues --  -10.28222 -10.28211 -10.28164 -10.28135 -10.28117
 Alpha  occ. eigenvalues --  -10.28056 -10.27812 -10.27652 -10.27620 -10.27567
 Alpha  occ. eigenvalues --  -10.27151 -10.27127 -10.27042 -10.27017 -10.26866
 Alpha  occ. eigenvalues --  -10.26698 -10.26696 -10.26693 -10.26610 -10.26494
 Alpha  occ. eigenvalues --  -10.26439 -10.26432 -10.26398 -10.26345 -10.26310
 Alpha  occ. eigenvalues --  -10.26291 -10.25951 -10.25909 -10.25861 -10.25800
 Alpha  occ. eigenvalues --  -10.25698 -10.25460 -10.25391 -10.25214 -10.25080
 Alpha  occ. eigenvalues --  -10.24633  -3.18219  -3.17252  -1.93069  -1.92729
 Alpha  occ. eigenvalues --   -1.92486  -1.92161  -1.91743  -1.91513  -1.18340
 Alpha  occ. eigenvalues --   -1.16081  -1.11370  -1.10796  -1.10292  -1.09617
 Alpha  occ. eigenvalues --   -1.08737  -1.08676  -1.05022  -1.04913  -1.03781
 Alpha  occ. eigenvalues --   -1.02916  -1.02606  -1.02385  -1.01867  -1.01597
 Alpha  occ. eigenvalues --   -0.93358  -0.92245  -0.89218  -0.88725  -0.88621
 Alpha  occ. eigenvalues --   -0.88372  -0.88186  -0.88028  -0.87103  -0.86875
 Alpha  occ. eigenvalues --   -0.86430  -0.86241  -0.85815  -0.85539  -0.84448
 Alpha  occ. eigenvalues --   -0.84093  -0.83734  -0.83371  -0.82701  -0.82624
 Alpha  occ. eigenvalues --   -0.82234  -0.81417  -0.81151  -0.80790  -0.80256
 Alpha  occ. eigenvalues --   -0.80029  -0.77915  -0.77838  -0.77347  -0.77333
 Alpha  occ. eigenvalues --   -0.77012  -0.76766  -0.76314  -0.76126  -0.75121
 Alpha  occ. eigenvalues --   -0.74937  -0.72682  -0.72664  -0.71714  -0.71347
 Alpha  occ. eigenvalues --   -0.69533  -0.69244  -0.68899  -0.68439  -0.68048
 Alpha  occ. eigenvalues --   -0.67456  -0.66509  -0.66106  -0.65922  -0.65273
 Alpha  occ. eigenvalues --   -0.64973  -0.64817  -0.64654  -0.64506  -0.64345
 Alpha  occ. eigenvalues --   -0.64097  -0.62824  -0.62814  -0.59857  -0.59662
 Alpha  occ. eigenvalues --   -0.59653  -0.59481  -0.59211  -0.58996  -0.58568
 Alpha  occ. eigenvalues --   -0.58467  -0.58107  -0.58010  -0.57468  -0.57315
 Alpha  occ. eigenvalues --   -0.56871  -0.56333  -0.56010  -0.55335  -0.54969
 Alpha  occ. eigenvalues --   -0.54965  -0.54835  -0.54798  -0.54681  -0.54009
 Alpha  occ. eigenvalues --   -0.53598  -0.53262  -0.53247  -0.52943  -0.52724
 Alpha  occ. eigenvalues --   -0.52600  -0.52526  -0.52450  -0.52094  -0.52030
 Alpha  occ. eigenvalues --   -0.51738  -0.51704  -0.51644  -0.51348  -0.51242
 Alpha  occ. eigenvalues --   -0.51049  -0.51043  -0.50801  -0.50205  -0.50136
 Alpha  occ. eigenvalues --   -0.50088  -0.49706  -0.49686  -0.49617  -0.49408
 Alpha  occ. eigenvalues --   -0.49219  -0.49204  -0.49151  -0.48850  -0.48764
 Alpha  occ. eigenvalues --   -0.48674  -0.48452  -0.48374  -0.48120  -0.48016
 Alpha  occ. eigenvalues --   -0.47968  -0.47894  -0.47308  -0.47307  -0.47029
 Alpha  occ. eigenvalues --   -0.46953  -0.46900  -0.46424  -0.46410  -0.46172
 Alpha  occ. eigenvalues --   -0.46021  -0.45925  -0.45906  -0.45870  -0.45679
 Alpha  occ. eigenvalues --   -0.45660  -0.45595  -0.45360  -0.45239  -0.45008
 Alpha  occ. eigenvalues --   -0.44960  -0.44827  -0.44767  -0.44513  -0.44456
 Alpha  occ. eigenvalues --   -0.44077  -0.43968  -0.43757  -0.43534  -0.43384
 Alpha  occ. eigenvalues --   -0.43335  -0.43260  -0.43112  -0.43067  -0.42950
 Alpha  occ. eigenvalues --   -0.42717  -0.42713  -0.42684  -0.42497  -0.42197
 Alpha  occ. eigenvalues --   -0.42169  -0.41758  -0.41654  -0.41430  -0.41207
 Alpha  occ. eigenvalues --   -0.41077  -0.41006  -0.40977  -0.40727  -0.40464
 Alpha  occ. eigenvalues --   -0.40282  -0.39806  -0.39622  -0.39296  -0.38655
 Alpha  occ. eigenvalues --   -0.38396  -0.38186  -0.37729  -0.37159  -0.37109
 Alpha  occ. eigenvalues --   -0.37069  -0.36721  -0.36695  -0.36397  -0.36231
 Alpha  occ. eigenvalues --   -0.36219  -0.35608  -0.34789  -0.34401  -0.34264
 Alpha  occ. eigenvalues --   -0.34063  -0.33282  -0.33155  -0.31586  -0.31409
 Alpha  occ. eigenvalues --   -0.31254  -0.30781  -0.30382  -0.30220  -0.29970
 Alpha  occ. eigenvalues --   -0.29924  -0.29175  -0.28953  -0.24318  -0.23793
 Alpha  occ. eigenvalues --   -0.21171  -0.21074
 Alpha virt. eigenvalues --   -0.08785  -0.08486  -0.01650  -0.01519   0.00193
 Alpha virt. eigenvalues --    0.00389   0.01330   0.02161   0.02816   0.02875
 Alpha virt. eigenvalues --    0.04569   0.04668   0.05066   0.05605   0.05831

 Mulliken charges:
               1
     1  Mg   0.807099
     2  C    0.010158
     3  C   -0.042618
     4  C   -0.040190
     5  C   -0.078426
     6  N   -0.216989
     7  C   -0.014062
     8  C   -0.051644
     9  C   -0.035700
    10  C   -0.041062
    11  C    0.091910
    12  C    0.029464
    13  C   -0.055144
    14  H    0.020727
    15  N   -0.403169
    16  C    0.176118
    17  C   -0.142585
    18  C   -0.065088
    19  C    0.100911
    20  C    0.112271
    21  C    0.006146
    22  O   -0.163604
    23  C    0.038893
    24  N   -0.314188
    25  C    0.051126
    26  C   -0.056850
    27  C   -0.004282
    28  C    0.059388
    29  C    0.060125
    30  C    0.013062
    31  C    0.020702
    32  N   -0.344754
    33  C    0.108679
    34  C   -0.166509
    35  C    0.012390
    36  C    0.108728
    37  C    0.113984
    38  C    0.067803
    39  O   -0.178338
    40  C   -0.028062
    41  C    0.157606
    42  O   -0.218720
    43  O   -0.295412
    44  C    0.187434
    45  H   -0.031086
    46  H   -0.001830
    47  H   -0.034053
    48  H    0.016158
    49  H   -0.005337
    50  H    0.024655
    51  H    0.019628
    52  H    0.008000
    53  H    0.014574
    54  H    0.002812
    55  H    0.029686
    56  H    0.038925
    57  H    0.016323
    58  H    0.018570
    59  H    0.011112
    60  H    0.037287
    61  H    0.030748
    62  H    0.013032
    63  H    0.024812
    64  H    0.004419
    65  H   -0.001481
    66  H    0.023657
    67  H    0.037596
    68  H   -0.001789
    69  H    0.004086
    70  H    0.009619
    71  H    0.020963
    72  H    0.019957
    73  H    0.016244
    74  H    0.039026
    75  H    0.036328
    76  H    0.044866
    77  H    0.067415
    78  H    0.009513
    79  H    0.038235
    80  Mg   0.828010
    81  C   -0.072408
    82  C   -0.057822
    83  C   -0.081616
    84  C   -0.081443
    85  N   -0.265406
    86  C   -0.081288
    87  C   -0.050693
    88  C   -0.081851
    89  C    0.007711
    90  C    0.060796
    91  C    0.092500
    92  C   -0.035269
    93  H    0.002949
    94  N   -0.385506
    95  C    0.158094
    96  C   -0.142467
    97  C   -0.067429
    98  C    0.178866
    99  C    0.144046
   100  C    0.031868
   101  O   -0.206485
   102  C    0.035036
   103  N   -0.335720
   104  C    0.049462
   105  C   -0.075296
   106  C    0.031372
   107  C    0.005898
   108  C    0.071058
   109  C    0.013961
   110  C   -0.000427
   111  N   -0.323365
   112  C    0.132920
   113  C   -0.155249
   114  C   -0.032978
   115  C    0.194942
   116  C    0.109647
   117  C    0.027410
   118  O   -0.143995
   119  C   -0.010155
   120  C    0.212579
   121  O   -0.191227
   122  O   -0.358184
   123  C    0.169352
   124  H   -0.013823
   125  H   -0.041834
   126  H   -0.032963
   127  H    0.008079
   128  H    0.010261
   129  H    0.021962
   130  H    0.030847
   131  H    0.021827
   132  H    0.012236
   133  H    0.014203
   134  H    0.040374
   135  H    0.028156
   136  H   -0.012254
   137  H    0.032704
   138  H    0.042224
   139  H    0.049852
   140  H    0.031279
   141  H    0.045626
   142  H    0.029952
   143  H    0.018152
   144  H    0.017703
   145  H    0.025636
   146  H    0.023969
   147  H    0.007633
   148  H   -0.005480
   149  H    0.018755
   150  H    0.012240
   151  H    0.011895
   152  H    0.026181
   153  H    0.020811
   154  H    0.022575
   155  H    0.044406
   156  H    0.028353
   157  H    0.035831
   158  H    0.050435
 Sum of Mulliken charges =  -0.00000

 Dipole moment (field-independent basis, Debye):
    X=             -0.1184    Y=              2.2567    Z=             -2.6937  Tot=              3.5161
 Quadrupole moment (field-independent basis, Debye-Ang):
   XX=           -294.6343   YY=           -567.9862   ZZ=           -477.4787
   XY=             92.6070   XZ=             35.4228   YZ=            -18.1976

 Normal termination of Gaussian 16 at Thu Sep 16 13:58:44 2021.
