 Gaussian 16, Revision A.03,
 Gaussian 16:  ES64L-G16RevA.03 25-Dec-2016

 -----------------------------------
 #p cam-b3lyp/Def2SVP td=(nstates=5)
 -----------------------------------

 --------------------------------
 TDDFT excited states in gaussian
 --------------------------------
 Symbolic Z-matrix:
 Charge =  0 Multiplicity = 1

                         Standard orientation:
 ---------------------------------------------------------------------
 Center     Atomic      Atomic             Coordinates (Angstroms)
 Number     Number       Type             X           Y           Z
 ---------------------------------------------------------------------
      1         12           0      -26.598220   -0.434508    0.412245
      2          6           0      -25.026134    2.027875   -1.361774
      3          6           0      -26.792974   -2.369843   -2.293094
      4          6           0      -28.283332   -2.558289    2.221249
      5          6           0      -26.867038    1.944767    3.052195
      6          7           0      -26.123809   -0.131022   -1.683681
      7          6           0      -25.259080    0.832129   -2.089390
      8          6           0      -24.623841    0.495399   -3.410661
      9          6           0      -25.441164   -0.797606   -3.811802
     10          6           0      -26.241493   -1.095123   -2.562348
     11          6           0      -26.281710   -0.655816   -5.103443
     12          6           0      -22.982048    0.356365   -3.359929
     13          6           0      -22.151527    1.064724   -4.440997
     14          1           0      -22.865495    1.366070   -5.796112
     15          7           0      -27.242081   -2.214369    0.082581
     16          6           0      -27.267573   -2.903852   -1.087745
     17          6           0      -27.972766   -4.158890   -0.993874
     18          6           0      -28.225090   -4.316291    0.335449
     19          6           0      -28.023716   -2.950116    0.910647
     20          6           0      -28.250070   -4.897207   -2.290624
     21          6           0      -28.816420   -5.536342    1.069224
     22          8           0      -29.063011   -5.561287    2.252563
     23          6           0      -29.102331   -6.704562    0.172511
     24          7           0      -27.594290   -0.218925    2.314043
     25          6           0      -28.109486   -1.336440    2.857454
     26          6           0      -28.551483   -1.088045    4.303029
     27          6           0      -27.813523    0.244156    4.669671
     28          6           0      -27.412053    0.721002    3.258752
     29          6           0      -30.106731   -1.048754    4.621442
     30          6           0      -26.523768    0.106659    5.563400
     31          6           0      -25.329491   -0.713467    5.151896
     32          7           0      -26.015690    1.555653    0.893082
     33          6           0      -26.257495    2.438841    1.950274
     34          6           0      -25.656398    3.755675    1.703282
     35          6           0      -25.146208    3.637343    0.401767
     36          6           0      -25.401438    2.289498   -0.003665
     37          6           0      -25.554961    4.929086    2.643677
     38          6           0      -24.491656    4.296167   -0.633968
     39          8           0      -24.101850    5.444324   -0.778482
     40          6           0      -24.172803    3.236398   -1.720145
     41          6           0      -24.583158    3.923159   -2.966365
     42          8           0      -25.741312    4.027839   -3.377394
     43          8           0      -23.520821    4.537774   -3.563354
     44          6           0      -23.759105    5.511759   -4.633253
     45          1           0      -26.666028   -3.047911   -3.139860
     46          1           0      -28.798050   -3.237053    2.903394
     47          1           0      -26.984583    2.551457    3.953346
     48          1           0      -24.890249    1.236040   -4.164781
     49          1           0      -24.748496   -1.632523   -3.915504
     50          1           0      -27.328414   -0.523795   -4.829706
     51          1           0      -26.192716   -1.579160   -5.675843
     52          1           0      -25.898634    0.220322   -5.626780
     53          1           0      -22.796044   -0.716475   -3.411571
     54          1           0      -22.593761    0.762866   -2.426606
     55          1           0      -21.325257    0.428658   -4.757373
     56          1           0      -21.682318    1.954461   -4.021273
     57          1           0      -28.870181   -4.358567   -3.007336
     58          1           0      -28.880367   -5.786271   -2.296566
     59          1           0      -27.235586   -5.133534   -2.611735
     60          1           0      -28.203896   -7.005316   -0.365917
     61          1           0      -29.940328   -6.331671   -0.416033
     62          1           0      -29.387999   -7.654834    0.622181
     63          1           0      -28.159375   -1.972952    4.805586
     64          1           0      -28.546062    0.953250    5.055892
     65          1           0      -30.668710   -1.227528    3.705068
     66          1           0      -30.416879   -0.044222    4.906778
     67          1           0      -30.458983   -1.714885    5.410501
     68          1           0      -26.979386   -0.283993    6.473652
     69          1           0      -26.074911    1.073365    5.789434
     70          1           0      -25.575128   -1.293040    4.261073
     71          1           0      -25.073417   -1.432386    5.930003
     72          1           0      -24.437516   -0.160031    4.858993
     73          1           0      -26.221821    5.743839    2.365086
     74          1           0      -24.526232    5.288486    2.674271
     75          1           0      -25.936797    4.523137    3.580766
     76          1           0      -23.129550    2.921739   -1.687750
     77          1           0      -22.948982    6.237044   -4.717866
     78          1           0      -24.762858    5.931395   -4.586898
     79          1           0      -23.825663    5.045231   -5.615947
     80         12           0       26.592874    0.506921   -0.149347
     81          6           0       25.429178   -2.748057    0.007057
     82          6           0       23.419702    1.650297    0.617091
     83          6           0       27.935769    3.549789    0.427217
     84          6           0       29.806253   -0.880716   -0.580984
     85          7           0       24.701131   -0.469975    0.547261
     86          6           0       24.466150   -1.766641    0.327576
     87          6           0       23.016087   -2.130004    0.773639
     88          6           0       22.306747   -0.696284    0.697965
     89          6           0       23.547346    0.263032    0.535869
     90          6           0       21.209769   -0.623021   -0.391430
     91          6           0       23.014184   -2.641277    2.196316
     92          6           0       22.089716   -3.817621    2.468681
     93          1           0       21.281969   -3.974830    3.811796
     94          7           0       25.702026    2.398730    0.282164
     95          6           0       24.433374    2.671096    0.633020
     96          6           0       24.334477    4.081384    0.826592
     97          6           0       25.604551    4.694474    0.603169
     98          6           0       26.503267    3.554277    0.384755
     99          6           0       23.023491    4.750847    1.014872
    100          6           0       25.880513    6.141864    0.806457
    101          8           0       24.971698    6.906120    1.085544
    102          6           0       27.274433    6.724846    0.607208
    103          7           0       28.677519    1.255328   -0.174712
    104          6           0       28.903118    2.552485    0.175640
    105          6           0       30.361277    2.793509    0.395379
    106          6           0       30.953314    1.341121    0.070688
    107          6           0       29.779808    0.480908   -0.327683
    108          6           0       30.954851    3.954870   -0.423774
    109          6           0       31.839827    0.677339    1.215427
    110          6           0       33.250745    0.128424    0.898218
    111          7           0       27.459526   -1.366552   -0.289888
    112          6           0       28.736894   -1.763392   -0.532989
    113          6           0       28.756958   -3.104387   -0.918818
    114          6           0       27.463888   -3.581939   -0.756539
    115          6           0       26.732314   -2.512570   -0.304179
    116          6           0       30.042976   -3.893432   -1.302684
    117          6           0       26.623358   -4.680066   -0.870937
    118          8           0       26.926799   -5.840649   -1.124163
    119          6           0       25.173506   -4.257018   -0.329588
    120          6           0       24.189954   -4.308813   -1.350300
    121          8           0       23.960285   -3.544169   -2.290337
    122          8           0       23.438908   -5.453190   -1.100120
    123          6           0       22.331319   -5.820284   -1.965764
    124          1           0       22.397814    2.024978    0.702843
    125          1           0       28.509838    4.466248    0.581897
    126          1           0       30.830192   -1.190485   -0.800670
    127          1           0       22.638180   -2.890296    0.090650
    128          1           0       21.896899   -0.353010    1.647300
    129          1           0       21.178569   -1.529286   -0.995934
    130          1           0       21.388810    0.242578   -1.030022
    131          1           0       20.260637   -0.442067    0.112530
    132          1           0       22.832555   -1.919213    2.992651
    133          1           0       24.060183   -2.868907    2.401595
    134          1           0       22.672838   -4.717616    2.274284
    135          1           0       21.381161   -3.720013    1.646187
    136          1           0       22.792961    5.108725    0.011611
    137          1           0       23.088553    5.562420    1.739844
    138          1           0       22.242656    4.075657    1.365062
    139          1           0       27.822179    6.493825    1.520956
    140          1           0       27.145065    7.806570    0.632516
    141          1           0       27.736420    6.323803   -0.294827
    142          1           0       30.355348    3.014039    1.462332
    143          1           0       31.684457    1.378046   -0.736901
    144          1           0       31.116780    4.766538    0.286273
    145          1           0       30.314650    4.262417   -1.251256
    146          1           0       31.934647    3.664766   -0.802390
    147          1           0       31.286563   -0.166616    1.627170
    148          1           0       32.064381    1.366094    2.030152
    149          1           0       32.988186   -0.895918    0.634172
    150          1           0       33.862347    0.111933    1.799381
    151          1           0       33.776032    0.452328   -0.000161
    152          1           0       30.607947   -4.093360   -0.393120
    153          1           0       30.758256   -3.367378   -1.935233
    154          1           0       29.790415   -4.846536   -1.768168
    155          1           0       24.975736   -4.908424    0.521820
    156          1           0       22.269426   -6.908058   -1.957271
    157          1           0       22.357503   -5.383781   -2.964556
    158          1           0       21.412471   -5.503893   -1.471886
 ---------------------------------------------------------------------

 SCF Done:  E(RCAM-B3LYP) =  -4069.78134057     A.U. after   19 cycles

 Excitation energies and oscillator strengths:

 Excited State   1:      Singlet-A      1.6990 eV  729.74 nm  f=0.3994  <S**2>=0.000
     309 -> 315       -0.18502
     311 -> 313        0.68487
     309 <- 315       -0.10995
 This state for optimization and/or second-order correction.
 Total Energy, E(TD-HF/TD-DFT) =  -4069.71890290
 Copying the excited state density for this state as the 1-particle RhoCI density.

 Excited State   2:      Singlet-A      1.7683 eV  701.13 nm  f=0.3776  <S**2>=0.000
     310 -> 316        0.19166
     312 -> 314        0.68182
     310 <- 316        0.10600

 Excited State   3:      Singlet-A      2.2279 eV  556.51 nm  f=0.1005  <S**2>=0.000
     309 -> 313        0.63665
     311 -> 315        0.29395

 Excited State   4:      Singlet-A      2.2757 eV  544.83 nm  f=0.0579  <S**2>=0.000
     310 -> 314        0.61594
     312 -> 316       -0.33784

 Excited State   5:      Singlet-A      2.9280 eV  423.45 nm  f=0.0000  <S**2>=0.000
     312 -> 313        0.70711

 The electronic state is 1-A.
 Alpha  occ. eigenvalues --  -46.89707 -46.87960 -19.24660 -19.23913 -19.20212
 Alpha  occ. eigenvalues --  -19.19939 -19.19264 -19.18371 -19.18340 -19.17653
 Alpha  occ. eigenvalues --  -14.42369 -14.42037 -14.41712 -14.41063 -14.40004
 Alpha  occ. eigenvalues --  -14.39824 -14.39218 -14.38752 -10.39642 -10.38256
 Alpha  occ. eigenvalues --  -10.35968 -10.35249 -10.34638 -10.33548 -10.31604
 Alpha  occ. eigenvalues --  -10.31563 -10.31413 -10.31326 -10.31160 -10.30922
 Alpha  occ. eigenvalues --  -10.30831 -10.30657 -10.30587 -10.30454 -10.30246
 Alpha  occ. eigenvalues --  -10.30138 -10.29793 -10.29456 -10.29033 -10.28969
 Alpha  occ. eigenvalues --  -10.28930 -10.28852 -10.28738 -10.28720 -10.28519
 Alpha  occ. eigenvalues --  -10.28355 -10.28347 -10.28332 -10.28196 -10.28194
 Alpha  occ. eigenvalues --  -10.28066 -10.27855 -10.27830 -10.27829 -10.27815
 Alpha  occ. eigenvalues --  -10.27814 -10.27778 -10.27765 -10.27750 -10.27596
 Alpha  occ. eigenvalues --  -10.27562 -10.27492 -10.27390 -10.27329 -10.27242
 Alpha  occ. eigenvalues --  -10.27057 -10.26873 -10.26813 -10.26622 -10.26548
 Alpha  occ. eigenvalues --  -10.26526 -10.26498 -10.26266 -10.26086 -10.26046
 Alpha  occ. eigenvalues --  -10.26043 -10.26040 -10.25915 -10.25902 -10.25871
 Alpha  occ. eigenvalues --  -10.25567 -10.25219 -10.25058 -10.24924 -10.24868
 Alpha  occ. eigenvalues --  -10.24063  -3.18029  -3.16815  -1.92943  -1.92479
 Alpha  occ. eigenvalues --   -1.92323  -1.91680  -1.91284  -1.91148  -1.15768
 Alpha  occ. eigenvalues --   -1.14843  -1.11532  -1.10051  -1.10005  -1.09004
 Alpha  occ. eigenvalues --   -1.07544  -1.05922  -1.05591  -1.05530  -1.04701
 Alpha  occ. eigenvalues --   -1.04115  -1.04103  -1.03880  -1.02998  -1.02630
 Alpha  occ. eigenvalues --   -0.93918  -0.92343  -0.89632  -0.89497  -0.89175
 Alpha  occ. eigenvalues --   -0.88424  -0.88423  -0.88027  -0.87962  -0.87915
 Alpha  occ. eigenvalues --   -0.87470  -0.86899  -0.86560  -0.86214  -0.85446
 Alpha  occ. eigenvalues --   -0.84663  -0.84376  -0.83588  -0.83072  -0.82714
 Alpha  occ. eigenvalues --   -0.82605  -0.82277  -0.81503  -0.81066  -0.80819
 Alpha  occ. eigenvalues --   -0.80528  -0.79027  -0.78202  -0.77636  -0.77467
 Alpha  occ. eigenvalues --   -0.76984  -0.76587  -0.76532  -0.75704  -0.75212
 Alpha  occ. eigenvalues --   -0.75200  -0.73535  -0.72644  -0.72413  -0.71689
 Alpha  occ. eigenvalues --   -0.69845  -0.69646  -0.69281  -0.69031  -0.68152
 Alpha  occ. eigenvalues --   -0.68147  -0.67444  -0.67319  -0.66204  -0.65938
 Alpha  occ. eigenvalues --   -0.65509  -0.65417  -0.64977  -0.64884  -0.64748
 Alpha  occ. eigenvalues --   -0.63763  -0.62730  -0.61715  -0.61120  -0.60524
 Alpha  occ. eigenvalues --   -0.59913  -0.59320  -0.59287  -0.59150  -0.59125
 Alpha  occ. eigenvalues --   -0.58208  -0.58019  -0.57930  -0.57804  -0.57553
 Alpha  occ. eigenvalues --   -0.56378  -0.56307  -0.56177  -0.55483  -0.55318
 Alpha  occ. eigenvalues --   -0.55122  -0.54899  -0.54674  -0.54421  -0.54399
 Alpha  occ. eigenvalues --   -0.53638  -0.53565  -0.53423  -0.53208  -0.52677
 Alpha  occ. eigenvalues --   -0.52626  -0.52622  -0.52441  -0.52358  -0.52300
 Alpha  occ. eigenvalues --   -0.52111  -0.52104  -0.51856  -0.51634  -0.51527
 Alpha  occ. eigenvalues --   -0.51339  -0.51261  -0.50613  -0.50465  -0.50402
 Alpha  occ. eigenvalues --   -0.50234  -0.50162  -0.50039  -0.49614  -0.49503
 Alpha  occ. eigenvalues --   -0.49463  -0.49336  -0.49095  -0.49049  -0.49011
 Alpha  occ. eigenvalues --   -0.48780  -0.48576  -0.48410  -0.48317  -0.48066
 Alpha  occ. eigenvalues --   -0.48015  -0.47787  -0.47556  -0.47172  -0.46907
 Alpha  occ. eigenvalues --   -0.46801  -0.46776  -0.46730  -0.46658  -0.46633
 Alpha  occ. eigenvalues --   -0.46515  -0.46150  -0.45987  -0.45843  -0.45711
 Alpha  occ. eigenvalues --   -0.45501  -0.45485  -0.45321  -0.45253  -0.45101
 Alpha  occ. eigenvalues --   -0.44830  -0.44726  -0.44542  -0.44513  -0.44118
 Alpha  occ. eigenvalues --   -0.43928  -0.43913  -0.43835  -0.43634  -0.43468
 Alpha  occ. eigenvalues --   -0.43414  -0.43188  -0.43177  -0.42912  -0.42894
 Alpha  occ. eigenvalues --   -0.42849  -0.42440  -0.42211  -0.42141  -0.42078
 Alpha  occ. eigenvalues --   -0.41947  -0.41859  -0.41847  -0.41576  -0.41465
 Alpha  occ. eigenvalues --   -0.41253  -0.41092  -0.41063  -0.40750  -0.40522
 Alpha  occ. eigenvalues --   -0.40268  -0.39754  -0.39591  -0.39209  -0.38471
 Alpha  occ. eigenvalues --   -0.38314  -0.38236  -0.38198  -0.37991  -0.37398
 Alpha  occ. eigenvalues --   -0.37292  -0.37004  -0.36451  -0.36298  -0.36276
 Alpha  occ. eigenvalues --   -0.35695  -0.35153  -0.34942  -0.34385  -0.34361
 Alpha  occ. eigenvalues --   -0.33640  -0.33280  -0.32942  -0.32498  -0.31849
 Alpha  occ. eigenvalues --   -0.31366  -0.31226  -0.30736  -0.30718  -0.30519
 Alpha  occ. eigenvalues --   -0.30093  -0.29713  -0.29466  -0.24573  -0.23815
 Alpha  occ. eigenvalues --   -0.21567  -0.20610
 Alpha virt. eigenvalues --   -0.09205  -0.07831  -0.02294  -0.01755  -0.00199
 Alpha virt. eigenvalues --    0.00220   0.02274   0.02316   0.02497   0.03020
 Alpha virt. eigenvalues --    0.04030   0.04617   0.05021   0.05485   0.06108

 Mulliken charges:
               1
     1  Mg   0.850523
     2  C    0.012161
     3  C   -0.109461
     4  C   -0.070339
     5  C   -0.108738
     6  N   -0.257949
     7  C   -0.051840
     8  C   -0.000889
     9  C   -0.101382
    10  C    0.045293
    11  C    0.094734
    12  C    0.048937
    13  C   -0.072545
    14  H    0.012999
    15  N   -0.419450
    16  C    0.163746
    17  C   -0.108910
    18  C   -0.091230
    19  C    0.161843
    20  C    0.094041
    21  C    0.026212
    22  O   -0.168449
    23  C    0.036215
    24  N   -0.251358
    25  C    0.003036
    26  C   -0.036982
    27  C    0.001978
    28  C   -0.034615
    29  C    0.070314
    30  C    0.035387
    31  C    0.008531
    32  N   -0.312643
    33  C    0.155292
    34  C   -0.183090
    35  C    0.078815
    36  C    0.062727
    37  C    0.144281
    38  C   -0.022478
    39  O   -0.177541
    40  C    0.001715
    41  C    0.195328
    42  O   -0.239440
    43  O   -0.323701
    44  C    0.190509
    45  H   -0.033060
    46  H   -0.010556
    47  H   -0.035036
    48  H    0.022042
    49  H    0.005874
    50  H    0.023430
    51  H    0.016541
    52  H    0.024995
    53  H    0.008944
    54  H    0.018138
    55  H    0.025942
    56  H    0.040071
    57  H    0.037371
    58  H    0.007424
    59  H    0.045227
    60  H    0.040697
    61  H    0.049178
    62  H    0.021274
    63  H    0.008510
    64  H    0.002539
    65  H    0.016668
    66  H    0.005063
    67  H    0.028205
    68  H    0.006568
    69  H    0.007644
    70  H    0.009860
    71  H    0.017903
    72  H    0.021349
    73  H    0.036312
    74  H    0.041581
    75  H   -0.001561
    76  H    0.044060
    77  H    0.042905
    78  H    0.040280
    79  H    0.012028
    80  Mg   0.803450
    81  C   -0.053521
    82  C   -0.077657
    83  C   -0.031506
    84  C   -0.113883
    85  N   -0.266414
    86  C   -0.028569
    87  C   -0.077972
    88  C   -0.056775
    89  C    0.065570
    90  C    0.083063
    91  C    0.065147
    92  C   -0.060415
    93  H    0.028828
    94  N   -0.375690
    95  C    0.137235
    96  C   -0.161454
    97  C   -0.018972
    98  C    0.178089
    99  C    0.123834
   100  C   -0.042873
   101  O   -0.205011
   102  C    0.068014
   103  N   -0.281957
   104  C   -0.040097
   105  C   -0.032405
   106  C   -0.000420
   107  C    0.029936
   108  C    0.073843
   109  C   -0.008471
   110  C   -0.012548
   111  N   -0.343832
   112  C    0.184288
   113  C   -0.180477
   114  C    0.103180
   115  C    0.131970
   116  C    0.117898
   117  C   -0.022209
   118  O   -0.171208
   119  C   -0.002549
   120  C    0.227954
   121  O   -0.227794
   122  O   -0.357579
   123  C    0.177866
   124  H   -0.025141
   125  H   -0.050638
   126  H   -0.029528
   127  H    0.016095
   128  H    0.020246
   129  H    0.026933
   130  H    0.012907
   131  H    0.013824
   132  H    0.013078
   133  H    0.002787
   134  H    0.032687
   135  H    0.023563
   136  H    0.036665
   137  H    0.042142
   138  H    0.002278
   139  H    0.036918
   140  H    0.025021
   141  H    0.043452
   142  H    0.026543
   143  H   -0.001261
   144  H    0.020703
   145  H    0.031764
   146  H    0.017652
   147  H    0.019557
   148  H    0.006270
   149  H    0.003061
   150  H    0.024542
   151  H    0.019083
   152  H    0.024510
   153  H    0.016653
   154  H    0.037793
   155  H    0.052367
   156  H    0.038608
   157  H    0.051825
   158  H    0.019131
 Sum of Mulliken charges =  -0.00000

 Dipole moment (field-independent basis, Debye):
    X=              2.8044    Y=             -4.5617    Z=             -0.0845  Tot=              5.3555
 Quadrupole moment (field-independent basis, Debye-Ang):
   XX=           -395.2277   YY=           -564.6058   ZZ=           -495.4033
   XY=            181.7158   XZ=             39.5679   YZ=             15.1097

 Normal termination of Gaussian 16 at Tue Sep 14 15:57:09 2021.
