 Gaussian 16, Revision A.03,
 Gaussian 16:  ES64L-G16RevA.03 25-Dec-2016

 -----------------------------------
 #p cam-b3lyp/Def2SVP td=(nstates=5)
 -----------------------------------

 --------------------------------
 TDDFT excited states in gaussian
 --------------------------------
 Symbolic Z-matrix:
 Charge =  0 Multiplicity = 1

                         Standard orientation:
 ---------------------------------------------------------------------
 Center     Atomic      Atomic             Coordinates (Angstroms)
 Number     Number       Type             X           Y           Z
 ---------------------------------------------------------------------
      1         12           0       19.081966   -0.344436   -0.222806
      2          6           0       15.637383   -1.073623   -0.671792
      3          6           0       18.815794    1.848677   -2.922163
      4          6           0       21.787868    1.121985    0.945033
      5          6           0       18.908978   -2.474795    2.749671
      6          7           0       17.280113    0.495167   -1.501167
      7          6           0       16.100523   -0.157315   -1.649317
      8          6           0       15.395432    0.355472   -2.892198
      9          6           0       16.536479    0.759773   -3.825886
     10          6           0       17.617430    1.115731   -2.682278
     11          6           0       17.116822   -0.295219   -4.769568
     12          6           0       14.355528    1.488906   -2.486287
     13          6           0       13.051057    1.323468   -3.161501
     14          1           0       12.359455    2.591752   -3.698262
     15          7           0       20.187415    1.334368   -0.856828
     16          6           0       19.950667    2.054728   -2.053918
     17          6           0       21.006638    3.030206   -2.156579
     18          6           0       21.957218    2.825234   -1.121585
     19          6           0       21.351001    1.751785   -0.256092
     20          6           0       21.021181    4.043636   -3.296615
     21          6           0       23.181250    3.619729   -0.889035
     22          8           0       23.439174    4.542883   -1.651524
     23          6           0       24.134689    3.491310    0.253335
     24          7           0       20.149501   -0.615319    1.724208
     25          6           0       21.341244    0.012282    1.775501
     26          6           0       22.163934   -0.480278    2.979829
     27          6           0       21.317824   -1.770899    3.507628
     28          6           0       20.062843   -1.671764    2.602246
     29          6           0       23.711524   -0.714950    2.674108
     30          6           0       21.017843   -1.798137    5.039084
     31          6           0       19.607758   -1.308084    5.514861
     32          7           0       17.670865   -1.501686    0.811320
     33          6           0       17.782177   -2.348176    1.951024
     34          6           0       16.504108   -3.177103    2.065894
     35          6           0       15.685366   -2.638103    1.086418
     36          6           0       16.442093   -1.653506    0.355617
     37          6           0       16.074268   -4.302279    3.026852
     38          6           0       14.401921   -2.746170    0.468609
     39          8           0       13.481805   -3.539597    0.673436
     40          6           0       14.346465   -1.647973   -0.532456
     41          6           0       13.361810   -0.643617    0.108885
     42          8           0       13.598594    0.159869    1.008504
     43          8           0       12.088486   -0.867909   -0.484426
     44          6           0       10.984833   -0.155346    0.018111
     45          1           0       18.828121    2.479591   -3.813518
     46          1           0       22.768408    1.556147    1.150142
     47          1           0       18.810639   -3.242856    3.518753
     48          1           0       14.865364   -0.423675   -3.439770
     49          1           0       16.415910    1.593130   -4.517091
     50          1           0       16.458476   -1.147612   -4.934726
     51          1           0       18.155259   -0.522984   -4.527756
     52          1           0       17.138206    0.237235   -5.721137
     53          1           0       14.754418    2.453647   -2.799944
     54          1           0       14.265415    1.649851   -1.411955
     55          1           0       12.464975    0.833054   -2.385085
     56          1           0       13.188597    0.651560   -4.008553
     57          1           0       21.761414    3.811194   -4.061956
     58          1           0       21.140438    5.040568   -2.874870
     59          1           0       20.058273    4.051264   -3.807555
     60          1           0       24.658447    2.540337    0.153169
     61          1           0       23.694855    3.550605    1.249644
     62          1           0       24.983360    4.165554    0.144806
     63          1           0       22.028999    0.319381    3.707831
     64          1           0       21.830373   -2.675752    3.182824
     65          1           0       24.039028   -0.115244    1.824988
     66          1           0       24.087583   -1.735551    2.593717
     67          1           0       24.176385   -0.472837    3.631103
     68          1           0       21.764952   -1.256167    5.618341
     69          1           0       21.082809   -2.862690    5.262739
     70          1           0       19.949900   -0.913258    6.471783
     71          1           0       18.834852   -2.057132    5.688414
     72          1           0       19.296250   -0.505466    4.846064
     73          1           0       15.822079   -5.209344    2.478658
     74          1           0       15.118501   -3.864174    3.312801
     75          1           0       16.796478   -4.330835    3.842464
     76          1           0       13.914155   -2.023601   -1.459948
     77          1           0       10.036403   -0.381705   -0.470655
     78          1           0       11.189388    0.904564   -0.127686
     79          1           0       10.932011   -0.428814    1.072308
     80         12           0      -18.719561    0.485245    0.280816
     81          6           0      -15.677633   -1.120808   -0.804120
     82          6           0      -20.347280   -2.545557   -0.398960
     83          6           0      -21.477539    1.889735    1.376653
     84          6           0      -16.965878    3.493113    0.594582
     85          7           0      -18.016981   -1.608861   -0.554649
     86          6           0      -16.747512   -2.069335   -0.708475
     87          6           0      -16.703875   -3.582058   -0.850643
     88          6           0      -18.263025   -4.000639   -1.071936
     89          6           0      -18.924571   -2.647382   -0.681565
     90          6           0      -18.598168   -4.556557   -2.478644
     91          6           0      -16.037544   -4.286189    0.379310
     92          6           0      -14.826873   -5.183066    0.012484
     93          1           0      -15.061940   -6.769960    0.333436
     94          7           0      -20.585404   -0.210884    0.463235
     95          6           0      -21.143545   -1.487101    0.114083
     96          6           0      -22.590511   -1.599041    0.414548
     97          6           0      -22.866245   -0.311671    0.981262
     98          6           0      -21.636510    0.498018    0.958005
     99          6           0      -23.455650   -2.826960    0.123475
    100          6           0      -24.165771    0.234771    1.436087
    101          8           0      -24.317327    1.240119    2.121700
    102          6           0      -25.434951   -0.591184    1.148529
    103          7           0      -19.089813    2.335236    1.042714
    104          6           0      -20.337097    2.706523    1.411441
    105          6           0      -20.462649    4.185324    1.651676
    106          6           0      -19.025818    4.729134    1.457260
    107          6           0      -18.266156    3.444489    1.056413
    108          6           0      -21.539823    4.870823    0.837477
    109          6           0      -18.444587    5.342864    2.863166
    110          6           0      -17.889673    6.867648    2.789862
    111          7           0      -16.787438    1.169529   -0.284724
    112          6           0      -16.215226    2.432650    0.000487
    113          6           0      -14.797687    2.374194   -0.374088
    114          6           0      -14.562216    0.984935   -0.547853
    115          6           0      -15.795616    0.334111   -0.603777
    116          6           0      -13.766930    3.493545   -0.485567
    117          6           0      -13.499981    0.044359   -1.003643
    118          8           0      -12.286835    0.150519   -1.335988
    119          6           0      -14.201898   -1.367691   -1.051791
    120          6           0      -13.942284   -1.981353   -2.395986
    121          8           0      -14.027265   -1.391480   -3.435802
    122          8           0      -13.485799   -3.259973   -2.234131
    123          6           0      -12.889027   -3.811964   -3.476598
    124          1           0      -20.825947   -3.461098   -0.752098
    125          1           0      -22.360172    2.414925    1.748378
    126          1           0      -16.389168    4.411491    0.720941
    127          1           0      -16.169879   -3.780017   -1.780065
    128          1           0      -18.611471   -4.720106   -0.330468
    129          1           0      -19.271159   -3.884341   -3.011721
    130          1           0      -19.048845   -5.546726   -2.399588
    131          1           0      -17.744457   -4.767954   -3.122575
    132          1           0      -16.742707   -4.928520    0.907448
    133          1           0      -15.658099   -3.561569    1.100253
    134          1           0      -13.958099   -5.010380    0.648243
    135          1           0      -14.438805   -5.049762   -0.996847
    136          1           0      -22.936379   -3.770296   -0.048494
    137          1           0      -24.180937   -2.709883   -0.681666
    138          1           0      -24.049082   -2.968481    1.027315
    139          1           0      -25.578084   -0.705235    0.074038
    140          1           0      -26.321545   -0.167837    1.621784
    141          1           0      -25.294181   -1.579521    1.586076
    142          1           0      -20.820714    4.329133    2.671989
    143          1           0      -18.982054    5.447953    0.639569
    144          1           0      -22.409277    5.164520    1.426244
    145          1           0      -21.993868    4.256083    0.060363
    146          1           0      -21.089609    5.734962    0.348498
    147          1           0      -17.632548    4.761084    3.298095
    148          1           0      -19.197579    5.366539    3.650470
    149          1           0      -18.361213    7.305153    1.909675
    150          1           0      -16.802029    6.900921    2.714228
    151          1           0      -18.277165    7.471155    3.610259
    152          1           0      -12.761235    3.153046   -0.239883
    153          1           0      -13.983351    4.212225    0.305709
    154          1           0      -13.973188    3.929118   -1.463340
    155          1           0      -13.660492   -1.987080   -0.337163
    156          1           0      -13.631942   -3.707021   -4.267040
    157          1           0      -12.807494   -4.877870   -3.264331
    158          1           0      -11.972008   -3.371957   -3.868384
 ---------------------------------------------------------------------

 SCF Done:  E(RCAM-B3LYP) =  -4069.75513718     A.U. after   19 cycles

 Excitation energies and oscillator strengths:

 Excited State   1:      Singlet-A      1.6721 eV  741.49 nm  f=0.4014  <S**2>=0.000
     310 -> 316        0.18782
     311 -> 313        0.68363
     310 <- 316        0.11172
 This state for optimization and/or second-order correction.
 Total Energy, E(TD-HF/TD-DFT) =  -4069.69368885
 Copying the excited state density for this state as the 1-particle RhoCI density.

 Excited State   2:      Singlet-A      1.6843 eV  736.11 nm  f=0.3283  <S**2>=0.000
     309 -> 315       -0.19707
     312 -> 314        0.67956
     309 <- 315       -0.11201

 Excited State   3:      Singlet-A      2.1740 eV  570.29 nm  f=0.1347  <S**2>=0.000
     310 -> 313        0.64730
     311 -> 316       -0.27757

 Excited State   4:      Singlet-A      2.1915 eV  565.76 nm  f=0.0561  <S**2>=0.000
     309 -> 314        0.61451
     312 -> 315        0.33939

 Excited State   5:      Singlet-A      3.0288 eV  409.34 nm  f=0.0000  <S**2>=0.000
     312 -> 313        0.70709

 The electronic state is 1-A.
 Alpha  occ. eigenvalues --  -46.91275 -46.88514 -19.25628 -19.24670 -19.21366
 Alpha  occ. eigenvalues --  -19.19727 -19.18938 -19.18883 -19.18667 -19.17550
 Alpha  occ. eigenvalues --  -14.42590 -14.42382 -14.41919 -14.41915 -14.40699
 Alpha  occ. eigenvalues --  -14.40217 -14.39735 -14.39233 -10.40557 -10.38801
 Alpha  occ. eigenvalues --  -10.35123 -10.35108 -10.34532 -10.34103 -10.31906
 Alpha  occ. eigenvalues --  -10.31811 -10.31805 -10.31561 -10.31471 -10.31403
 Alpha  occ. eigenvalues --  -10.31375 -10.31279 -10.31272 -10.31006 -10.30949
 Alpha  occ. eigenvalues --  -10.30850 -10.30805 -10.30783 -10.30651 -10.30054
 Alpha  occ. eigenvalues --  -10.29962 -10.29440 -10.29365 -10.29082 -10.29023
 Alpha  occ. eigenvalues --  -10.28977 -10.28887 -10.28758 -10.28611 -10.28516
 Alpha  occ. eigenvalues --  -10.28499 -10.28434 -10.28383 -10.28341 -10.28223
 Alpha  occ. eigenvalues --  -10.28161 -10.28121 -10.28066 -10.27944 -10.27876
 Alpha  occ. eigenvalues --  -10.27812 -10.27639 -10.27582 -10.27529 -10.27327
 Alpha  occ. eigenvalues --  -10.27310 -10.27222 -10.27137 -10.27128 -10.27085
 Alpha  occ. eigenvalues --  -10.27069 -10.26761 -10.26740 -10.26579 -10.26333
 Alpha  occ. eigenvalues --  -10.26199 -10.26108 -10.26092 -10.26041 -10.25897
 Alpha  occ. eigenvalues --  -10.25749 -10.25646 -10.25475 -10.25247 -10.25171
 Alpha  occ. eigenvalues --  -10.24950  -3.19475  -3.17157  -1.94316  -1.93982
 Alpha  occ. eigenvalues --   -1.93730  -1.92054  -1.91612  -1.91478  -1.16944
 Alpha  occ. eigenvalues --   -1.15781  -1.09953  -1.09570  -1.09334  -1.08667
 Alpha  occ. eigenvalues --   -1.08613  -1.07046  -1.04175  -1.03982  -1.03423
 Alpha  occ. eigenvalues --   -1.03250  -1.02810  -1.02566  -1.01999  -1.01250
 Alpha  occ. eigenvalues --   -0.94349  -0.91558  -0.89138  -0.88697  -0.88625
 Alpha  occ. eigenvalues --   -0.88480  -0.88110  -0.87776  -0.87396  -0.87240
 Alpha  occ. eigenvalues --   -0.86978  -0.86822  -0.85618  -0.85544  -0.84750
 Alpha  occ. eigenvalues --   -0.84005  -0.83635  -0.83153  -0.82675  -0.81799
 Alpha  occ. eigenvalues --   -0.81614  -0.81378  -0.80827  -0.80658  -0.80244
 Alpha  occ. eigenvalues --   -0.79743  -0.79079  -0.78010  -0.77243  -0.77081
 Alpha  occ. eigenvalues --   -0.76849  -0.76768  -0.76018  -0.75970  -0.75210
 Alpha  occ. eigenvalues --   -0.75180  -0.72720  -0.72539  -0.71812  -0.71402
 Alpha  occ. eigenvalues --   -0.69893  -0.69159  -0.68730  -0.68685  -0.67576
 Alpha  occ. eigenvalues --   -0.67284  -0.67073  -0.66838  -0.65903  -0.65617
 Alpha  occ. eigenvalues --   -0.65311  -0.64944  -0.64683  -0.64514  -0.64369
 Alpha  occ. eigenvalues --   -0.63979  -0.62349  -0.62177  -0.60785  -0.59901
 Alpha  occ. eigenvalues --   -0.59739  -0.59246  -0.59242  -0.58865  -0.58720
 Alpha  occ. eigenvalues --   -0.58330  -0.58234  -0.57940  -0.57121  -0.57009
 Alpha  occ. eigenvalues --   -0.56166  -0.56121  -0.55932  -0.55610  -0.55259
 Alpha  occ. eigenvalues --   -0.55045  -0.54918  -0.54524  -0.54480  -0.53761
 Alpha  occ. eigenvalues --   -0.53645  -0.53377  -0.53366  -0.53003  -0.52652
 Alpha  occ. eigenvalues --   -0.52609  -0.52546  -0.52148  -0.52139  -0.51937
 Alpha  occ. eigenvalues --   -0.51639  -0.51637  -0.51433  -0.51361  -0.51358
 Alpha  occ. eigenvalues --   -0.51272  -0.50830  -0.50524  -0.50444  -0.50158
 Alpha  occ. eigenvalues --   -0.50046  -0.49951  -0.49936  -0.49785  -0.49412
 Alpha  occ. eigenvalues --   -0.49370  -0.49201  -0.49194  -0.48921  -0.48769
 Alpha  occ. eigenvalues --   -0.48450  -0.48240  -0.48227  -0.48097  -0.47989
 Alpha  occ. eigenvalues --   -0.47727  -0.47548  -0.47450  -0.47440  -0.47139
 Alpha  occ. eigenvalues --   -0.47030  -0.46824  -0.46820  -0.46550  -0.46184
 Alpha  occ. eigenvalues --   -0.46066  -0.45928  -0.45918  -0.45866  -0.45841
 Alpha  occ. eigenvalues --   -0.45556  -0.45405  -0.45271  -0.45111  -0.44969
 Alpha  occ. eigenvalues --   -0.44796  -0.44757  -0.44540  -0.44421  -0.44358
 Alpha  occ. eigenvalues --   -0.44106  -0.44082  -0.43865  -0.43770  -0.43760
 Alpha  occ. eigenvalues --   -0.43448  -0.43301  -0.43279  -0.42973  -0.42844
 Alpha  occ. eigenvalues --   -0.42590  -0.42301  -0.42199  -0.42019  -0.42013
 Alpha  occ. eigenvalues --   -0.41568  -0.41526  -0.41293  -0.41273  -0.40969
 Alpha  occ. eigenvalues --   -0.40943  -0.40776  -0.40678  -0.40417  -0.40402
 Alpha  occ. eigenvalues --   -0.40162  -0.40054  -0.39361  -0.39147  -0.38581
 Alpha  occ. eigenvalues --   -0.38523  -0.38242  -0.38216  -0.37891  -0.37605
 Alpha  occ. eigenvalues --   -0.37472  -0.37322  -0.36480  -0.36362  -0.36291
 Alpha  occ. eigenvalues --   -0.35736  -0.35484  -0.35178  -0.34621  -0.34403
 Alpha  occ. eigenvalues --   -0.34188  -0.33318  -0.33002  -0.31617  -0.31433
 Alpha  occ. eigenvalues --   -0.30977  -0.30780  -0.30578  -0.30538  -0.30255
 Alpha  occ. eigenvalues --   -0.30190  -0.29451  -0.29366  -0.24021  -0.23889
 Alpha  occ. eigenvalues --   -0.21288  -0.21010
 Alpha virt. eigenvalues --   -0.08963  -0.08502  -0.02587  -0.01818  -0.00577
 Alpha virt. eigenvalues --    0.00148   0.00164   0.02073   0.02197   0.03574
 Alpha virt. eigenvalues --    0.04247   0.04744   0.05199   0.05232   0.05716

 Mulliken charges:
               1
     1  Mg   0.808428
     2  C    0.026525
     3  C   -0.060734
     4  C   -0.021897
     5  C   -0.054836
     6  N   -0.238508
     7  C   -0.066663
     8  C   -0.007333
     9  C   -0.085864
    10  C    0.025285
    11  C    0.085419
    12  C    0.072660
    13  C   -0.063612
    14  H    0.018322
    15  N   -0.411425
    16  C    0.127328
    17  C   -0.147931
    18  C    0.024140
    19  C    0.084052
    20  C    0.141736
    21  C   -0.053942
    22  O   -0.216928
    23  C    0.078862
    24  N   -0.260268
    25  C    0.038651
    26  C   -0.046152
    27  C    0.025427
    28  C   -0.014265
    29  C    0.052481
    30  C    0.002707
    31  C    0.007470
    32  N   -0.333212
    33  C    0.096760
    34  C   -0.206563
    35  C    0.019546
    36  C    0.125909
    37  C    0.134618
    38  C    0.005935
    39  O   -0.180070
    40  C    0.016408
    41  C    0.215313
    42  O   -0.202559
    43  O   -0.345865
    44  C    0.186782
    45  H   -0.020645
    46  H   -0.066491
    47  H   -0.026154
    48  H   -0.009611
    49  H    0.002580
    50  H    0.020050
    51  H    0.025843
    52  H    0.005827
    53  H    0.007746
    54  H    0.031977
    55  H    0.025002
    56  H    0.024294
    57  H    0.034503
    58  H    0.037875
    59  H   -0.012175
    60  H    0.019199
    61  H    0.050490
    62  H    0.019616
    63  H    0.023807
    64  H    0.010298
    65  H    0.032462
    66  H    0.011735
    67  H    0.010002
    68  H    0.015593
    69  H    0.005335
    70  H    0.012237
    71  H    0.025473
    72  H    0.040104
    73  H    0.049504
    74  H    0.045780
    75  H    0.016995
    76  H    0.029943
    77  H    0.038878
    78  H    0.024839
    79  H    0.034949
    80  Mg   0.847843
    81  C   -0.001748
    82  C   -0.070327
    83  C   -0.074608
    84  C   -0.071501
    85  N   -0.234925
    86  C   -0.059615
    87  C   -0.007883
    88  C   -0.060902
    89  C   -0.011760
    90  C    0.063508
    91  C    0.083079
    92  C   -0.087406
    93  H   -0.024414
    94  N   -0.426824
    95  C    0.167387
    96  C   -0.118209
    97  C   -0.023626
    98  C    0.155967
    99  C    0.116656
   100  C   -0.017489
   101  O   -0.205558
   102  C    0.043898
   103  N   -0.341312
   104  C    0.066786
   105  C   -0.028593
   106  C   -0.019881
   107  C    0.079940
   108  C    0.060071
   109  C    0.009266
   110  C   -0.025244
   111  N   -0.337595
   112  C    0.099380
   113  C   -0.169947
   114  C   -0.076846
   115  C    0.107726
   116  C    0.138080
   117  C    0.126519
   118  O   -0.213816
   119  C   -0.017338
   120  C    0.167627
   121  O   -0.184933
   122  O   -0.341771
   123  C    0.175210
   124  H   -0.029260
   125  H   -0.005861
   126  H   -0.030402
   127  H    0.018812
   128  H    0.016863
   129  H    0.026947
   130  H    0.012687
   131  H    0.019570
   132  H    0.025438
   133  H    0.021790
   134  H    0.031729
   135  H    0.040535
   136  H    0.023770
   137  H    0.039947
   138  H    0.023445
   139  H    0.031130
   140  H    0.026903
   141  H    0.018570
   142  H    0.019942
   143  H    0.024845
   144  H    0.017929
   145  H    0.020709
   146  H    0.007135
   147  H    0.019143
   148  H    0.011311
   149  H    0.007526
   150  H    0.031128
   151  H    0.018742
   152  H    0.040522
   153  H    0.005590
   154  H    0.045661
   155  H    0.036843
   156  H    0.033010
   157  H    0.034372
   158  H    0.058104
 Sum of Mulliken charges =  -0.00000

 Dipole moment (field-independent basis, Debye):
    X=             -1.6005    Y=             -5.6819    Z=              0.7412  Tot=              5.9494
 Quadrupole moment (field-independent basis, Debye-Ang):
   XX=           -317.5129   YY=           -499.9055   ZZ=           -498.0929
   XY=            -35.7957   XZ=             31.2418   YZ=             11.7363

 Normal termination of Gaussian 16 at Wed Sep 15 12:45:53 2021.
