 Gaussian 16, Revision A.03,
 Gaussian 16:  ES64L-G16RevA.03 25-Dec-2016

 ----------------------------------------------------------
 #p cam-b3lyp/Def2SVP td=(nstates=5) density=(transition=1)
 ----------------------------------------------------------

 --------------------------------
 TDDFT excited states in gaussian
 --------------------------------
 Symbolic Z-matrix:
 Charge =  0 Multiplicity = 1

                         Standard orientation:
 ---------------------------------------------------------------------
 Center     Atomic      Atomic             Coordinates (Angstroms)
 Number     Number       Type             X           Y           Z
 ---------------------------------------------------------------------
      1         12           0       21.767504   -0.771411    0.163569
      2          6           0       22.804549    2.194058   -1.163149
      3          6           0       18.436393    0.403410   -0.029866
      4          6           0       20.725752   -3.571273    1.676435
      5          6           0       25.034258   -1.830194    0.241469
      6          7           0       20.759356    1.173127   -0.213242
      7          6           0       21.414909    2.223129   -0.868840
      8          6           0       20.444343    3.386766   -1.217989
      9          6           0       19.112493    2.737458   -0.756719
     10          6           0       19.443167    1.352961   -0.229319
     11          6           0       18.124564    3.483143    0.238253
     12          6           0       20.404260    3.854924   -2.739098
     13          6           0       19.374859    4.993765   -2.969002
     14          1           0       20.025884    6.353065   -3.228455
     15          7           0       19.790255   -1.512441    0.708126
     16          6           0       18.586939   -0.965844    0.316984
     17          6           0       17.557951   -1.825239    0.890591
     18          6           0       18.241466   -2.978936    1.393120
     19          6           0       19.646122   -2.751502    1.260926
     20          6           0       16.125391   -1.466099    0.793599
     21          6           0       17.506125   -4.166044    2.107705
     22          8           0       18.097457   -5.068761    2.734091
     23          6           0       16.000587   -4.216337    2.125437
     24          7           0       22.687538   -2.355470    0.847594
     25          6           0       22.047534   -3.457524    1.481356
     26          6           0       23.060395   -4.362586    2.145332
     27          6           0       24.288382   -4.051891    1.291691
     28          6           0       24.001532   -2.680596    0.696725
     29          6           0       23.272674   -4.034736    3.661480
     30          6           0       24.473384   -5.047634    0.124834
     31          6           0       25.212887   -6.331822    0.388432
     32          7           0       23.638537   -0.037437   -0.295821
     33          6           0       24.854255   -0.603308   -0.365945
     34          6           0       25.803132    0.365091   -0.830354
     35          6           0       25.064441    1.475615   -1.179492
     36          6           0       23.728840    1.169959   -0.875038
     37          6           0       27.254723    0.063285   -0.967220
     38          6           0       25.170413    2.763549   -1.719439
     39          8           0       26.124205    3.387574   -2.142821
     40          6           0       23.665193    3.307179   -1.737338
     41          6           0       23.628596    4.575183   -0.960128
     42          8           0       23.794070    4.707586    0.228093
     43          8           0       23.232131    5.598626   -1.722531
     44          6           0       23.102848    6.939704   -1.032563
     45          1           0       17.435071    0.769639   -0.265230
     46          1           0       20.400482   -4.492168    2.164576
     47          1           0       26.073551   -2.139602    0.115436
     48          1           0       20.683434    4.237766   -0.580152
     49          1           0       18.490523    2.529139   -1.627783
     50          1           0       17.058743    3.341859    0.056940
     51          1           0       18.443702    4.517315    0.368849
     52          1           0       18.272049    2.969591    1.188219
     53          1           0       20.203892    2.930873   -3.280002
     54          1           0       21.402333    4.193437   -3.016933
     55          1           0       18.641052    4.999775   -2.163027
     56          1           0       18.842682    4.746418   -3.887068
     57          1           0       15.772346   -1.226600    1.796827
     58          1           0       15.650123   -2.287811    0.257842
     59          1           0       15.985916   -0.603448    0.141918
     60          1           0       15.666213   -5.134578    2.608279
     61          1           0       15.732650   -4.338063    1.075018
     62          1           0       15.480671   -3.354797    2.543587
     63          1           0       22.757666   -5.408007    2.079615
     64          1           0       25.213798   -4.003983    1.865268
     65          1           0       23.850866   -3.120268    3.788096
     66          1           0       23.762598   -4.869191    4.163939
     67          1           0       22.270456   -3.922830    4.073695
     68          1           0       24.925074   -4.590900   -0.754859
     69          1           0       23.498427   -5.307417   -0.287801
     70          1           0       24.520292   -7.141183    0.159232
     71          1           0       25.305993   -6.341107    1.474520
     72          1           0       26.183734   -6.405433   -0.101876
     73          1           0       27.489389   -0.210361   -1.995150
     74          1           0       27.714573   -0.612924   -0.245884
     75          1           0       27.756702    1.016527   -0.800642
     76          1           0       23.383838    3.497665   -2.773283
     77          1           0       22.493481    6.781078   -0.142566
     78          1           0       22.583200    7.685079   -1.635198
     79          1           0       24.106342    7.275368   -0.770051
     80         12           0      -22.591600    0.339113   -0.254810
     81          6           0      -19.097345    0.670323    0.489964
     82          6           0      -21.566291   -2.135559   -2.617990
     83          6           0      -25.709601   -0.900890   -0.426054
     84          6           0      -23.289129    2.180561    2.541407
     85          7           0      -20.580498   -0.601603   -0.909790
     86          6           0      -19.316046   -0.296850   -0.497763
     87          6           0      -18.235231   -1.150722   -1.248279
     88          6           0      -19.090721   -1.706216   -2.485355
     89          6           0      -20.497096   -1.538657   -1.932512
     90          6           0      -18.929803   -0.923054   -3.768095
     91          6           0      -17.521760   -2.147984   -0.350473
     92          6           0      -15.982185   -2.267107   -0.493795
     93          1           0      -15.324488   -3.464796   -1.324961
     94          7           0      -23.580196   -1.271830   -1.468686
     95          6           0      -22.959585   -2.087222   -2.437976
     96          6           0      -23.984064   -2.924700   -3.073727
     97          6           0      -25.231374   -2.522666   -2.452165
     98          6           0      -24.887337   -1.621158   -1.373718
     99          6           0      -23.771490   -3.979640   -4.093205
    100          6           0      -26.601793   -2.978251   -2.886755
    101          8           0      -26.694285   -3.605848   -3.917675
    102          6           0      -27.877193   -2.693374   -2.127642
    103          7           0      -24.148884    0.536719    0.960967
    104          6           0      -25.386404    0.037307    0.564839
    105          6           0      -26.413841    0.483475    1.607720
    106          6           0      -25.677813    1.621377    2.405456
    107          6           0      -24.281270    1.468365    1.904725
    108          6           0      -27.861976    0.850748    1.115976
    109          6           0      -25.814314    1.635975    3.958974
    110          6           0      -26.311677    2.886853    4.606973
    111          7           0      -21.499583    1.348082    1.155908
    112          6           0      -21.913390    2.135492    2.216166
    113          6           0      -20.776772    2.883622    2.787179
    114          6           0      -19.641301    2.253907    2.144287
    115          6           0      -20.157454    1.353084    1.207720
    116          6           0      -20.749873    3.957637    3.842602
    117          6           0      -18.150001    2.278989    2.085927
    118          8           0      -17.353732    2.872429    2.756029
    119          6           0      -17.785926    1.174324    1.099244
    120          6           0      -16.905651    1.775090    0.044293
    121          8           0      -17.372467    2.609269   -0.701271
    122          8           0      -15.590257    1.230837   -0.058498
    123          6           0      -14.776105    1.670973   -1.231837
    124          1           0      -21.292930   -2.861166   -3.387108
    125          1           0      -26.763430   -1.177289   -0.363289
    126          1           0      -23.572092    2.911222    3.301622
    127          1           0      -17.494725   -0.522675   -1.742733
    128          1           0      -18.936869   -2.775836   -2.627495
    129          1           0      -19.563947   -0.038599   -3.711789
    130          1           0      -19.181779   -1.596471   -4.587196
    131          1           0      -17.950361   -0.511561   -4.014169
    132          1           0      -17.920082   -3.126925   -0.615357
    133          1           0      -17.876546   -1.991150    0.668134
    134          1           0      -15.645768   -2.328502    0.541450
    135          1           0      -15.517532   -1.377443   -0.919056
    136          1           0      -23.992548   -3.519405   -5.055755
    137          1           0      -24.536175   -4.747669   -3.976654
    138          1           0      -22.813291   -4.496373   -4.159393
    139          1           0      -28.769127   -3.187855   -2.511904
    140          1           0      -28.030195   -1.617441   -2.212540
    141          1           0      -27.907826   -2.863181   -1.052023
    142          1           0      -26.574535   -0.442639    2.160379
    143          1           0      -25.957446    2.577378    1.963780
    144          1           0      -27.859710    1.078161    0.049627
    145          1           0      -28.273228    1.663479    1.714400
    146          1           0      -28.543174    0.020708    1.302050
    147          1           0      -24.847974    1.386588    4.397136
    148          1           0      -26.426382    0.776518    4.232161
    149          1           0      -25.480479    3.383013    5.107568
    150          1           0      -27.053268    2.635123    5.364991
    151          1           0      -26.767922    3.640647    3.965671
    152          1           0      -19.836694    4.548736    3.776364
    153          1           0      -20.825228    3.446629    4.802851
    154          1           0      -21.670933    4.533917    3.753260
    155          1           0      -17.360158    0.351988    1.674409
    156          1           0      -14.365865    2.660601   -1.030014
    157          1           0      -15.399379    1.778494   -2.119316
    158          1           0      -13.988417    0.949697   -1.448720
 ---------------------------------------------------------------------

 SCF Done:  E(RCAM-B3LYP) =  -4069.83290391     A.U. after   17 cycles

 Excitation energies and oscillator strengths:

 Excited State   1:      Singlet-A      1.6534 eV  749.87 nm  f=0.3985  <S**2>=0.000
     309 -> 315       -0.16010
     312 -> 313        0.69068
     309 <- 315       -0.10386
 This state for optimization and/or second-order correction.
 Total Energy, E(TD-HF/TD-DFT) =  -4069.77214228
 Copying the excited state density for this state as the 1-particle RhoCI density.

 Excited State   2:      Singlet-A      1.6714 eV  741.80 nm  f=0.3933  <S**2>=0.000
     310 -> 316       -0.16932
     311 -> 314        0.68856
     310 <- 316       -0.10659

 Excited State   3:      Singlet-A      2.2360 eV  554.48 nm  f=0.1283  <S**2>=0.000
     310 -> 314        0.64116
     311 -> 316        0.28144

 Excited State   4:      Singlet-A      2.2510 eV  550.79 nm  f=0.1079  <S**2>=0.000
     309 -> 313        0.63838
     312 -> 315        0.28835

 Excited State   5:      Singlet-A      3.0733 eV  403.43 nm  f=0.0000  <S**2>=0.000
     311 -> 313        0.70710

 The electronic state is 1-A.
 Alpha  occ. eigenvalues --  -46.89352 -46.87513 -19.25290 -19.24926 -19.20760
 Alpha  occ. eigenvalues --  -19.19755 -19.19386 -19.18749 -19.18563 -19.18009
 Alpha  occ. eigenvalues --  -14.42787 -14.42730 -14.41751 -14.41741 -14.39364
 Alpha  occ. eigenvalues --  -14.39184 -14.38876 -14.38861 -10.40251 -10.38538
 Alpha  occ. eigenvalues --  -10.35436 -10.35223 -10.34951 -10.34538 -10.32302
 Alpha  occ. eigenvalues --  -10.32301 -10.32064 -10.31412 -10.31368 -10.31323
 Alpha  occ. eigenvalues --  -10.30723 -10.30575 -10.30540 -10.30307 -10.30260
 Alpha  occ. eigenvalues --  -10.30021 -10.29572 -10.29516 -10.29481 -10.29277
 Alpha  occ. eigenvalues --  -10.29256 -10.29131 -10.29003 -10.28991 -10.28864
 Alpha  occ. eigenvalues --  -10.28690 -10.28665 -10.28611 -10.28583 -10.28490
 Alpha  occ. eigenvalues --  -10.28107 -10.28084 -10.28068 -10.28021 -10.27822
 Alpha  occ. eigenvalues --  -10.27798 -10.27767 -10.27626 -10.27466 -10.27379
 Alpha  occ. eigenvalues --  -10.27378 -10.27248 -10.27128 -10.27037 -10.26947
 Alpha  occ. eigenvalues --  -10.26774 -10.26681 -10.26591 -10.26550 -10.26547
 Alpha  occ. eigenvalues --  -10.26541 -10.26519 -10.26362 -10.26340 -10.26176
 Alpha  occ. eigenvalues --  -10.26078 -10.25916 -10.25843 -10.25757 -10.25747
 Alpha  occ. eigenvalues --  -10.25587 -10.25559 -10.25537 -10.25397 -10.25111
 Alpha  occ. eigenvalues --  -10.25027  -3.17921  -3.16293  -1.92769  -1.92382
 Alpha  occ. eigenvalues --   -1.92228  -1.91195  -1.90764  -1.90592  -1.16921
 Alpha  occ. eigenvalues --   -1.15399  -1.11755  -1.10449  -1.10240  -1.08289
 Alpha  occ. eigenvalues --   -1.07900  -1.07151  -1.05451  -1.04621  -1.03933
 Alpha  occ. eigenvalues --   -1.03605  -1.03111  -1.02804  -1.01971  -1.01538
 Alpha  occ. eigenvalues --   -0.93345  -0.92784  -0.89434  -0.89094  -0.88915
 Alpha  occ. eigenvalues --   -0.88790  -0.88673  -0.88484  -0.87917  -0.87643
 Alpha  occ. eigenvalues --   -0.87183  -0.86579  -0.86257  -0.85677  -0.84521
 Alpha  occ. eigenvalues --   -0.84338  -0.83986  -0.83980  -0.82540  -0.82523
 Alpha  occ. eigenvalues --   -0.81870  -0.81592  -0.81224  -0.80647  -0.80585
 Alpha  occ. eigenvalues --   -0.80233  -0.78397  -0.78192  -0.77567  -0.77516
 Alpha  occ. eigenvalues --   -0.77228  -0.76828  -0.76379  -0.76222  -0.75252
 Alpha  occ. eigenvalues --   -0.75213  -0.73231  -0.72674  -0.71821  -0.71809
 Alpha  occ. eigenvalues --   -0.69576  -0.69457  -0.68968  -0.68966  -0.68328
 Alpha  occ. eigenvalues --   -0.67952  -0.66741  -0.66093  -0.65971  -0.65810
 Alpha  occ. eigenvalues --   -0.65125  -0.64965  -0.64634  -0.64570  -0.64346
 Alpha  occ. eigenvalues --   -0.64197  -0.62355  -0.62094  -0.60263  -0.60003
 Alpha  occ. eigenvalues --   -0.59824  -0.59585  -0.59220  -0.59127  -0.59097
 Alpha  occ. eigenvalues --   -0.58892  -0.58356  -0.58337  -0.58030  -0.57675
 Alpha  occ. eigenvalues --   -0.56564  -0.56562  -0.56093  -0.55690  -0.55463
 Alpha  occ. eigenvalues --   -0.55035  -0.54767  -0.54357  -0.54258  -0.53897
 Alpha  occ. eigenvalues --   -0.53476  -0.53395  -0.53362  -0.53111  -0.52985
 Alpha  occ. eigenvalues --   -0.52948  -0.52726  -0.52298  -0.52271  -0.51863
 Alpha  occ. eigenvalues --   -0.51775  -0.51752  -0.51680  -0.51344  -0.51338
 Alpha  occ. eigenvalues --   -0.51129  -0.50954  -0.50462  -0.50383  -0.50262
 Alpha  occ. eigenvalues --   -0.49996  -0.49967  -0.49913  -0.49901  -0.49769
 Alpha  occ. eigenvalues --   -0.49744  -0.49330  -0.49285  -0.49138  -0.48956
 Alpha  occ. eigenvalues --   -0.48772  -0.48733  -0.48623  -0.48272  -0.48217
 Alpha  occ. eigenvalues --   -0.48094  -0.47752  -0.47716  -0.47512  -0.47132
 Alpha  occ. eigenvalues --   -0.47112  -0.47004  -0.46937  -0.46531  -0.46466
 Alpha  occ. eigenvalues --   -0.46449  -0.46412  -0.46210  -0.46083  -0.46044
 Alpha  occ. eigenvalues --   -0.46002  -0.45865  -0.45855  -0.45509  -0.45284
 Alpha  occ. eigenvalues --   -0.45280  -0.44989  -0.44706  -0.44690  -0.44237
 Alpha  occ. eigenvalues --   -0.43803  -0.43763  -0.43725  -0.43644  -0.43567
 Alpha  occ. eigenvalues --   -0.43476  -0.43347  -0.43334  -0.42927  -0.42858
 Alpha  occ. eigenvalues --   -0.42668  -0.42578  -0.42460  -0.42016  -0.41946
 Alpha  occ. eigenvalues --   -0.41819  -0.41637  -0.41578  -0.41563  -0.41148
 Alpha  occ. eigenvalues --   -0.41135  -0.40889  -0.40860  -0.40650  -0.40601
 Alpha  occ. eigenvalues --   -0.40423  -0.40292  -0.40055  -0.39833  -0.39315
 Alpha  occ. eigenvalues --   -0.38500  -0.38450  -0.38072  -0.37729  -0.37488
 Alpha  occ. eigenvalues --   -0.37369  -0.37190  -0.36944  -0.36675  -0.36577
 Alpha  occ. eigenvalues --   -0.36537  -0.35852  -0.35078  -0.34428  -0.34228
 Alpha  occ. eigenvalues --   -0.34019  -0.33288  -0.33212  -0.31633  -0.31471
 Alpha  occ. eigenvalues --   -0.31256  -0.31138  -0.30661  -0.30520  -0.30487
 Alpha  occ. eigenvalues --   -0.29702  -0.29107  -0.28768  -0.24618  -0.24336
 Alpha  occ. eigenvalues --   -0.21154  -0.21126
 Alpha virt. eigenvalues --   -0.09080  -0.09015  -0.01556  -0.01526   0.00397
 Alpha virt. eigenvalues --    0.00439   0.01215   0.02348   0.02607   0.03406
 Alpha virt. eigenvalues --    0.04364   0.04369   0.04648   0.05354   0.05574

 Mulliken charges:
               1
     1  Mg  11.998563
     2  C    5.966656
     3  C    5.999369
     4  C    6.037224
     5  C    6.009192
     6  N    6.986508
     7  C    6.047281
     8  C    5.982223
     9  C    6.007048
    10  C    5.975441
    11  C    6.005100
    12  C    5.997473
    13  C    6.001914
    14  H    0.996114
    15  N    7.009351
    16  C    5.957564
    17  C    5.974930
    18  C    5.992096
    19  C    5.946659
    20  C    6.007051
    21  C    5.986318
    22  O    7.973689
    23  C    6.006538
    24  N    7.019342
    25  C    5.956382
    26  C    6.008995
    27  C    5.995101
    28  C    6.020849
    29  C    6.001592
    30  C    5.991318
    31  C    5.998893
    32  N    6.992712
    33  C    6.029341
    34  C    6.036306
    35  C    5.998730
    36  C    6.040086
    37  C    5.993660
    38  C    6.013552
    39  O    8.027216
    40  C    6.003789
    41  C    6.001532
    42  O    8.003774
    43  O    8.001730
    44  C    5.998550
    45  H    0.981608
    46  H    0.996583
    47  H    1.015252
    48  H    1.003302
    49  H    0.999186
    50  H    0.999874
    51  H    0.983999
    52  H    1.002162
    53  H    1.005926
    54  H    0.992661
    55  H    1.007965
    56  H    1.002821
    57  H    0.979064
    58  H    0.980213
    59  H    0.982329
    60  H    0.984792
    61  H    0.994005
    62  H    0.994213
    63  H    1.001538
    64  H    1.001475
    65  H    0.986370
    66  H    0.993759
    67  H    1.007888
    68  H    0.994853
    69  H    1.016995
    70  H    1.007918
    71  H    1.005059
    72  H    0.999409
    73  H    1.024510
    74  H    1.019917
    75  H    1.018208
    76  H    1.007562
    77  H    1.005203
    78  H    1.005363
    79  H    1.000264
    80  Mg  11.999976
    81  C    5.999412
    82  C    6.000212
    83  C    6.000669
    84  C    5.999706
    85  N    6.999739
    86  C    6.000673
    87  C    5.999834
    88  C    6.000172
    89  C    5.999444
    90  C    6.000126
    91  C    5.999900
    92  C    5.999913
    93  H    1.000291
    94  N    7.000152
    95  C    5.999122
    96  C    5.999518
    97  C    5.999884
    98  C    5.999121
    99  C    6.000182
   100  C    5.999740
   101  O    7.999628
   102  C    6.000102
   103  N    7.000166
   104  C    5.999239
   105  C    6.000218
   106  C    5.999748
   107  C    6.000653
   108  C    6.000013
   109  C    5.999933
   110  C    5.999988
   111  N    6.999987
   112  C    6.000755
   113  C    6.000524
   114  C    6.000133
   115  C    6.000664
   116  C    5.999949
   117  C    6.000371
   118  O    8.000544
   119  C    6.000044
   120  C    6.000115
   121  O    8.000008
   122  O    8.000078
   123  C    5.999937
   124  H    0.999744
   125  H    0.999875
   126  H    1.000237
   127  H    1.000085
   128  H    1.000009
   129  H    0.999850
   130  H    1.000010
   131  H    0.999754
   132  H    1.000211
   133  H    0.999867
   134  H    1.000015
   135  H    0.999995
   136  H    0.999554
   137  H    0.999641
   138  H    0.999638
   139  H    0.999701
   140  H    0.999773
   141  H    0.999766
   142  H    0.999969
   143  H    1.000050
   144  H    1.000032
   145  H    0.999792
   146  H    1.000018
   147  H    0.999964
   148  H    1.000199
   149  H    0.999938
   150  H    1.000079
   151  H    1.000045
   152  H    1.000349
   153  H    1.000418
   154  H    1.000276
   155  H    1.000227
   156  H    1.000063
   157  H    1.000057
   158  H    1.000216
 Sum of Mulliken charges = 624.00000

 Dipole moment (field-independent basis, Debye):
    X=             10.4865    Y=              3.2755    Z=             -2.5309  Tot=             11.2739
 Quadrupole moment (field-independent basis, Debye-Ang):
   XX=            443.9040   YY=             -1.4976   ZZ=             -0.9053
   XY=             56.4964   XZ=            -60.2169   YZ=              2.3275

 Normal termination of Gaussian 16 at Thu Sep 23 00:56:19 2021.
