 Gaussian 16, Revision A.03,
 Gaussian 16:  ES64L-G16RevA.03 25-Dec-2016

 ----------------------------------------------------------
 #p cam-b3lyp/Def2SVP td=(nstates=5) density=(transition=1)
 ----------------------------------------------------------

 --------------------------------
 TDDFT excited states in gaussian
 --------------------------------
 Symbolic Z-matrix:
 Charge =  0 Multiplicity = 1

                         Standard orientation:
 ---------------------------------------------------------------------
 Center     Atomic      Atomic             Coordinates (Angstroms)
 Number     Number       Type             X           Y           Z
 ---------------------------------------------------------------------
      1         12           0       21.437298   -0.096158    0.573717
      2          6           0       17.917219   -0.224358    0.428177
      3          6           0       21.483565   -3.157453   -0.920772
      4          6           0       24.780022    0.356497    0.023489
      5          6           0       21.053788    3.284389    1.634300
      6          7           0       19.843032   -1.485903   -0.303062
      7          6           0       18.488951   -1.445609   -0.131909
      8          6           0       17.775056   -2.599797   -0.856536
      9          6           0       19.020361   -3.615008   -0.889452
     10          6           0       20.200645   -2.697290   -0.688666
     11          6           0       18.996237   -4.745583    0.173915
     12          6           0       17.274822   -2.250203   -2.329943
     13          6           0       16.128569   -3.051806   -2.927140
     14          1           0       16.335974   -4.036005   -4.097977
     15          7           0       23.032650   -1.238792   -0.305392
     16          6           0       22.822731   -2.520641   -0.723744
     17          6           0       24.030677   -3.163143   -1.000465
     18          6           0       25.049849   -2.178848   -0.713009
     19          6           0       24.335990   -0.925893   -0.336901
     20          6           0       24.168205   -4.606288   -1.470387
     21          6           0       26.526779   -2.476642   -0.839767
     22          8           0       26.900247   -3.622835   -1.199593
     23          6           0       27.656718   -1.463991   -0.439145
     24          7           0       22.655475    1.573371    0.815135
     25          6           0       24.048867    1.496026    0.546268
     26          6           0       24.751481    2.687504    1.135344
     27          6           0       23.634239    3.736357    1.324923
     28          6           0       22.364716    2.835889    1.342784
     29          6           0       25.487574    2.555559    2.487804
     30          6           0       23.555208    4.781208    0.091178
     31          6           0       24.479962    5.989081    0.101930
     32          7           0       19.797181    1.184228    1.126158
     33          6           0       19.799886    2.507784    1.540178
     34          6           0       18.516676    2.995028    1.702460
     35          6           0       17.696504    1.918908    1.322337
     36          6           0       18.532605    0.850252    0.957394
     37          6           0       18.169149    4.370730    2.176971
     38          6           0       16.401119    1.486295    1.265334
     39          8           0       15.379371    2.018830    1.651644
     40          6           0       16.486384    0.182357    0.444421
     41          6           0       15.905973    0.531053   -0.893605
     42          8           0       16.322448    1.398336   -1.596772
     43          8           0       14.776357   -0.248916   -1.147486
     44          6           0       14.092967    0.158669   -2.325546
     45          1           0       21.549488   -4.210583   -1.202739
     46          1           0       25.863928    0.487150    0.061470
     47          1           0       21.020916    4.274920    2.092309
     48          1           0       17.025655   -3.084305   -0.231528
     49          1           0       18.984514   -4.111069   -1.858972
     50          1           0       18.606094   -5.591435   -0.392842
     51          1           0       18.306127   -4.531431    0.989908
     52          1           0       19.999059   -4.985611    0.527613
     53          1           0       18.081461   -2.394692   -3.048725
     54          1           0       17.074493   -1.178591   -2.339427
     55          1           0       15.410940   -2.290061   -3.235294
     56          1           0       15.663776   -3.603594   -2.110231
     57          1           0       25.008805   -5.209233   -1.125313
     58          1           0       24.146065   -4.417386   -2.543412
     59          1           0       23.332798   -5.198984   -1.097623
     60          1           0       27.587641   -1.247381    0.626537
     61          1           0       27.443035   -0.613791   -1.086614
     62          1           0       28.671493   -1.736526   -0.728767
     63          1           0       25.428000    3.053944    0.363922
     64          1           0       23.748014    4.299570    2.251249
     65          1           0       25.044596    3.113030    3.312904
     66          1           0       26.567679    2.505678    2.348455
     67          1           0       25.289576    1.526885    2.788592
     68          1           0       22.510824    5.081970    0.171792
     69          1           0       23.713301    4.271099   -0.859218
     70          1           0       25.019914    6.033357   -0.843514
     71          1           0       25.193361    5.887583    0.920241
     72          1           0       23.917045    6.919984    0.174846
     73          1           0       17.439349    4.755818    1.465380
     74          1           0       19.016132    5.056673    2.135363
     75          1           0       17.715196    4.375699    3.168081
     76          1           0       15.872654   -0.568193    0.941336
     77          1           0       13.316141    0.877738   -2.067019
     78          1           0       13.495837   -0.634068   -2.777824
     79          1           0       14.759783    0.610989   -3.057632
     80         12           0      -20.801310    0.657280    0.183484
     81          6           0      -20.200882   -2.813311    0.316066
     82          6           0      -17.549746    1.040516   -0.541159
     83          6           0      -21.579913    3.775696   -0.408013
     84          6           0      -24.277350   -0.168226    0.261908
     85          7           0      -19.095957   -0.756169   -0.121788
     86          6           0      -19.024103   -2.097610    0.048841
     87          6           0      -17.628558   -2.660007   -0.130495
     88          6           0      -16.789602   -1.319455   -0.129381
     89          6           0      -17.839784   -0.239507   -0.287678
     90          6           0      -15.898297   -1.090912    1.160458
     91          6           0      -17.251860   -3.592772   -1.362947
     92          6           0      -18.165703   -3.694238   -2.613030
     93          1           0      -17.479251   -3.915519   -4.012525
     94          7           0      -19.621581    2.226136   -0.277343
     95          6           0      -18.347092    2.189896   -0.642556
     96          6           0      -17.931751    3.550809   -1.079106
     97          6           0      -19.130567    4.410985   -0.869133
     98          6           0      -20.181236    3.456988   -0.512884
     99          6           0      -16.517513    3.929196   -1.427889
    100          6           0      -19.206841    5.893143   -1.126878
    101          8           0      -18.186132    6.485004   -1.469170
    102          6           0      -20.514336    6.765419   -1.058141
    103          7           0      -22.736287    1.697108   -0.162539
    104          6           0      -22.664721    2.982365   -0.208529
    105          6           0      -24.154823    3.544624   -0.157590
    106          6           0      -24.953191    2.239851   -0.194319
    107          6           0      -23.917055    1.143667   -0.037063
    108          6           0      -24.561691    4.485741    0.988501
    109          6           0      -25.660657    1.952686   -1.618306
    110          6           0      -27.199898    1.984043   -1.638507
    111          7           0      -22.040332   -1.068594    0.205155
    112          6           0      -23.388957   -1.253435    0.358685
    113          6           0      -23.688407   -2.668879    0.697657
    114          6           0      -22.459101   -3.375352    0.569584
    115          6           0      -21.492361   -2.295859    0.377129
    116          6           0      -25.081209   -3.303316    0.909105
    117          6           0      -21.785200   -4.630462    0.597547
    118          8           0      -22.158604   -5.815425    0.634308
    119          6           0      -20.269223   -4.319901    0.510413
    120          6           0      -19.626461   -4.893173    1.776719
    121          8           0      -18.935108   -5.856388    1.976410
    122          8           0      -19.791909   -3.952451    2.799063
    123          6           0      -19.141423   -4.237222    4.115734
    124          1           0      -16.488908    1.134604   -0.783244
    125          1           0      -21.783965    4.836196   -0.574473
    126          1           0      -25.313910   -0.362908    0.543645
    127          1           0      -17.420471   -3.177363    0.805890
    128          1           0      -16.095497   -1.330149   -0.969868
    129          1           0      -16.051252   -1.889255    1.885874
    130          1           0      -16.378702   -0.218063    1.601192
    131          1           0      -14.857220   -0.953985    0.867458
    132          1           0      -17.107883   -4.596122   -0.961913
    133          1           0      -16.261209   -3.313956   -1.723670
    134          1           0      -18.717527   -2.754869   -2.648069
    135          1           0      -18.799140   -4.580681   -2.624551
    136          1           0      -16.355589    5.006419   -1.460002
    137          1           0      -16.269470    3.378469   -2.336009
    138          1           0      -15.923341    3.431422   -0.660837
    139          1           0      -21.155674    6.751082   -0.176097
    140          1           0      -21.189544    6.419423   -1.840761
    141          1           0      -20.306795    7.825867   -1.198317
    142          1           0      -24.373541    4.170302   -1.022258
    143          1           0      -25.767006    2.100003    0.518044
    144          1           0      -23.728172    4.691153    1.660370
    145          1           0      -25.424868    4.105210    1.535626
    146          1           0      -24.856800    5.479130    0.650569
    147          1           0      -25.403918    0.967259   -2.004632
    148          1           0      -25.258873    2.704652   -2.297780
    149          1           0      -27.674636    1.300442   -2.342801
    150          1           0      -27.458591    2.988481   -1.973480
    151          1           0      -27.467127    1.733419   -0.611850
    152          1           0      -25.922101   -2.687540    0.591695
    153          1           0      -25.140814   -3.450766    1.987161
    154          1           0      -25.073832   -4.294911    0.457248
    155          1           0      -19.850242   -4.812590   -0.366354
    156          1           0      -19.016936   -5.275656    4.421967
    157          1           0      -19.841409   -3.809780    4.833410
    158          1           0      -18.193802   -3.749088    4.344328
 ---------------------------------------------------------------------

 SCF Done:  E(RCAM-B3LYP) =  -4069.76909035     A.U. after   19 cycles

 Excitation energies and oscillator strengths:

 Excited State   1:      Singlet-A      1.7066 eV  726.48 nm  f=0.4044  <S**2>=0.000
     310 -> 315       -0.18534
     311 -> 313        0.68238
     310 <- 315       -0.10819
 This state for optimization and/or second-order correction.
 Total Energy, E(TD-HF/TD-DFT) =  -4069.70637237
 Copying the excited state density for this state as the 1-particle RhoCI density.

 Excited State   2:      Singlet-A      1.7690 eV  700.88 nm  f=0.4092  <S**2>=0.000
     309 -> 316        0.18508
     312 -> 314        0.68376
     309 <- 316        0.10632

 Excited State   3:      Singlet-A      2.1433 eV  578.46 nm  f=0.1303  <S**2>=0.000
     310 -> 313        0.65034
     311 -> 315        0.26013

 Excited State   4:      Singlet-A      2.2834 eV  542.99 nm  f=0.0990  <S**2>=0.000
     309 -> 314        0.63711
     312 -> 316       -0.29627

 Excited State   5:      Singlet-A      3.0231 eV  410.12 nm  f=0.0000  <S**2>=0.000
     312 -> 313        0.70710

 The electronic state is 1-A.
 Alpha  occ. eigenvalues --  -46.90323 -46.90072 -19.25402 -19.24602 -19.20932
 Alpha  occ. eigenvalues --  -19.20419 -19.19470 -19.18602 -19.18105 -19.17895
 Alpha  occ. eigenvalues --  -14.43187 -14.42680 -14.42319 -14.41844 -14.40440
 Alpha  occ. eigenvalues --  -14.40167 -14.39831 -14.39216 -10.39883 -10.39708
 Alpha  occ. eigenvalues --  -10.35694 -10.35608 -10.35036 -10.33366 -10.32412
 Alpha  occ. eigenvalues --  -10.32337 -10.31870 -10.31646 -10.31525 -10.31126
 Alpha  occ. eigenvalues --  -10.31030 -10.30996 -10.30951 -10.30774 -10.30733
 Alpha  occ. eigenvalues --  -10.30725 -10.30238 -10.30179 -10.30112 -10.30104
 Alpha  occ. eigenvalues --  -10.29957 -10.29870 -10.29409 -10.29244 -10.29106
 Alpha  occ. eigenvalues --  -10.28973 -10.28800 -10.28758 -10.28334 -10.28314
 Alpha  occ. eigenvalues --  -10.28220 -10.28072 -10.28062 -10.28022 -10.27968
 Alpha  occ. eigenvalues --  -10.27914 -10.27874 -10.27850 -10.27825 -10.27678
 Alpha  occ. eigenvalues --  -10.27628 -10.27567 -10.27560 -10.27461 -10.27421
 Alpha  occ. eigenvalues --  -10.27377 -10.27347 -10.27249 -10.27188 -10.27093
 Alpha  occ. eigenvalues --  -10.26838 -10.26599 -10.26586 -10.26571 -10.26501
 Alpha  occ. eigenvalues --  -10.26491 -10.26383 -10.26377 -10.26347 -10.26181
 Alpha  occ. eigenvalues --  -10.26093 -10.25853 -10.25794 -10.25670 -10.25380
 Alpha  occ. eigenvalues --  -10.24176  -3.18615  -3.18550  -1.93514  -1.93438
 Alpha  occ. eigenvalues --   -1.93063  -1.93004  -1.92913  -1.92853  -1.17650
 Alpha  occ. eigenvalues --   -1.16062  -1.10056  -1.09572  -1.09518  -1.09333
 Alpha  occ. eigenvalues --   -1.07331  -1.07283  -1.06749  -1.05767  -1.04829
 Alpha  occ. eigenvalues --   -1.04661  -1.04016  -1.03933  -1.03307  -1.01927
 Alpha  occ. eigenvalues --   -0.94353  -0.93589  -0.89812  -0.88978  -0.88829
 Alpha  occ. eigenvalues --   -0.88735  -0.88693  -0.88619  -0.88306  -0.87577
 Alpha  occ. eigenvalues --   -0.87113  -0.86908  -0.85922  -0.85414  -0.84896
 Alpha  occ. eigenvalues --   -0.84398  -0.83963  -0.83649  -0.82928  -0.82907
 Alpha  occ. eigenvalues --   -0.81902  -0.81799  -0.80814  -0.80705  -0.80550
 Alpha  occ. eigenvalues --   -0.80363  -0.78524  -0.78085  -0.77716  -0.77402
 Alpha  occ. eigenvalues --   -0.77034  -0.76962  -0.76696  -0.75980  -0.75705
 Alpha  occ. eigenvalues --   -0.75375  -0.73626  -0.73325  -0.72403  -0.72269
 Alpha  occ. eigenvalues --   -0.69572  -0.69502  -0.69274  -0.68698  -0.68491
 Alpha  occ. eigenvalues --   -0.68447  -0.67533  -0.67179  -0.66863  -0.66325
 Alpha  occ. eigenvalues --   -0.65701  -0.65519  -0.65380  -0.64881  -0.64764
 Alpha  occ. eigenvalues --   -0.64234  -0.63169  -0.62827  -0.60609  -0.60539
 Alpha  occ. eigenvalues --   -0.60206  -0.60168  -0.59627  -0.59471  -0.59201
 Alpha  occ. eigenvalues --   -0.59040  -0.58558  -0.58093  -0.58077  -0.57318
 Alpha  occ. eigenvalues --   -0.56519  -0.56376  -0.55881  -0.55797  -0.55701
 Alpha  occ. eigenvalues --   -0.55324  -0.55097  -0.55080  -0.54537  -0.53954
 Alpha  occ. eigenvalues --   -0.53861  -0.53618  -0.53567  -0.53212  -0.53016
 Alpha  occ. eigenvalues --   -0.52831  -0.52809  -0.52620  -0.52292  -0.52024
 Alpha  occ. eigenvalues --   -0.51845  -0.51773  -0.51542  -0.51457  -0.51253
 Alpha  occ. eigenvalues --   -0.51234  -0.51116  -0.50833  -0.50624  -0.50623
 Alpha  occ. eigenvalues --   -0.50165  -0.50021  -0.49845  -0.49805  -0.49759
 Alpha  occ. eigenvalues --   -0.49494  -0.49366  -0.49033  -0.49012  -0.48882
 Alpha  occ. eigenvalues --   -0.48829  -0.48561  -0.48520  -0.48450  -0.48298
 Alpha  occ. eigenvalues --   -0.47955  -0.47906  -0.47638  -0.47441  -0.47359
 Alpha  occ. eigenvalues --   -0.47242  -0.47241  -0.47020  -0.46940  -0.46652
 Alpha  occ. eigenvalues --   -0.46613  -0.46412  -0.46361  -0.46283  -0.46093
 Alpha  occ. eigenvalues --   -0.46036  -0.45907  -0.45798  -0.45535  -0.45365
 Alpha  occ. eigenvalues --   -0.45297  -0.45092  -0.44876  -0.44731  -0.44608
 Alpha  occ. eigenvalues --   -0.44214  -0.43923  -0.43863  -0.43781  -0.43586
 Alpha  occ. eigenvalues --   -0.43347  -0.43300  -0.43268  -0.43130  -0.42954
 Alpha  occ. eigenvalues --   -0.42683  -0.42602  -0.42512  -0.42259  -0.42198
 Alpha  occ. eigenvalues --   -0.42077  -0.42016  -0.41560  -0.41471  -0.41335
 Alpha  occ. eigenvalues --   -0.41254  -0.41202  -0.41028  -0.40928  -0.40690
 Alpha  occ. eigenvalues --   -0.40518  -0.40319  -0.39975  -0.39410  -0.39242
 Alpha  occ. eigenvalues --   -0.38858  -0.38502  -0.38213  -0.37819  -0.37664
 Alpha  occ. eigenvalues --   -0.37657  -0.37148  -0.36966  -0.36900  -0.36668
 Alpha  occ. eigenvalues --   -0.36594  -0.36326  -0.35511  -0.35065  -0.35019
 Alpha  occ. eigenvalues --   -0.34269  -0.33651  -0.33422  -0.31915  -0.31456
 Alpha  occ. eigenvalues --   -0.31418  -0.31052  -0.30968  -0.30457  -0.30042
 Alpha  occ. eigenvalues --   -0.29935  -0.29528  -0.29274  -0.24497  -0.24332
 Alpha  occ. eigenvalues --   -0.22046  -0.21537
 Alpha virt. eigenvalues --   -0.09601  -0.08917  -0.02490  -0.02036  -0.00622
 Alpha virt. eigenvalues --   -0.00088   0.01183   0.01413   0.01865   0.02589
 Alpha virt. eigenvalues --    0.04290   0.04300   0.04964   0.05144   0.05436

 Mulliken charges:
               1
     1  Mg  12.000017
     2  C    6.001221
     3  C    5.967096
     4  C    5.986935
     5  C    6.036053
     6  N    6.987982
     7  C    5.967289
     8  C    6.011848
     9  C    5.987559
    10  C    6.040697
    11  C    5.996446
    12  C    6.001937
    13  C    6.002132
    14  H    0.987867
    15  N    6.989738
    16  C    6.050737
    17  C    6.016702
    18  C    6.014703
    19  C    6.041710
    20  C    5.998384
    21  C    6.009718
    22  O    8.025411
    23  C    5.998872
    24  N    7.015282
    25  C    6.029632
    26  C    5.988356
    27  C    6.007814
    28  C    5.956704
    29  C    6.002950
    30  C    6.001656
    31  C    5.999617
    32  N    7.001880
    33  C    5.955613
    34  C    5.978750
    35  C    5.990476
    36  C    5.977732
    37  C    6.003917
    38  C    5.982690
    39  O    7.964395
    40  C    6.005829
    41  C    5.994986
    42  O    7.996435
    43  O    7.996825
    44  C    6.004120
    45  H    1.003568
    46  H    1.011153
    47  H    0.996339
    48  H    0.998352
    49  H    1.001857
    50  H    1.004098
    51  H    1.012502
    52  H    0.992371
    53  H    0.987101
    54  H    1.006365
    55  H    1.001893
    56  H    0.998391
    57  H    1.015098
    58  H    1.017488
    59  H    1.020710
    60  H    1.009962
    61  H    1.008219
    62  H    1.014352
    63  H    1.001932
    64  H    1.000094
    65  H    1.014264
    66  H    1.001098
    67  H    0.997453
    68  H    1.007589
    69  H    0.989301
    70  H    0.995630
    71  H    0.995626
    72  H    1.002551
    73  H    0.984466
    74  H    0.979211
    75  H    0.981326
    76  H    0.988129
    77  H    0.997005
    78  H    0.992572
    79  H    0.995218
    80  Mg  12.000051
    81  C    6.000269
    82  C    5.999821
    83  C    5.999671
    84  C    6.000148
    85  N    7.000020
    86  C    5.999609
    87  C    6.000120
    88  C    5.999878
    89  C    6.000255
    90  C    5.999975
    91  C    5.999966
    92  C    6.000109
    93  H    0.999895
    94  N    6.999910
    95  C    6.000472
    96  C    6.000385
    97  C    6.000031
    98  C    6.000481
    99  C    5.999922
   100  C    6.000131
   101  O    8.000259
   102  C    5.999972
   103  N    7.000025
   104  C    6.000308
   105  C    5.999914
   106  C    6.000067
   107  C    5.999676
   108  C    6.000010
   109  C    6.000107
   110  C    6.000002
   111  N    7.000003
   112  C    5.999617
   113  C    5.999645
   114  C    5.999904
   115  C    5.999696
   116  C    6.000056
   117  C    5.999779
   118  O    7.999603
   119  C    6.000025
   120  C    5.999976
   121  O    7.999904
   122  O    8.000030
   123  C    6.000040
   124  H    1.000216
   125  H    1.000082
   126  H    0.999851
   127  H    0.999997
   128  H    1.000082
   129  H    1.000158
   130  H    0.999951
   131  H    1.000152
   132  H    1.000012
   133  H    0.999977
   134  H    0.999943
   135  H    0.999995
   136  H    1.000245
   137  H    1.000283
   138  H    1.000331
   139  H    1.000095
   140  H    1.000062
   141  H    1.000138
   142  H    0.999978
   143  H    0.999961
   144  H    0.999991
   145  H    1.000059
   146  H    0.999970
   147  H    1.000028
   148  H    0.999841
   149  H    0.999942
   150  H    0.999903
   151  H    0.999991
   152  H    0.999741
   153  H    0.999754
   154  H    0.999783
   155  H    0.999890
   156  H    0.999943
   157  H    0.999950
   158  H    0.999968
 Sum of Mulliken charges = 624.00000

 Dipole moment (field-independent basis, Debye):
    X=              9.5573    Y=             -5.3401    Z=             -2.2578  Tot=             11.1784
 Quadrupole moment (field-independent basis, Debye-Ang):
   XX=            398.0980   YY=              1.8617   ZZ=             -2.9446
   XY=           -120.4738   XZ=            -46.0915   YZ=             -1.8921

 Normal termination of Gaussian 16 at Wed Sep 22 13:27:52 2021.
