 Gaussian 16, Revision A.03,
 Gaussian 16:  ES64L-G16RevA.03 25-Dec-2016

 -----------------------------------
 #p cam-b3lyp/Def2SVP td=(nstates=5)
 -----------------------------------

 --------------------------------
 TDDFT excited states in gaussian
 --------------------------------
 Symbolic Z-matrix:
 Charge =  0 Multiplicity = 1

                         Standard orientation:
 ---------------------------------------------------------------------
 Center     Atomic      Atomic             Coordinates (Angstroms)
 Number     Number       Type             X           Y           Z
 ---------------------------------------------------------------------
      1         12           0      -22.021625   -0.623167   -0.364637
      2          6           0      -21.675481    2.180858    1.697712
      3          6           0      -22.567937    1.318769   -2.953106
      4          6           0      -23.088121   -3.363128   -2.141995
      5          6           0      -21.944794   -2.690053    2.496760
      6          7           0      -22.000448    1.474644   -0.564814
      7          6           0      -21.781141    2.476299    0.355139
      8          6           0      -21.653846    3.839406   -0.312654
      9          6           0      -22.171182    3.530384   -1.754182
     10          6           0      -22.148489    2.042199   -1.800723
     11          6           0      -23.453015    4.169393   -2.243148
     12          6           0      -20.235752    4.487719   -0.218111
     13          6           0      -20.106588    5.871629   -0.863774
     14          1           0      -19.510294    6.963870    0.011977
     15          7           0      -22.825866   -0.973720   -2.365069
     16          6           0      -22.824884   -0.022843   -3.322435
     17          6           0      -23.193741   -0.615850   -4.577922
     18          6           0      -23.456491   -1.974113   -4.329715
     19          6           0      -23.133793   -2.145884   -2.887071
     20          6           0      -23.323731    0.159842   -5.871743
     21          6           0      -23.850570   -3.060454   -5.276037
     22          8           0      -24.209005   -4.227241   -4.963003
     23          6           0      -23.799017   -2.820510   -6.779947
     24          7           0      -22.471556   -2.677755    0.115761
     25          6           0      -22.954780   -3.569723   -0.780082
     26          6           0      -22.953225   -5.053840   -0.123789
     27          6           0      -22.135949   -4.824010    1.195765
     28          6           0      -22.100315   -3.331751    1.279822
     29          6           0      -24.445183   -5.527232    0.081855
     30          6           0      -20.648865   -5.304972    1.023215
     31          6           0      -19.839311   -4.810993   -0.165635
     32          7           0      -21.783285   -0.358161    1.749012
     33          6           0      -21.775634   -1.308984    2.732349
     34          6           0      -21.580766   -0.646082    3.937282
     35          6           0      -21.547089    0.752006    3.665748
     36          6           0      -21.676791    0.878664    2.307681
     37          6           0      -21.535218   -1.203604    5.316203
     38          6           0      -21.444932    2.125943    4.207823
     39          8           0      -21.372624    2.582493    5.343025
     40          6           0      -21.424383    3.107368    2.911326
     41          6           0      -22.338893    4.262118    3.116273
     42          8           0      -23.444627    4.208981    3.732282
     43          8           0      -21.696723    5.342595    2.693212
     44          6           0      -22.219176    6.587001    3.224409
     45          1           0      -22.643782    1.909678   -3.868404
     46          1           0      -23.390898   -4.251355   -2.701607
     47          1           0      -21.796825   -3.367814    3.338943
     48          1           0      -22.282072    4.489854    0.296206
     49          1           0      -21.461293    3.816829   -2.530899
     50          1           0      -23.792960    5.059001   -1.712962
     51          1           0      -24.243763    3.418755   -2.252157
     52          1           0      -23.353536    4.291403   -3.321902
     53          1           0      -19.493980    3.808185   -0.638551
     54          1           0      -19.957743    4.578846    0.831384
     55          1           0      -21.073110    6.371197   -0.927425
     56          1           0      -19.618610    5.811144   -1.837011
     57          1           0      -23.238304    1.241473   -5.768114
     58          1           0      -24.307152    0.138996   -6.340736
     59          1           0      -22.604118   -0.142314   -6.633259
     60          1           0      -24.586629   -2.110623   -7.031063
     61          1           0      -24.164649   -3.679031   -7.342833
     62          1           0      -22.802133   -2.566045   -7.141721
     63          1           0      -22.492245   -5.758340   -0.816107
     64          1           0      -22.750007   -5.259829    1.983835
     65          1           0      -25.172928   -4.917881   -0.454324
     66          1           0      -24.781249   -5.505573    1.118657
     67          1           0      -24.642589   -6.526023   -0.304778
     68          1           0      -20.826008   -6.379056    0.966917
     69          1           0      -20.009622   -5.127358    1.887512
     70          1           0      -20.493133   -4.319314   -0.886280
     71          1           0      -19.185144   -5.539367   -0.643608
     72          1           0      -19.129682   -4.130541    0.305083
     73          1           0      -20.806455   -2.002779    5.453877
     74          1           0      -22.520783   -1.640578    5.474255
     75          1           0      -21.382110   -0.435545    6.073628
     76          1           0      -20.402838    3.486314    2.894569
     77          1           0      -21.397691    7.239150    3.523627
     78          1           0      -22.845377    6.508118    4.112767
     79          1           0      -22.765782    7.054041    2.404494
     80         12           0       21.672863   -0.736865    0.185595
     81          6           0       23.182109    1.907392   -1.740249
     82          6           0       19.903248    1.544206    1.865169
     83          6           0       21.031037   -3.121961    2.450573
     84          6           0       23.950879   -2.912844   -1.357137
     85          7           0       21.613194    1.435809    0.097651
     86          6           0       22.145199    2.305772   -0.869316
     87          6           0       21.528366    3.750835   -0.743346
     88          6           0       20.545148    3.592333    0.455706
     89          6           0       20.642909    2.083193    0.804035
     90          6           0       20.778048    4.466076    1.662077
     91          6           0       20.865950    4.273538   -2.127983
     92          6           0       21.353139    5.646093   -2.608492
     93          1           0       20.204548    6.708644   -2.779022
     94          7           0       20.491951   -0.813681    1.854558
     95          6           0       19.842789    0.214681    2.409758
     96          6           0       19.128286   -0.190018    3.621699
     97          6           0       19.551988   -1.548038    3.829541
     98          6           0       20.415002   -1.895233    2.695632
     99          6           0       18.250172    0.708539    4.381792
    100          6           0       19.202098   -2.380494    5.102888
    101          8           0       19.523402   -3.551429    5.217849
    102          6           0       18.432192   -1.815124    6.253530
    103          7           0       22.375101   -2.665899    0.472197
    104          6           0       21.845199   -3.515969    1.436960
    105          6           0       22.438273   -4.956822    1.301359
    106          6           0       23.090001   -4.930732   -0.131435
    107          6           0       23.102315   -3.426192   -0.400826
    108          6           0       23.322236   -5.495828    2.472894
    109          6           0       22.278054   -5.693596   -1.213774
    110          6           0       23.025636   -6.501355   -2.244483
    111          7           0       23.286492   -0.567864   -1.215304
    112          6           0       24.101322   -1.535574   -1.730623
    113          6           0       24.953313   -0.915675   -2.837268
    114          6           0       24.588889    0.407299   -2.905561
    115          6           0       23.625360    0.589248   -1.854956
    116          6           0       25.889876   -1.729943   -3.700555
    117          6           0       24.803232    1.694822   -3.541831
    118          8           0       25.608429    1.887778   -4.476672
    119          6           0       23.924211    2.810249   -2.715351
    120          6           0       24.746224    3.830610   -1.955940
    121          8           0       25.622920    3.469794   -1.145959
    122          8           0       24.528159    5.134036   -2.404208
    123          6           0       25.589866    6.045248   -1.993076
    124          1           0       19.215829    2.217334    2.381300
    125          1           0       20.717425   -3.854348    3.196926
    126          1           0       24.541559   -3.671612   -1.875554
    127          1           0       22.404276    4.359118   -0.518650
    128          1           0       19.600020    3.994865    0.088698
    129          1           0       21.663292    5.095768    1.572008
    130          1           0       21.061751    3.698694    2.381515
    131          1           0       19.936570    5.121201    1.889531
    132          1           0       19.800885    4.271390   -1.897859
    133          1           0       20.983664    3.502731   -2.889164
    134          1           0       21.921758    5.471118   -3.521812
    135          1           0       22.038931    6.060781   -1.868586
    136          1           0       18.430517    0.882570    5.442128
    137          1           0       17.317795    0.153544    4.479054
    138          1           0       17.932195    1.609495    3.856673
    139          1           0       17.465703   -1.533116    5.834113
    140          1           0       18.937700   -0.892726    6.540807
    141          1           0       18.423732   -2.596013    7.012921
    142          1           0       21.554431   -5.593612    1.262872
    143          1           0       24.136928   -5.233173   -0.127029
    144          1           0       23.225460   -4.736854    3.248895
    145          1           0       24.351900   -5.716355    2.192812
    146          1           0       22.872004   -6.359995    2.962936
    147          1           0       21.792100   -4.828223   -1.664006
    148          1           0       21.485697   -6.333736   -0.825303
    149          1           0       22.466448   -7.431413   -2.347140
    150          1           0       24.034672   -6.769432   -1.929644
    151          1           0       22.877472   -5.983373   -3.192349
    152          1           0       25.843161   -2.758106   -3.342131
    153          1           0       26.907570   -1.391644   -3.507022
    154          1           0       25.636700   -1.586353   -4.750782
    155          1           0       23.226645    3.277780   -3.410279
    156          1           0       26.229097    6.408693   -2.796485
    157          1           0       26.241061    5.648428   -1.214113
    158          1           0       25.091711    6.909302   -1.554107
 ---------------------------------------------------------------------

 SCF Done:  E(RCAM-B3LYP) =  -4069.80851059     A.U. after   19 cycles

 Excitation energies and oscillator strengths:

 Excited State   1:      Singlet-A      1.6980 eV  730.19 nm  f=0.4029  <S**2>=0.000
     309 -> 315       -0.17300
     312 -> 314        0.68813
     309 <- 315       -0.10780
 This state for optimization and/or second-order correction.
 Total Energy, E(TD-HF/TD-DFT) =  -4069.74611143
 Copying the excited state density for this state as the 1-particle RhoCI density.

 Excited State   2:      Singlet-A      1.7145 eV  723.16 nm  f=0.4056  <S**2>=0.000
     310 -> 316        0.16590
     311 -> 313        0.68877
     310 <- 316        0.10306

 Excited State   3:      Singlet-A      2.1453 eV  577.92 nm  f=0.1688  <S**2>=0.000
     310 -> 313        0.66339
     311 -> 316       -0.22680

 Excited State   4:      Singlet-A      2.2865 eV  542.24 nm  f=0.0917  <S**2>=0.000
     309 -> 314        0.63011
     312 -> 315        0.31285

 Excited State   5:      Singlet-A      2.8883 eV  429.27 nm  f=0.0000  <S**2>=0.000
     312 -> 313        0.70711

 The electronic state is 1-A.
 Alpha  occ. eigenvalues --  -46.89416 -46.88399 -19.26717 -19.26696 -19.20870
 Alpha  occ. eigenvalues --  -19.19945 -19.19144 -19.19084 -19.18564 -19.18488
 Alpha  occ. eigenvalues --  -14.42937 -14.42584 -14.41859 -14.41667 -14.39798
 Alpha  occ. eigenvalues --  -14.39701 -14.39385 -14.38059 -10.40853 -10.39273
 Alpha  occ. eigenvalues --  -10.36522 -10.35791 -10.34943 -10.34861 -10.32154
 Alpha  occ. eigenvalues --  -10.32054 -10.31761 -10.31610 -10.31125 -10.31050
 Alpha  occ. eigenvalues --  -10.30978 -10.30817 -10.30666 -10.30663 -10.30352
 Alpha  occ. eigenvalues --  -10.30138 -10.30131 -10.29972 -10.29799 -10.29799
 Alpha  occ. eigenvalues --  -10.29520 -10.29290 -10.29153 -10.29023 -10.28881
 Alpha  occ. eigenvalues --  -10.28580 -10.28560 -10.28347 -10.28340 -10.28285
 Alpha  occ. eigenvalues --  -10.28255 -10.28252 -10.28207 -10.28065 -10.27917
 Alpha  occ. eigenvalues --  -10.27900 -10.27824 -10.27799 -10.27738 -10.27735
 Alpha  occ. eigenvalues --  -10.27483 -10.27380 -10.27310 -10.27239 -10.27107
 Alpha  occ. eigenvalues --  -10.27096 -10.26961 -10.26536 -10.26524 -10.26521
 Alpha  occ. eigenvalues --  -10.26514 -10.26507 -10.26180 -10.26162 -10.26159
 Alpha  occ. eigenvalues --  -10.26159 -10.25938 -10.25738 -10.25700 -10.25548
 Alpha  occ. eigenvalues --  -10.25516 -10.25454 -10.25446 -10.25235 -10.24921
 Alpha  occ. eigenvalues --  -10.24308  -3.17804  -3.17051  -1.92713  -1.92229
 Alpha  occ. eigenvalues --   -1.92118  -1.91932  -1.91490  -1.91378  -1.18133
 Alpha  occ. eigenvalues --   -1.16361  -1.10127  -1.09060  -1.08831  -1.08405
 Alpha  occ. eigenvalues --   -1.07976  -1.05956  -1.05447  -1.04398  -1.03937
 Alpha  occ. eigenvalues --   -1.03373  -1.03315  -1.02662  -1.02494  -1.01901
 Alpha  occ. eigenvalues --   -0.92652  -0.91891  -0.89635  -0.89319  -0.89134
 Alpha  occ. eigenvalues --   -0.88764  -0.88440  -0.88051  -0.88022  -0.87347
 Alpha  occ. eigenvalues --   -0.87246  -0.87174  -0.86140  -0.85716  -0.84839
 Alpha  occ. eigenvalues --   -0.84306  -0.83798  -0.83680  -0.82945  -0.82737
 Alpha  occ. eigenvalues --   -0.81953  -0.81893  -0.81371  -0.81224  -0.80706
 Alpha  occ. eigenvalues --   -0.80250  -0.78917  -0.78450  -0.77627  -0.77621
 Alpha  occ. eigenvalues --   -0.77394  -0.76948  -0.76243  -0.76160  -0.75270
 Alpha  occ. eigenvalues --   -0.74724  -0.72785  -0.72468  -0.71784  -0.70990
 Alpha  occ. eigenvalues --   -0.69946  -0.69217  -0.69020  -0.68423  -0.68387
 Alpha  occ. eigenvalues --   -0.67933  -0.67719  -0.66736  -0.65568  -0.65358
 Alpha  occ. eigenvalues --   -0.65237  -0.65011  -0.64915  -0.64714  -0.64598
 Alpha  occ. eigenvalues --   -0.64372  -0.62776  -0.62612  -0.61052  -0.60308
 Alpha  occ. eigenvalues --   -0.59814  -0.59792  -0.59284  -0.58938  -0.58569
 Alpha  occ. eigenvalues --   -0.58543  -0.58352  -0.57647  -0.57338  -0.57263
 Alpha  occ. eigenvalues --   -0.56276  -0.56244  -0.56070  -0.55837  -0.55499
 Alpha  occ. eigenvalues --   -0.55448  -0.55354  -0.55135  -0.54943  -0.54432
 Alpha  occ. eigenvalues --   -0.53790  -0.53535  -0.53310  -0.53175  -0.53153
 Alpha  occ. eigenvalues --   -0.52963  -0.52619  -0.52571  -0.52476  -0.51851
 Alpha  occ. eigenvalues --   -0.51754  -0.51637  -0.51611  -0.51506  -0.51293
 Alpha  occ. eigenvalues --   -0.51154  -0.51014  -0.50844  -0.50600  -0.50486
 Alpha  occ. eigenvalues --   -0.50267  -0.50148  -0.49628  -0.49561  -0.49392
 Alpha  occ. eigenvalues --   -0.49176  -0.49144  -0.48890  -0.48810  -0.48644
 Alpha  occ. eigenvalues --   -0.48615  -0.48525  -0.48395  -0.48340  -0.48164
 Alpha  occ. eigenvalues --   -0.48139  -0.47973  -0.47276  -0.47256  -0.47236
 Alpha  occ. eigenvalues --   -0.47042  -0.46801  -0.46774  -0.46531  -0.46503
 Alpha  occ. eigenvalues --   -0.46420  -0.46040  -0.45997  -0.45966  -0.45891
 Alpha  occ. eigenvalues --   -0.45695  -0.45478  -0.45388  -0.45216  -0.44768
 Alpha  occ. eigenvalues --   -0.44589  -0.44491  -0.44347  -0.44319  -0.44161
 Alpha  occ. eigenvalues --   -0.44052  -0.43897  -0.43834  -0.43761  -0.43632
 Alpha  occ. eigenvalues --   -0.43454  -0.43242  -0.43218  -0.43016  -0.42913
 Alpha  occ. eigenvalues --   -0.42869  -0.42688  -0.42620  -0.42390  -0.42109
 Alpha  occ. eigenvalues --   -0.41804  -0.41744  -0.41724  -0.41474  -0.41272
 Alpha  occ. eigenvalues --   -0.41141  -0.40903  -0.40805  -0.40578  -0.40534
 Alpha  occ. eigenvalues --   -0.40197  -0.39646  -0.39520  -0.39287  -0.39152
 Alpha  occ. eigenvalues --   -0.38707  -0.38312  -0.37933  -0.37829  -0.37446
 Alpha  occ. eigenvalues --   -0.37434  -0.37344  -0.36955  -0.36614  -0.36437
 Alpha  occ. eigenvalues --   -0.36334  -0.36127  -0.35172  -0.34455  -0.34116
 Alpha  occ. eigenvalues --   -0.33987  -0.32941  -0.32904  -0.31986  -0.31570
 Alpha  occ. eigenvalues --   -0.31408  -0.31189  -0.30827  -0.30713  -0.30407
 Alpha  occ. eigenvalues --   -0.30140  -0.29799  -0.28545  -0.24188  -0.24104
 Alpha  occ. eigenvalues --   -0.21808  -0.20795
 Alpha virt. eigenvalues --   -0.09408  -0.08444  -0.01335  -0.01325  -0.00065
 Alpha virt. eigenvalues --   -0.00062   0.01757   0.01768   0.02310   0.02466
 Alpha virt. eigenvalues --    0.02786   0.04406   0.04515   0.04619   0.05525

 Mulliken charges:
               1
     1  Mg   0.807841
     2  C    0.045501
     3  C   -0.061125
     4  C   -0.047182
     5  C   -0.073290
     6  N   -0.322600
     7  C   -0.057797
     8  C    0.013225
     9  C   -0.034181
    10  C    0.074982
    11  C    0.092341
    12  C    0.063806
    13  C   -0.073671
    14  H    0.013769
    15  N   -0.299729
    16  C    0.075887
    17  C   -0.092480
    18  C   -0.003280
    19  C    0.074256
    20  C    0.096258
    21  C   -0.003929
    22  O   -0.229652
    23  C    0.052584
    24  N   -0.284286
    25  C    0.052207
    26  C   -0.096593
    27  C    0.025689
    28  C    0.020357
    29  C    0.057886
    30  C    0.029668
    31  C    0.003971
    32  N   -0.330809
    33  C    0.139906
    34  C   -0.184928
    35  C    0.005561
    36  C    0.046726
    37  C    0.122844
    38  C    0.080768
    39  O   -0.165196
    40  C   -0.062074
    41  C    0.199353
    42  O   -0.251053
    43  O   -0.299829
    44  C    0.166060
    45  H   -0.050021
    46  H   -0.001688
    47  H   -0.028086
    48  H    0.004725
    49  H    0.004231
    50  H    0.033371
    51  H    0.011601
    52  H    0.004361
    53  H   -0.001652
    54  H    0.022238
    55  H    0.025091
    56  H    0.040118
    57  H    0.004973
    58  H    0.026515
    59  H    0.032531
    60  H    0.022874
    61  H    0.017809
    62  H    0.042508
    63  H    0.018046
    64  H    0.003633
    65  H    0.022345
    66  H    0.011600
    67  H    0.017940
    68  H    0.004135
    69  H    0.005116
    70  H    0.037422
    71  H    0.019583
    72  H    0.011947
    73  H    0.013036
    74  H    0.020302
    75  H    0.033477
    76  H    0.052745
    77  H    0.035628
    78  H    0.061861
    79  H    0.031925
    80  Mg   0.838908
    81  C   -0.085746
    82  C   -0.073212
    83  C   -0.080464
    84  C   -0.091741
    85  N   -0.300380
    86  C   -0.058271
    87  C   -0.033064
    88  C   -0.060012
    89  C    0.087827
    90  C    0.072294
    91  C    0.046906
    92  C   -0.051499
    93  H    0.010837
    94  N   -0.369148
    95  C    0.094522
    96  C   -0.130020
    97  C   -0.034187
    98  C    0.097036
    99  C    0.117798
   100  C   -0.018377
   101  O   -0.206454
   102  C    0.074200
   103  N   -0.329467
   104  C    0.078664
   105  C   -0.014116
   106  C   -0.051159
   107  C    0.040962
   108  C    0.083597
   109  C    0.023104
   110  C    0.033907
   111  N   -0.304529
   112  C    0.131403
   113  C   -0.210475
   114  C    0.055747
   115  C    0.126745
   116  C    0.140652
   117  C    0.068205
   118  O   -0.187290
   119  C    0.029226
   120  C    0.231160
   121  O   -0.228375
   122  O   -0.337445
   123  C    0.158754
   124  H   -0.037802
   125  H   -0.010927
   126  H   -0.028610
   127  H    0.019779
   128  H    0.008360
   129  H    0.005499
   130  H    0.020682
   131  H    0.020450
   132  H    0.007907
   133  H    0.014254
   134  H    0.041813
   135  H    0.032832
   136  H    0.024590
   137  H    0.006549
   138  H    0.018685
   139  H    0.028774
   140  H    0.031868
   141  H    0.041586
   142  H    0.004089
   143  H    0.004876
   144  H    0.017583
   145  H    0.023643
   146  H    0.013201
   147  H    0.005345
   148  H    0.010952
   149  H    0.005695
   150  H    0.020930
   151  H    0.021813
   152  H    0.000839
   153  H    0.035334
   154  H    0.044336
   155  H    0.029859
   156  H    0.045616
   157  H    0.055295
   158  H    0.027283
 Sum of Mulliken charges =  -0.00000

 Dipole moment (field-independent basis, Debye):
    X=             -1.0343    Y=              2.2455    Z=             -5.5249  Tot=              6.0528
 Quadrupole moment (field-independent basis, Debye-Ang):
   XX=           -786.8091   YY=           -467.0502   ZZ=           -539.0689
   XY=            -22.7632   XZ=            145.3386   YZ=            -10.1116

 Normal termination of Gaussian 16 at Wed Sep 15 04:10:03 2021.
