 Gaussian 16, Revision A.03,
 Gaussian 16:  ES64L-G16RevA.03 25-Dec-2016

 -----------------------------------
 #p cam-b3lyp/Def2SVP td=(nstates=5)
 -----------------------------------

 --------------------------------
 TDDFT excited states in gaussian
 --------------------------------
 Symbolic Z-matrix:
 Charge =  0 Multiplicity = 1

                         Standard orientation:
 ---------------------------------------------------------------------
 Center     Atomic      Atomic             Coordinates (Angstroms)
 Number     Number       Type             X           Y           Z
 ---------------------------------------------------------------------
      1         12           0       13.934675   -0.062321    0.221190
      2          6           0       11.426140   -0.960577   -2.048538
      3          6           0       14.219853    2.861515   -1.603784
      4          6           0       16.085046    1.036235    2.525768
      5          6           0       12.899627   -2.634895    2.349786
      6          7           0       12.696212    0.930924   -1.613911
      7          6           0       11.820595    0.295312   -2.415887
      8          6           0       11.339736    1.137667   -3.572969
      9          6           0       12.499736    2.203261   -3.514315
     10          6           0       13.180440    2.066439   -2.156280
     11          6           0       13.547483    1.906938   -4.620304
     12          6           0        9.881025    1.571207   -3.380144
     13          6           0        9.383312    1.990201   -1.981142
     14          1           0        8.608387    3.300886   -1.914230
     15          7           0       15.000856    1.670884    0.430984
     16          6           0       15.058251    2.680669   -0.492682
     17          6           0       16.267750    3.477914   -0.250534
     18          6           0       16.770774    3.079244    1.052112
     19          6           0       15.946205    1.872935    1.367285
     20          6           0       16.628623    4.759749   -1.094555
     21          6           0       17.879477    3.761074    1.857689
     22          8           0       18.528896    4.646484    1.374924
     23          6           0       18.194481    3.291794    3.248740
     24          7           0       14.244968   -0.636605    2.294705
     25          6           0       15.301017   -0.096171    3.051697
     26          6           0       15.485361   -0.811478    4.456561
     27          6           0       14.464264   -2.038945    4.317704
     28          6           0       13.843858   -1.789562    2.867244
     29          6           0       16.950946   -1.243613    4.963640
     30          6           0       13.362905   -2.213601    5.460283
     31          6           0       13.042333   -3.770572    5.703350
     32          7           0       12.497803   -1.579642    0.196929
     33          6           0       12.262651   -2.600651    1.095171
     34          6           0       11.256046   -3.499668    0.544002
     35          6           0       10.904098   -2.979662   -0.728272
     36          6           0       11.641281   -1.748105   -0.862317
     37          6           0       10.820802   -4.821349    1.120721
     38          6           0       10.031124   -3.067257   -1.944029
     39          8           0        9.123892   -3.826345   -2.202522
     40          6           0       10.409068   -1.796527   -2.817702
     41          6           0       10.951024   -2.317613   -4.120321
     42          8           0       10.235231   -2.773870   -5.046750
     43          8           0       12.315707   -2.076624   -4.186131
     44          6           0       12.919057   -2.309517   -5.455675
     45          1           0       14.376295    3.742804   -2.229469
     46          1           0       16.889938    1.178913    3.250132
     47          1           0       12.730697   -3.542131    2.933821
     48          1           0       11.468662    0.625410   -4.526236
     49          1           0       12.233703    3.253579   -3.625340
     50          1           0       14.510225    2.204835   -4.204282
     51          1           0       13.265269    2.390572   -5.554413
     52          1           0       13.775164    0.870917   -4.873112
     53          1           0        9.282321    0.690481   -3.610420
     54          1           0        9.667679    2.365484   -4.095584
     55          1           0       10.244678    2.130527   -1.328571
     56          1           0        8.699162    1.221721   -1.622462
     57          1           0       16.050390    5.651446   -0.850908
     58          1           0       16.513699    4.540474   -2.156122
     59          1           0       17.673806    5.066395   -1.076135
     60          1           0       18.891473    3.959225    3.756583
     61          1           0       18.609456    2.284110    3.278226
     62          1           0       17.238293    3.436970    3.752161
     63          1           0       15.081486   -0.033848    5.103759
     64          1           0       14.999075   -2.985997    4.251833
     65          1           0       17.354952   -0.402359    5.525614
     66          1           0       17.603146   -1.500480    4.129380
     67          1           0       16.850997   -2.134206    5.584426
     68          1           0       12.398313   -1.822093    5.137395
     69          1           0       13.659300   -1.698017    6.374086
     70          1           0       11.996634   -3.992055    5.489514
     71          1           0       13.242762   -4.022648    6.744277
     72          1           0       13.523141   -4.514963    5.069616
     73          1           0       10.420521   -4.644835    2.118505
     74          1           0       11.681790   -5.484934    1.203888
     75          1           0       10.025166   -5.286431    0.538919
     76          1           0        9.444381   -1.348777   -3.055409
     77          1           0       13.962652   -1.997848   -5.418972
     78          1           0       12.331283   -1.866565   -6.259861
     79          1           0       13.021890   -3.373064   -5.670901
     80         12           0      -13.508215    0.991994    0.024711
     81          6           0      -13.536029   -2.531996   -0.328458
     82          6           0      -10.023796    0.733844   -0.079133
     83          6           0      -13.300168    4.261858    0.235051
     84          6           0      -16.869791    0.903620    0.908973
     85          7           0      -12.010244   -0.716803   -0.214289
     86          6           0      -12.245357   -2.030264   -0.487549
     87          6           0      -10.999536   -2.916531   -0.657434
     88          6           0       -9.884752   -1.773464   -0.435124
     89          6           0      -10.709452   -0.539235   -0.218938
     90          6           0       -8.945146   -2.014374    0.811980
     91          6           0      -10.912675   -3.586072   -2.067681
     92          6           0      -11.049946   -5.081778   -2.324211
     93          1           0      -10.239837   -5.774950   -3.411746
     94          7           0      -11.901115    2.354176   -0.002466
     95          6           0      -10.531599    2.053506    0.021854
     96          6           0       -9.818507    3.302406    0.171233
     97          6           0      -10.730950    4.352332    0.102476
     98          6           0      -12.042245    3.676915    0.050915
     99          6           0       -8.328646    3.278852    0.129691
    100          6           0      -10.540565    5.866290    0.188329
    101          8           0      -11.456923    6.692815    0.145776
    102          6           0       -9.150843    6.369348    0.180125
    103          7           0      -14.842532    2.407755    0.602231
    104          6           0      -14.614394    3.742808    0.414250
    105          6           0      -15.955974    4.551149    0.426631
    106          6           0      -16.996406    3.481939    0.733794
    107          6           0      -16.185288    2.159885    0.829639
    108          6           0      -15.934977    5.783340    1.389157
    109          6           0      -18.065305    3.469262   -0.369581
    110          6           0      -19.492549    3.370600    0.030251
    111          7           0      -14.933421   -0.476475    0.359164
    112          6           0      -16.262584   -0.374402    0.683528
    113          6           0      -16.889744   -1.661359    0.729399
    114          6           0      -15.880942   -2.622677    0.229564
    115          6           0      -14.702776   -1.803653    0.017658
    116          6           0      -18.341439   -1.941111    1.154443
    117          6           0      -15.563623   -4.031145   -0.116483
    118          8           0      -16.307899   -5.022310   -0.205983
    119          6           0      -14.025631   -4.000271   -0.494854
    120          6           0      -13.492856   -4.971052    0.512170
    121          8           0      -13.136122   -4.756313    1.664298
    122          8           0      -13.315335   -6.146462   -0.026126
    123          6           0      -12.949606   -7.300480    0.830660
    124          1           0       -8.971914    0.521592   -0.279863
    125          1           0      -13.372221    5.343853    0.361130
    126          1           0      -17.941097    0.904038    1.118803
    127          1           0      -10.985094   -3.626943    0.170078
    128          1           0       -9.225846   -1.525469   -1.267832
    129          1           0       -9.274365   -2.747496    1.547846
    130          1           0       -8.819431   -1.084120    1.364879
    131          1           0       -7.965392   -2.323181    0.447077
    132          1           0       -9.929521   -3.333047   -2.464859
    133          1           0      -11.673015   -3.171804   -2.728551
    134          1           0      -12.070114   -5.120070   -2.706449
    135          1           0      -10.888004   -5.490137   -1.326603
    136          1           0       -7.936267    3.843223   -0.715132
    137          1           0       -7.954003    2.258311    0.046750
    138          1           0       -7.866009    3.716084    1.013986
    139          1           0       -8.602152    5.907231   -0.640636
    140          1           0       -8.576107    6.020049    1.038015
    141          1           0       -9.062025    7.444804    0.029830
    142          1           0      -15.999240    4.913614   -0.600297
    143          1           0      -17.546622    3.718181    1.644441
    144          1           0      -14.951869    6.015243    1.798554
    145          1           0      -16.587180    5.676223    2.255117
    146          1           0      -16.398746    6.639669    0.899767
    147          1           0      -17.789536    2.589593   -0.949761
    148          1           0      -18.071284    4.352363   -1.008008
    149          1           0      -19.868257    2.503975   -0.513214
    150          1           0      -20.002367    4.316047   -0.154736
    151          1           0      -19.660040    3.100818    1.073195
    152          1           0      -18.365431   -2.133372    2.226451
    153          1           0      -18.707307   -2.790413    0.577644
    154          1           0      -18.991293   -1.080978    0.991843
    155          1           0      -13.945307   -4.403007   -1.504370
    156          1           0      -12.003493   -7.179787    1.357163
    157          1           0      -12.923381   -8.255076    0.305520
    158          1           0      -13.649529   -7.566014    1.622345
 ---------------------------------------------------------------------

 SCF Done:  E(RCAM-B3LYP) =  -4069.79847818     A.U. after   17 cycles

 Excitation energies and oscillator strengths:

 Excited State   1:      Singlet-A      1.7470 eV  709.69 nm  f=0.3899  <S**2>=0.000
     309 -> 315        0.19392
     311 -> 313        0.68003
     309 <- 315        0.10936
 This state for optimization and/or second-order correction.
 Total Energy, E(TD-HF/TD-DFT) =  -4069.73427620
 Copying the excited state density for this state as the 1-particle RhoCI density.

 Excited State   2:      Singlet-A      1.7575 eV  705.47 nm  f=0.3504  <S**2>=0.000
     310 -> 316       -0.18320
     312 -> 314        0.68309
     310 <- 316       -0.10460

 Excited State   3:      Singlet-A      2.2203 eV  558.40 nm  f=0.1068  <S**2>=0.000
     310 -> 314        0.63626
     312 -> 316        0.29376

 Excited State   4:      Singlet-A      2.2375 eV  554.12 nm  f=0.1036  <S**2>=0.000
     309 -> 313        0.63520
     311 -> 315       -0.29912

 Excited State   5:      Singlet-A      3.0291 eV  409.31 nm  f=0.0000  <S**2>=0.000
     312 -> 313        0.70707

 The electronic state is 1-A.
 Alpha  occ. eigenvalues --  -46.90487 -46.88449 -19.26135 -19.25220 -19.20111
 Alpha  occ. eigenvalues --  -19.19645 -19.19509 -19.19120 -19.18795 -19.18106
 Alpha  occ. eigenvalues --  -14.42502 -14.42349 -14.41905 -14.41827 -14.40613
 Alpha  occ. eigenvalues --  -14.39745 -14.39567 -14.38909 -10.40073 -10.38564
 Alpha  occ. eigenvalues --  -10.35902 -10.35887 -10.35385 -10.35364 -10.32920
 Alpha  occ. eigenvalues --  -10.32070 -10.31921 -10.31861 -10.31562 -10.31322
 Alpha  occ. eigenvalues --  -10.31223 -10.31032 -10.30942 -10.30839 -10.30674
 Alpha  occ. eigenvalues --  -10.30668 -10.30441 -10.30304 -10.29967 -10.29671
 Alpha  occ. eigenvalues --  -10.29638 -10.29357 -10.29350 -10.29039 -10.28942
 Alpha  occ. eigenvalues --  -10.28783 -10.28689 -10.28661 -10.28638 -10.28625
 Alpha  occ. eigenvalues --  -10.28544 -10.28541 -10.28490 -10.28293 -10.28157
 Alpha  occ. eigenvalues --  -10.28082 -10.28003 -10.27957 -10.27952 -10.27886
 Alpha  occ. eigenvalues --  -10.27884 -10.27869 -10.27821 -10.27810 -10.27798
 Alpha  occ. eigenvalues --  -10.27634 -10.27432 -10.26990 -10.26984 -10.26917
 Alpha  occ. eigenvalues --  -10.26522 -10.26420 -10.26398 -10.26377 -10.26340
 Alpha  occ. eigenvalues --  -10.26331 -10.26296 -10.26265 -10.26038 -10.25980
 Alpha  occ. eigenvalues --  -10.25794 -10.25748 -10.25612 -10.25573 -10.25162
 Alpha  occ. eigenvalues --  -10.24805  -3.18849  -3.17046  -1.93712  -1.93324
 Alpha  occ. eigenvalues --   -1.93139  -1.91947  -1.91503  -1.91350  -1.17713
 Alpha  occ. eigenvalues --   -1.16552  -1.11585  -1.10758  -1.10011  -1.08311
 Alpha  occ. eigenvalues --   -1.07148  -1.06405  -1.05391  -1.04880  -1.03978
 Alpha  occ. eigenvalues --   -1.03932  -1.03053  -1.02704  -1.01987  -1.01284
 Alpha  occ. eigenvalues --   -0.92609  -0.91765  -0.89507  -0.89122  -0.88964
 Alpha  occ. eigenvalues --   -0.88703  -0.88428  -0.87823  -0.87637  -0.87436
 Alpha  occ. eigenvalues --   -0.86684  -0.86141  -0.85752  -0.85032  -0.84946
 Alpha  occ. eigenvalues --   -0.84261  -0.83438  -0.83407  -0.82805  -0.82794
 Alpha  occ. eigenvalues --   -0.82619  -0.81966  -0.80899  -0.80749  -0.80460
 Alpha  occ. eigenvalues --   -0.80439  -0.78694  -0.77626  -0.77423  -0.77380
 Alpha  occ. eigenvalues --   -0.76802  -0.76783  -0.76508  -0.76118  -0.75414
 Alpha  occ. eigenvalues --   -0.75082  -0.72905  -0.72152  -0.72150  -0.71736
 Alpha  occ. eigenvalues --   -0.70024  -0.69498  -0.69145  -0.68316  -0.68135
 Alpha  occ. eigenvalues --   -0.67531  -0.67248  -0.66848  -0.65984  -0.65779
 Alpha  occ. eigenvalues --   -0.65213  -0.64996  -0.64930  -0.64787  -0.64724
 Alpha  occ. eigenvalues --   -0.64123  -0.63812  -0.62324  -0.60871  -0.60120
 Alpha  occ. eigenvalues --   -0.59427  -0.59367  -0.59052  -0.58905  -0.58418
 Alpha  occ. eigenvalues --   -0.58269  -0.57892  -0.57768  -0.57563  -0.57440
 Alpha  occ. eigenvalues --   -0.56622  -0.56385  -0.56184  -0.55584  -0.55561
 Alpha  occ. eigenvalues --   -0.55163  -0.54893  -0.54394  -0.54237  -0.54098
 Alpha  occ. eigenvalues --   -0.53762  -0.53758  -0.53477  -0.53306  -0.53144
 Alpha  occ. eigenvalues --   -0.52880  -0.52843  -0.52561  -0.52481  -0.52060
 Alpha  occ. eigenvalues --   -0.52032  -0.51726  -0.51528  -0.51345  -0.51180
 Alpha  occ. eigenvalues --   -0.50791  -0.50640  -0.50505  -0.50373  -0.50138
 Alpha  occ. eigenvalues --   -0.50027  -0.49952  -0.49812  -0.49804  -0.49664
 Alpha  occ. eigenvalues --   -0.49639  -0.49327  -0.49030  -0.48979  -0.48774
 Alpha  occ. eigenvalues --   -0.48638  -0.48468  -0.48416  -0.48105  -0.47956
 Alpha  occ. eigenvalues --   -0.47735  -0.47666  -0.47405  -0.47353  -0.47324
 Alpha  occ. eigenvalues --   -0.47038  -0.46759  -0.46542  -0.46409  -0.46241
 Alpha  occ. eigenvalues --   -0.46179  -0.46018  -0.45778  -0.45762  -0.45660
 Alpha  occ. eigenvalues --   -0.45499  -0.45418  -0.45366  -0.45295  -0.45089
 Alpha  occ. eigenvalues --   -0.44980  -0.44953  -0.44582  -0.44343  -0.44277
 Alpha  occ. eigenvalues --   -0.44180  -0.44042  -0.43955  -0.43950  -0.43734
 Alpha  occ. eigenvalues --   -0.43472  -0.43352  -0.43115  -0.43076  -0.42980
 Alpha  occ. eigenvalues --   -0.42883  -0.42729  -0.42342  -0.42317  -0.42307
 Alpha  occ. eigenvalues --   -0.42094  -0.41828  -0.41822  -0.41566  -0.41338
 Alpha  occ. eigenvalues --   -0.41322  -0.41150  -0.40753  -0.40481  -0.40357
 Alpha  occ. eigenvalues --   -0.40009  -0.39975  -0.39774  -0.39424  -0.39183
 Alpha  occ. eigenvalues --   -0.39049  -0.38362  -0.38214  -0.37844  -0.37389
 Alpha  occ. eigenvalues --   -0.37286  -0.37160  -0.36881  -0.36551  -0.36417
 Alpha  occ. eigenvalues --   -0.36299  -0.35758  -0.34785  -0.34490  -0.34374
 Alpha  occ. eigenvalues --   -0.33362  -0.33250  -0.33013  -0.31845  -0.31707
 Alpha  occ. eigenvalues --   -0.31464  -0.31292  -0.31003  -0.30698  -0.30526
 Alpha  occ. eigenvalues --   -0.30237  -0.29826  -0.28640  -0.24127  -0.23839
 Alpha  occ. eigenvalues --   -0.21487  -0.21104
 Alpha virt. eigenvalues --   -0.08727  -0.08444  -0.02170  -0.01786  -0.00117
 Alpha virt. eigenvalues --    0.00000   0.00678   0.01914   0.02151   0.02769
 Alpha virt. eigenvalues --    0.04334   0.05339   0.05396   0.05794   0.05852

 Mulliken charges:
               1
     1  Mg   0.821428
     2  C    0.141410
     3  C   -0.072471
     4  C   -0.088121
     5  C   -0.079402
     6  N   -0.220311
     7  C   -0.143162
     8  C    0.066484
     9  C   -0.054812
    10  C   -0.010666
    11  C    0.063565
    12  C    0.064077
    13  C   -0.078416
    14  H    0.015108
    15  N   -0.372615
    16  C    0.163269
    17  C   -0.137118
    18  C   -0.058457
    19  C    0.190600
    20  C    0.093513
    21  C   -0.010291
    22  O   -0.168167
    23  C    0.051814
    24  N   -0.300615
    25  C   -0.020989
    26  C   -0.011965
    27  C   -0.040248
    28  C    0.044975
    29  C    0.055021
    30  C    0.036438
    31  C   -0.036878
    32  N   -0.352628
    33  C    0.125087
    34  C   -0.196627
    35  C    0.022458
    36  C    0.045427
    37  C    0.117958
    38  C    0.063938
    39  O   -0.137651
    40  C   -0.139029
    41  C    0.228338
    42  O   -0.237596
    43  O   -0.322868
    44  C    0.183426
    45  H   -0.018123
    46  H   -0.048306
    47  H   -0.045641
    48  H    0.002319
    49  H   -0.000496
    50  H    0.003945
    51  H    0.026701
    52  H    0.004946
    53  H    0.012958
    54  H    0.020263
    55  H    0.050848
    56  H    0.037272
    57  H    0.040194
    58  H    0.005525
    59  H    0.031987
    60  H    0.019483
    61  H    0.059944
    62  H    0.032433
    63  H    0.026055
    64  H    0.015739
    65  H    0.028324
    66  H    0.026023
    67  H    0.028440
    68  H    0.025423
    69  H    0.019074
    70  H    0.017133
    71  H    0.020802
    72  H    0.021803
    73  H    0.015649
    74  H    0.029930
    75  H    0.034078
    76  H    0.055533
    77  H    0.031346
    78  H    0.037660
    79  H    0.027503
    80  Mg   0.832063
    81  C    0.053286
    82  C   -0.081987
    83  C   -0.070584
    84  C   -0.080728
    85  N   -0.209744
    86  C   -0.071872
    87  C    0.011134
    88  C   -0.072320
    89  C   -0.024583
    90  C    0.046609
    91  C    0.028408
    92  C   -0.068449
    93  H    0.028422
    94  N   -0.362210
    95  C    0.170236
    96  C   -0.116402
    97  C   -0.038055
    98  C    0.148238
    99  C    0.098472
   100  C    0.036598
   101  O   -0.201021
   102  C    0.053966
   103  N   -0.348561
   104  C   -0.000948
   105  C   -0.010952
   106  C   -0.014541
   107  C    0.090615
   108  C    0.059000
   109  C    0.000470
   110  C    0.009620
   111  N   -0.370096
   112  C    0.134146
   113  C   -0.185341
   114  C   -0.007984
   115  C    0.094252
   116  C    0.119456
   117  C    0.044266
   118  O   -0.191289
   119  C   -0.048528
   120  C    0.168019
   121  O   -0.239976
   122  O   -0.278975
   123  C    0.189709
   124  H   -0.019846
   125  H   -0.008777
   126  H   -0.032383
   127  H    0.036475
   128  H    0.020518
   129  H    0.030071
   130  H    0.017406
   131  H    0.015168
   132  H    0.015105
   133  H    0.008375
   134  H    0.040596
   135  H    0.030044
   136  H    0.032576
   137  H    0.011076
   138  H    0.024898
   139  H    0.019612
   140  H    0.028253
   141  H    0.034348
   142  H    0.027642
   143  H    0.006805
   144  H    0.037033
   145  H    0.003231
   146  H    0.012601
   147  H    0.013065
   148  H    0.007106
   149  H    0.015184
   150  H    0.020789
   151  H    0.005555
   152  H    0.033261
   153  H    0.038336
   154  H    0.005014
   155  H    0.046568
   156  H    0.033397
   157  H    0.033857
   158  H    0.035202
 Sum of Mulliken charges =  -0.00000

 Dipole moment (field-independent basis, Debye):
    X=              8.6873    Y=              2.4294    Z=              1.4585  Tot=              9.1377
 Quadrupole moment (field-independent basis, Debye-Ang):
   XX=           -512.0586   YY=           -542.5704   ZZ=           -491.7801
   XY=            -79.4278   XZ=             42.3280   YZ=            -25.5228

 Normal termination of Gaussian 16 at Thu Sep  2 03:03:48 2021.
