 Gaussian 16, Revision A.03,
 Gaussian 16:  ES64L-G16RevA.03 25-Dec-2016

 -----------------------------------
 #p cam-b3lyp/Def2SVP td=(nstates=5)
 -----------------------------------

 --------------------------------
 TDDFT excited states in gaussian
 --------------------------------
 Symbolic Z-matrix:
 Charge =  0 Multiplicity = 1

                         Standard orientation:
 ---------------------------------------------------------------------
 Center     Atomic      Atomic             Coordinates (Angstroms)
 Number     Number       Type             X           Y           Z
 ---------------------------------------------------------------------
      1         12           0       32.068356    0.007907   -0.302127
      2          6           0       29.754872   -0.976817    2.165870
      3          6           0       32.847560    2.726877    1.576900
      4          6           0       34.188916    0.967739   -2.756081
      5          6           0       30.883986   -2.543704   -2.338076
      6          7           0       31.326108    0.830382    1.567881
      7          6           0       30.460004    0.200766    2.465998
      8          6           0       30.434237    0.968863    3.753219
      9          6           0       31.019859    2.338703    3.335658
     10          6           0       31.797560    1.938202    2.055514
     11          6           0       30.011314    3.482483    3.000409
     12          6           0       31.203343    0.312668    4.961043
     13          6           0       30.435938    0.289693    6.244542
     14          1           0       31.203363    0.708404    7.512504
     15          7           0       33.378549    1.533601   -0.482142
     16          6           0       33.642689    2.543232    0.458295
     17          6           0       34.676730    3.378457   -0.007657
     18          6           0       35.123380    2.880131   -1.320860
     19          6           0       34.253389    1.764177   -1.560248
     20          6           0       35.142197    4.646744    0.645881
     21          6           0       36.197579    3.412425   -2.365680
     22          8           0       36.413664    2.813853   -3.392674
     23          6           0       37.055408    4.630880   -2.055732
     24          7           0       32.395039   -0.630930   -2.314744
     25          6           0       33.322200   -0.043477   -3.114600
     26          6           0       33.325627   -0.738541   -4.559326
     27          6           0       32.475356   -2.061791   -4.318161
     28          6           0       31.859357   -1.741323   -2.890069
     29          6           0       32.758136    0.107719   -5.732321
     30          6           0       33.322310   -3.383991   -4.328553
     31          6           0       32.765457   -4.370467   -5.266888
     32          7           0       30.591891   -1.435871   -0.167431
     33          6           0       30.296688   -2.482753   -1.039366
     34          6           0       29.279143   -3.322068   -0.467692
     35          6           0       29.022066   -2.755213    0.763957
     36          6           0       29.823837   -1.669526    0.925250
     37          6           0       28.764989   -4.605910   -1.169797
     38          6           0       28.204633   -2.853699    1.959210
     39          8           0       27.276396   -3.603321    2.168297
     40          6           0       28.645270   -1.653489    2.935834
     41          6           0       27.474448   -0.796837    3.198869
     42          8           0       26.804087   -0.212059    2.307942
     43          8           0       27.238615   -0.792035    4.542438
     44          6           0       25.890001   -0.296778    4.925819
     45          1           0       33.014822    3.598093    2.213599
     46          1           0       34.831360    1.216423   -3.603159
     47          1           0       30.474029   -3.294653   -3.015908
     48          1           0       29.431160    1.219615    4.100384
     49          1           0       31.679938    2.776397    4.084735
     50          1           0       29.097764    3.455235    3.595805
     51          1           0       29.787758    3.404432    1.936125
     52          1           0       30.409807    4.495437    3.051186
     53          1           0       32.133833    0.874596    5.039544
     54          1           0       31.536449   -0.697919    4.722909
     55          1           0       30.111502   -0.750640    6.272777
     56          1           0       29.618357    1.008670    6.193905
     57          1           0       36.115113    4.596746    1.135290
     58          1           0       34.470268    4.891303    1.467574
     59          1           0       35.196946    5.551172    0.040577
     60          1           0       37.788902    4.683371   -2.859368
     61          1           0       37.449109    4.597699   -1.039437
     62          1           0       36.417944    5.506411   -1.929074
     63          1           0       34.351521   -0.914914   -4.883055
     64          1           0       31.685982   -2.102241   -5.070207
     65          1           0       32.331646    1.076665   -5.470727
     66          1           0       31.968832   -0.402433   -6.285011
     67          1           0       33.584357    0.273621   -6.424163
     68          1           0       33.268926   -3.836913   -3.337845
     69          1           0       34.362736   -3.254657   -4.625984
     70          1           0       33.345641   -4.336465   -6.189397
     71          1           0       31.700272   -4.344785   -5.493980
     72          1           0       32.826496   -5.364099   -4.822824
     73          1           0       29.475320   -4.892257   -1.945750
     74          1           0       27.726124   -4.500831   -1.485891
     75          1           0       28.828069   -5.371809   -0.397699
     76          1           0       29.048952   -2.028513    3.876654
     77          1           0       25.721370   -0.446945    5.992045
     78          1           0       25.193026   -0.979575    4.439416
     79          1           0       25.819487    0.730219    4.566390
     80         12           0      -32.013311    0.508405    0.145426
     81          6           0      -29.295619   -1.612595   -0.369419
     82          6           0      -30.265416    3.053130   -1.388787
     83          6           0      -34.719930    2.296931    0.639074
     84          6           0      -34.062238   -2.448219    0.730932
     85          7           0      -29.894704    0.663451   -0.740061
     86          6           0      -28.968676   -0.332822   -0.872488
     87          6           0      -27.711812    0.185910   -1.475769
     88          6           0      -28.049095    1.686040   -1.842640
     89          6           0      -29.518075    1.867129   -1.293893
     90          6           0      -26.988038    2.719070   -1.386731
     91          6           0      -27.256924   -0.620541   -2.716393
     92          6           0      -25.798052   -1.051902   -2.576832
     93          1           0      -24.828496   -0.697719   -3.744531
     94          7           0      -32.421744    2.435437   -0.288354
     95          6           0      -31.572539    3.366431   -0.884698
     96          6           0      -32.306466    4.625239   -0.870927
     97          6           0      -33.623526    4.440954   -0.240437
     98          6           0      -33.630327    2.995724    0.150123
     99          6           0      -31.839600    5.809732   -1.557114
    100          6           0      -34.650044    5.496649   -0.236738
    101          8           0      -34.482832    6.613201   -0.680902
    102          6           0      -36.051049    5.290623    0.223266
    103          7           0      -34.018645   -0.014119    0.557208
    104          6           0      -34.879403    0.960550    0.994443
    105          6           0      -36.214072    0.349107    1.365138
    106          6           0      -36.107248   -1.059595    0.914171
    107          6           0      -34.690921   -1.203173    0.651531
    108          6           0      -36.662416    0.573755    2.867249
    109          6           0      -36.844494   -1.331423   -0.441921
    110          6           0      -37.371448   -2.676702   -0.642768
    111          7           0      -31.775482   -1.625398    0.215316
    112          6           0      -32.651130   -2.674820    0.523301
    113          6           0      -31.892794   -3.868407    0.731026
    114          6           0      -30.595809   -3.533651    0.360220
    115          6           0      -30.572329   -2.137388    0.006593
    116          6           0      -32.479028   -5.154589    1.183641
    117          6           0      -29.299084   -4.047243    0.161919
    118          8           0      -28.871878   -5.168865    0.321570
    119          6           0      -28.411309   -2.852333   -0.251664
    120          6           0      -27.292834   -2.734026    0.697270
    121          8           0      -27.320751   -2.118404    1.776266
    122          8           0      -26.255886   -3.541195    0.288993
    123          6           0      -24.990332   -3.527854    1.004510
    124          1           0      -29.631450    3.825879   -1.827307
    125          1           0      -35.699837    2.753901    0.798208
    126          1           0      -34.709833   -3.302796    0.937857
    127          1           0      -27.040731    0.310906   -0.625522
    128          1           0      -28.091498    1.873011   -2.915207
    129          1           0      -26.110813    2.092052   -1.222749
    130          1           0      -27.258841    3.360488   -0.548005
    131          1           0      -26.762915    3.403246   -2.204489
    132          1           0      -27.243565   -0.043584   -3.640895
    133          1           0      -27.937360   -1.468451   -2.792730
    134          1           0      -25.930406   -2.132066   -2.636917
    135          1           0      -25.461801   -0.737882   -1.589790
    136          1           0      -30.861567    5.587245   -1.984323
    137          1           0      -31.649261    6.681597   -0.930518
    138          1           0      -32.519377    6.042463   -2.377527
    139          1           0      -35.848592    4.783676    1.166743
    140          1           0      -36.554952    4.628580   -0.481418
    141          1           0      -36.560993    6.241717    0.378010
    142          1           0      -36.919220    0.922618    0.764640
    143          1           0      -36.313182   -1.845080    1.641364
    144          1           0      -36.012476    1.300386    3.355139
    145          1           0      -36.818553   -0.339614    3.442314
    146          1           0      -37.599808    1.121995    2.957022
    147          1           0      -36.181344   -1.071935   -1.267238
    148          1           0      -37.701640   -0.667419   -0.552612
    149          1           0      -38.371253   -2.726653   -0.210129
    150          1           0      -36.713036   -3.444569   -0.235255
    151          1           0      -37.621091   -2.818798   -1.694733
    152          1           0      -33.253740   -4.992451    1.932942
    153          1           0      -31.744064   -5.872009    1.549011
    154          1           0      -33.016413   -5.511858    0.305139
    155          1           0      -27.868458   -3.028916   -1.180324
    156          1           0      -24.933565   -3.989619    1.990288
    157          1           0      -24.614135   -2.506430    1.057959
    158          1           0      -24.340268   -4.156189    0.396779
 ---------------------------------------------------------------------

 SCF Done:  E(RCAM-B3LYP) =  -4069.80397681     A.U. after   18 cycles

 Excitation energies and oscillator strengths:

 Excited State   1:      Singlet-A      1.6751 eV  740.15 nm  f=0.3669  <S**2>=0.000
     309 -> 315        0.18827
     311 -> 313        0.68340
     309 <- 315        0.11090
 This state for optimization and/or second-order correction.
 Total Energy, E(TD-HF/TD-DFT) =  -4069.74241737
 Copying the excited state density for this state as the 1-particle RhoCI density.

 Excited State   2:      Singlet-A      1.7437 eV  711.03 nm  f=0.3963  <S**2>=0.000
     310 -> 316       -0.17844
     312 -> 314        0.68462
     310 <- 316       -0.10698

 Excited State   3:      Singlet-A      2.1859 eV  567.20 nm  f=0.1028  <S**2>=0.000
     309 -> 313        0.63557
     311 -> 315       -0.29758

 Excited State   4:      Singlet-A      2.2018 eV  563.10 nm  f=0.1592  <S**2>=0.000
     310 -> 314        0.65403
     312 -> 316        0.24988

 Excited State   5:      Singlet-A      3.2175 eV  385.34 nm  f=0.0000  <S**2>=0.000
     312 -> 313        0.70711

 The electronic state is 1-A.
 Alpha  occ. eigenvalues --  -46.88948 -46.87183 -19.25665 -19.24874 -19.19889
 Alpha  occ. eigenvalues --  -19.19519 -19.19369 -19.19040 -19.18361 -19.17385
 Alpha  occ. eigenvalues --  -14.42331 -14.42065 -14.41935 -14.41505 -14.40272
 Alpha  occ. eigenvalues --  -14.39291 -14.39173 -14.38557 -10.39434 -10.39095
 Alpha  occ. eigenvalues --  -10.36344 -10.35041 -10.34214 -10.33709 -10.32184
 Alpha  occ. eigenvalues --  -10.31682 -10.31625 -10.31577 -10.31574 -10.31067
 Alpha  occ. eigenvalues --  -10.31055 -10.31051 -10.30631 -10.30623 -10.30622
 Alpha  occ. eigenvalues --  -10.30478 -10.30440 -10.29922 -10.29871 -10.29101
 Alpha  occ. eigenvalues --  -10.29097 -10.28989 -10.28943 -10.28671 -10.28559
 Alpha  occ. eigenvalues --  -10.28551 -10.28376 -10.28321 -10.28223 -10.28139
 Alpha  occ. eigenvalues --  -10.28128 -10.28064 -10.27973 -10.27904 -10.27866
 Alpha  occ. eigenvalues --  -10.27815 -10.27769 -10.27761 -10.27645 -10.27615
 Alpha  occ. eigenvalues --  -10.27412 -10.27365 -10.27300 -10.27221 -10.27213
 Alpha  occ. eigenvalues --  -10.27179 -10.27145 -10.26952 -10.26800 -10.26729
 Alpha  occ. eigenvalues --  -10.26505 -10.26471 -10.26446 -10.26355 -10.26227
 Alpha  occ. eigenvalues --  -10.26125 -10.26089 -10.25795 -10.25714 -10.25556
 Alpha  occ. eigenvalues --  -10.25339 -10.25191 -10.24869 -10.24727 -10.24658
 Alpha  occ. eigenvalues --  -10.24358  -3.17437  -3.15912  -1.92340  -1.91901
 Alpha  occ. eigenvalues --   -1.91727  -1.90816  -1.90356  -1.90236  -1.15762
 Alpha  occ. eigenvalues --   -1.15453  -1.11710  -1.10327  -1.10061  -1.09848
 Alpha  occ. eigenvalues --   -1.06713  -1.06339  -1.04989  -1.04945  -1.03806
 Alpha  occ. eigenvalues --   -1.03345  -1.02992  -1.02557  -1.01576  -1.01429
 Alpha  occ. eigenvalues --   -0.92657  -0.92584  -0.90769  -0.89597  -0.89211
 Alpha  occ. eigenvalues --   -0.89055  -0.88666  -0.88033  -0.87713  -0.87246
 Alpha  occ. eigenvalues --   -0.87032  -0.86418  -0.86301  -0.85830  -0.85268
 Alpha  occ. eigenvalues --   -0.84548  -0.84316  -0.83834  -0.83460  -0.82911
 Alpha  occ. eigenvalues --   -0.82576  -0.82113  -0.81414  -0.81196  -0.80828
 Alpha  occ. eigenvalues --   -0.80667  -0.78674  -0.78238  -0.77980  -0.77326
 Alpha  occ. eigenvalues --   -0.77124  -0.76779  -0.76310  -0.75738  -0.75387
 Alpha  occ. eigenvalues --   -0.74887  -0.73414  -0.72886  -0.72038  -0.70933
 Alpha  occ. eigenvalues --   -0.69341  -0.69113  -0.68613  -0.68120  -0.67997
 Alpha  occ. eigenvalues --   -0.67594  -0.67520  -0.66547  -0.66471  -0.65934
 Alpha  occ. eigenvalues --   -0.65519  -0.65279  -0.65183  -0.64687  -0.64574
 Alpha  occ. eigenvalues --   -0.64046  -0.62036  -0.61949  -0.60743  -0.60325
 Alpha  occ. eigenvalues --   -0.60121  -0.59500  -0.59469  -0.59253  -0.58965
 Alpha  occ. eigenvalues --   -0.58212  -0.57920  -0.57694  -0.57625  -0.57416
 Alpha  occ. eigenvalues --   -0.56409  -0.56163  -0.55902  -0.55685  -0.55510
 Alpha  occ. eigenvalues --   -0.55486  -0.55148  -0.54998  -0.54436  -0.54246
 Alpha  occ. eigenvalues --   -0.53846  -0.53561  -0.53438  -0.53197  -0.52836
 Alpha  occ. eigenvalues --   -0.52629  -0.52587  -0.52552  -0.52295  -0.52099
 Alpha  occ. eigenvalues --   -0.51890  -0.51826  -0.51745  -0.51685  -0.51559
 Alpha  occ. eigenvalues --   -0.51288  -0.51234  -0.51033  -0.50898  -0.50463
 Alpha  occ. eigenvalues --   -0.50418  -0.50112  -0.50011  -0.49806  -0.49661
 Alpha  occ. eigenvalues --   -0.49456  -0.49414  -0.49390  -0.49122  -0.49111
 Alpha  occ. eigenvalues --   -0.48854  -0.48721  -0.48566  -0.48511  -0.47954
 Alpha  occ. eigenvalues --   -0.47680  -0.47624  -0.47261  -0.47137  -0.47003
 Alpha  occ. eigenvalues --   -0.46793  -0.46790  -0.46649  -0.46604  -0.46461
 Alpha  occ. eigenvalues --   -0.46318  -0.46213  -0.46150  -0.45850  -0.45776
 Alpha  occ. eigenvalues --   -0.45742  -0.45409  -0.45310  -0.45087  -0.44937
 Alpha  occ. eigenvalues --   -0.44748  -0.44678  -0.44589  -0.44482  -0.44458
 Alpha  occ. eigenvalues --   -0.44338  -0.44051  -0.43687  -0.43431  -0.43402
 Alpha  occ. eigenvalues --   -0.43358  -0.43234  -0.43066  -0.42970  -0.42922
 Alpha  occ. eigenvalues --   -0.42878  -0.42617  -0.42568  -0.42283  -0.42089
 Alpha  occ. eigenvalues --   -0.41943  -0.41883  -0.41667  -0.41586  -0.41338
 Alpha  occ. eigenvalues --   -0.41228  -0.41173  -0.40952  -0.40676  -0.40485
 Alpha  occ. eigenvalues --   -0.40267  -0.40076  -0.39216  -0.39157  -0.38844
 Alpha  occ. eigenvalues --   -0.38488  -0.38358  -0.37850  -0.37832  -0.37740
 Alpha  occ. eigenvalues --   -0.37336  -0.36976  -0.36761  -0.36388  -0.36335
 Alpha  occ. eigenvalues --   -0.36323  -0.35992  -0.34351  -0.34249  -0.34144
 Alpha  occ. eigenvalues --   -0.33716  -0.33158  -0.33032  -0.31765  -0.31387
 Alpha  occ. eigenvalues --   -0.31275  -0.30861  -0.30681  -0.29987  -0.29884
 Alpha  occ. eigenvalues --   -0.29661  -0.29565  -0.29444  -0.24313  -0.23972
 Alpha  occ. eigenvalues --   -0.21578  -0.21531
 Alpha virt. eigenvalues --   -0.09167  -0.09014  -0.02516  -0.01272   0.00246
 Alpha virt. eigenvalues --    0.00736   0.02345   0.02668   0.02790   0.03447
 Alpha virt. eigenvalues --    0.04083   0.04504   0.04989   0.05403   0.05455

 Mulliken charges:
               1
     1  Mg   0.836504
     2  C   -0.017238
     3  C   -0.093358
     4  C   -0.052645
     5  C   -0.080159
     6  N   -0.248971
     7  C   -0.021769
     8  C   -0.040982
     9  C   -0.078627
    10  C    0.007130
    11  C    0.066230
    12  C    0.084152
    13  C   -0.064158
    14  H    0.014350
    15  N   -0.438740
    16  C    0.227570
    17  C   -0.127632
    18  C   -0.044674
    19  C    0.133352
    20  C    0.086869
    21  C    0.029712
    22  O   -0.182046
    23  C    0.052832
    24  N   -0.286427
    25  C    0.051523
    26  C   -0.061426
    27  C   -0.034517
    28  C    0.042336
    29  C    0.054082
    30  C    0.073734
    31  C   -0.018452
    32  N   -0.355010
    33  C    0.116755
    34  C   -0.202376
    35  C    0.058995
    36  C    0.084191
    37  C    0.134354
    38  C    0.027037
    39  O   -0.153454
    40  C    0.027150
    41  C    0.210811
    42  O   -0.254024
    43  O   -0.341519
    44  C    0.182448
    45  H   -0.036341
    46  H   -0.006351
    47  H   -0.029038
    48  H    0.004854
    49  H   -0.000623
    50  H    0.022974
    51  H    0.021873
    52  H    0.010890
    53  H    0.006686
    54  H    0.004980
    55  H    0.043003
    56  H    0.032307
    57  H    0.027970
    58  H   -0.000580
    59  H    0.023532
    60  H    0.045125
    61  H    0.025195
    62  H    0.027629
    63  H    0.011524
    64  H    0.015260
    65  H    0.022282
    66  H    0.008764
    67  H    0.015451
    68  H    0.011056
    69  H    0.012776
    70  H    0.016479
    71  H    0.008621
    72  H    0.004070
    73  H    0.011015
    74  H    0.043396
    75  H    0.026492
    76  H    0.026265
    77  H    0.041812
    78  H    0.046543
    79  H    0.050199
    80  Mg   0.815982
    81  C    0.061262
    82  C   -0.041738
    83  C   -0.115252
    84  C   -0.090454
    85  N   -0.274146
    86  C   -0.072833
    87  C    0.029132
    88  C   -0.105831
    89  C    0.020227
    90  C    0.061873
    91  C    0.063521
    92  C   -0.082827
    93  H    0.023006
    94  N   -0.454306
    95  C    0.183563
    96  C   -0.155247
    97  C   -0.020260
    98  C    0.249206
    99  C    0.147988
   100  C   -0.059490
   101  O   -0.208401
   102  C    0.069718
   103  N   -0.300512
   104  C    0.044374
   105  C   -0.028476
   106  C   -0.022890
   107  C    0.032442
   108  C    0.076705
   109  C    0.046898
   110  C    0.037671
   111  N   -0.321487
   112  C    0.100611
   113  C   -0.177563
   114  C    0.038602
   115  C    0.077960
   116  C    0.134571
   117  C    0.030854
   118  O   -0.149622
   119  C   -0.065456
   120  C    0.186055
   121  O   -0.240194
   122  O   -0.329522
   123  C    0.188545
   124  H   -0.024511
   125  H   -0.026452
   126  H   -0.025931
   127  H    0.025423
   128  H    0.016566
   129  H    0.017432
   130  H    0.029702
   131  H    0.010082
   132  H    0.027901
   133  H    0.028716
   134  H    0.041909
   135  H    0.032855
   136  H   -0.022420
   137  H    0.032751
   138  H    0.041394
   139  H    0.021175
   140  H    0.040050
   141  H    0.031071
   142  H    0.007552
   143  H    0.001025
   144  H    0.012647
   145  H    0.023865
   146  H    0.005935
   147  H    0.014795
   148  H   -0.004817
   149  H    0.004482
   150  H    0.009395
   151  H    0.010869
   152  H    0.014705
   153  H    0.043139
   154  H    0.027830
   155  H    0.023739
   156  H    0.040289
   157  H    0.029976
   158  H    0.032606
 Sum of Mulliken charges =  -0.00000

 Dipole moment (field-independent basis, Debye):
    X=              0.9710    Y=              2.4765    Z=              0.9675  Tot=              2.8305
 Quadrupole moment (field-independent basis, Debye-Ang):
   XX=           -198.3235   YY=           -540.8683   ZZ=           -493.1471
   XY=            117.0699   XZ=             59.0409   YZ=             24.1056

 Normal termination of Gaussian 16 at Tue Sep 14 20:54:39 2021.
