 Gaussian 16, Revision A.03,
 Gaussian 16:  ES64L-G16RevA.03 25-Dec-2016

 -----------------------------------
 #p cam-b3lyp/Def2SVP td=(nstates=5)
 -----------------------------------

 --------------------------------
 TDDFT excited states in gaussian
 --------------------------------
 Symbolic Z-matrix:
 Charge =  0 Multiplicity = 1

                         Standard orientation:
 ---------------------------------------------------------------------
 Center     Atomic      Atomic             Coordinates (Angstroms)
 Number     Number       Type             X           Y           Z
 ---------------------------------------------------------------------
      1         12           0       21.363176   -0.083966    0.719787
      2          6           0       17.898906   -0.526189    0.085963
      3          6           0       21.848400   -3.308845   -0.517886
      4          6           0       24.496094    0.787377    0.208195
      5          6           0       20.519301    3.355890    1.646737
      6          7           0       19.983902   -1.662012   -0.372544
      7          6           0       18.634459   -1.692968   -0.241549
      8          6           0       18.124923   -3.073196   -0.615981
      9          6           0       19.273573   -4.008152   -0.236924
     10          6           0       20.472472   -2.946998   -0.435915
     11          6           0       19.318079   -4.571586    1.184660
     12          6           0       17.660860   -3.075892   -2.137650
     13          6           0       16.363539   -3.758022   -2.328925
     14          1           0       16.215269   -4.678188   -3.556230
     15          7           0       23.014546   -1.098981   -0.107924
     16          6           0       23.019115   -2.464660   -0.485933
     17          6           0       24.371839   -2.773777   -0.875490
     18          6           0       25.217695   -1.664520   -0.609204
     19          6           0       24.281166   -0.569137   -0.171120
     20          6           0       24.727937   -4.152524   -1.422467
     21          6           0       26.670363   -1.590603   -0.869679
     22          8           0       27.234445   -2.566926   -1.347940
     23          6           0       27.556336   -0.400379   -0.699481
     24          7           0       22.343682    1.923649    0.829154
     25          6           0       23.688298    1.869890    0.752456
     26          6           0       24.310978    3.215034    1.168029
     27          6           0       23.047272    4.034197    1.794285
     28          6           0       21.888637    3.059556    1.459381
     29          6           0       25.608779    3.089255    2.086431
     30          6           0       22.854553    5.486966    1.257246
     31          6           0       21.795996    5.711180    0.124092
     32          7           0       19.668717    1.144880    0.856163
     33          6           0       19.495124    2.483682    1.309301
     34          6           0       18.000053    2.748310    1.478150
     35          6           0       17.413315    1.605134    0.959385
     36          6           0       18.459134    0.673602    0.620790
     37          6           0       17.209116    3.961090    2.005225
     38          6           0       16.161896    0.962843    0.710362
     39          8           0       15.013079    1.326337    0.967624
     40          6           0       16.496895   -0.311759    0.021588
     41          6           0       16.044967   -0.048909   -1.433151
     42          8           0       16.640962    0.596795   -2.292701
     43          8           0       14.757085   -0.633906   -1.584201
     44          6           0       14.069890   -0.428014   -2.794040
     45          1           0       22.062174   -4.340631   -0.805001
     46          1           0       25.578829    0.922403    0.169747
     47          1           0       20.164092    4.304442    2.053125
     48          1           0       17.292462   -3.408105    0.002665
     49          1           0       19.460312   -4.914974   -0.811020
     50          1           0       18.361858   -4.528166    1.705262
     51          1           0       20.187205   -4.208549    1.733774
     52          1           0       19.496544   -5.632220    1.003955
     53          1           0       18.397314   -3.625903   -2.723602
     54          1           0       17.708468   -2.100491   -2.621943
     55          1           0       15.676626   -2.913161   -2.363281
     56          1           0       16.165472   -4.367019   -1.447014
     57          1           0       25.262759   -4.770277   -0.701309
     58          1           0       25.266570   -4.026573   -2.360536
     59          1           0       23.822208   -4.705106   -1.672702
     60          1           0       27.642074   -0.190677    0.366998
     61          1           0       27.239070    0.507002   -1.214849
     62          1           0       28.597411   -0.642327   -0.909839
     63          1           0       24.556117    3.673856    0.210409
     64          1           0       23.128022    4.015216    2.880601
     65          1           0       26.099861    2.127025    1.941992
     66          1           0       25.532750    3.328276    3.147844
     67          1           0       26.188413    3.964931    1.790171
     68          1           0       23.790606    5.933908    0.923346
     69          1           0       22.495223    6.009263    2.143589
     70          1           0       22.325679    6.535250   -0.354440
     71          1           0       20.797563    6.041548    0.411439
     72          1           0       21.797471    4.822297   -0.507104
     73          1           0       16.578130    3.680009    2.847682
     74          1           0       16.532416    4.047849    1.155670
     75          1           0       17.905125    4.795489    2.088745
     76          1           0       15.894536   -1.118972    0.438483
     77          1           0       13.083743   -0.891584   -2.841641
     78          1           0       14.677809   -0.857222   -3.589480
     79          1           0       13.974013    0.654698   -2.880331
     80         12           0      -20.816094    0.614433    0.232941
     81          6           0      -19.943554   -2.751859    0.220336
     82          6           0      -17.501106    1.363025   -0.455641
     83          6           0      -21.590610    3.778512   -0.327366
     84          6           0      -24.154633   -0.278722    0.419905
     85          7           0      -18.981235   -0.547330   -0.240240
     86          6           0      -18.830954   -1.905342   -0.047595
     87          6           0      -17.403497   -2.354146   -0.153654
     88          6           0      -16.622038   -0.976709    0.011520
     89          6           0      -17.730933    0.025589   -0.280041
     90          6           0      -15.677156   -0.680704    1.271152
     91          6           0      -17.049412   -3.209966   -1.456807
     92          6           0      -17.828991   -2.890962   -2.767126
     93          1           0      -16.976383   -2.893750   -4.013180
     94          7           0      -19.724535    2.328043   -0.433065
     95          6           0      -18.344226    2.426090   -0.648363
     96          6           0      -17.974309    3.735379   -1.111573
     97          6           0      -19.177713    4.480287   -1.107994
     98          6           0      -20.253980    3.555157   -0.643520
     99          6           0      -16.499618    4.125555   -1.223311
    100          6           0      -19.210832    5.975102   -1.499865
    101          8           0      -18.211695    6.563506   -1.925624
    102          6           0      -20.488986    6.669391   -1.282111
    103          7           0      -22.648858    1.530592   -0.041030
    104          6           0      -22.682172    2.913756    0.015791
    105          6           0      -24.112815    3.476399    0.165469
    106          6           0      -24.899654    2.101971    0.161426
    107          6           0      -23.872879    1.059030    0.129482
    108          6           0      -24.444730    4.338394    1.342430
    109          6           0      -25.866626    1.935663   -1.117533
    110          6           0      -27.227705    1.436943   -0.707381
    111          7           0      -21.896748   -1.146293    0.505504
    112          6           0      -23.262825   -1.351405    0.562649
    113          6           0      -23.549698   -2.796733    0.709419
    114          6           0      -22.248225   -3.395592    0.581594
    115          6           0      -21.321926   -2.353361    0.459023
    116          6           0      -24.830391   -3.527026    0.672704
    117          6           0      -21.465038   -4.644409    0.468275
    118          8           0      -21.850870   -5.789652    0.424243
    119          6           0      -19.958377   -4.278255    0.274016
    120          6           0      -19.144707   -4.905236    1.316297
    121          8           0      -18.240122   -5.735285    1.222715
    122          8           0      -19.768675   -4.609043    2.556519
    123          6           0      -19.063996   -5.108614    3.756587
    124          1           0      -16.428775    1.568075   -0.416335
    125          1           0      -21.940665    4.812298   -0.296330
    126          1           0      -25.225309   -0.446482    0.549430
    127          1           0      -17.159026   -3.030445    0.665389
    128          1           0      -15.977571   -1.012998   -0.867161
    129          1           0      -15.527890   -1.513237    1.958462
    130          1           0      -16.056364    0.099433    1.931090
    131          1           0      -14.655979   -0.522734    0.923159
    132          1           0      -17.099650   -4.276439   -1.239708
    133          1           0      -15.986091   -3.053149   -1.637909
    134          1           0      -18.351234   -1.937506   -2.682168
    135          1           0      -18.595773   -3.647223   -2.932826
    136          1           0      -16.296253    4.859257   -2.003967
    137          1           0      -15.923508    3.256008   -1.538589
    138          1           0      -16.232319    4.547969   -0.254406
    139          1           0      -20.647900    6.772176   -0.209080
    140          1           0      -21.293814    6.121726   -1.773437
    141          1           0      -20.354248    7.652424   -1.733234
    142          1           0      -24.384440    3.929382   -0.788298
    143          1           0      -25.312295    2.068050    1.169711
    144          1           0      -25.530888    4.431295    1.343789
    145          1           0      -24.073066    5.338419    1.118926
    146          1           0      -24.019182    3.919686    2.255174
    147          1           0      -25.352239    1.263778   -1.804490
    148          1           0      -25.985613    2.804237   -1.766474
    149          1           0      -27.333976    0.417447   -1.077326
    150          1           0      -28.031374    1.913519   -1.269694
    151          1           0      -27.285696    1.373543    0.379036
    152          1           0      -25.725303   -2.912533    0.563882
    153          1           0      -24.921192   -4.015585    1.642219
    154          1           0      -24.723948   -4.056400   -0.273938
    155          1           0      -19.709610   -4.667960   -0.712796
    156          1           0      -19.103056   -4.241065    4.416319
    157          1           0      -18.029182   -5.446728    3.701654
    158          1           0      -19.773217   -5.796334    4.217555
 ---------------------------------------------------------------------

 SCF Done:  E(RCAM-B3LYP) =  -4069.76252630     A.U. after   18 cycles

 Excitation energies and oscillator strengths:

 Excited State   1:      Singlet-A      1.6842 eV  736.15 nm  f=0.3564  <S**2>=0.000
     310 -> 315       -0.19722
     312 -> 314        0.68010
     310 <- 315       -0.11211
 This state for optimization and/or second-order correction.
 Total Energy, E(TD-HF/TD-DFT) =  -4069.70063202
 Copying the excited state density for this state as the 1-particle RhoCI density.

 Excited State   2:      Singlet-A      1.7179 eV  721.72 nm  f=0.3715  <S**2>=0.000
     309 -> 316       -0.18173
     311 -> 313        0.68348
     309 <- 316       -0.10498

 Excited State   3:      Singlet-A      2.1915 eV  565.75 nm  f=0.0566  <S**2>=0.000
     310 -> 314        0.61451
     312 -> 315        0.33940

 Excited State   4:      Singlet-A      2.2043 eV  562.47 nm  f=0.0882  <S**2>=0.000
     309 -> 313        0.62963
     311 -> 316        0.30514

 Excited State   5:      Singlet-A      3.1454 eV  394.18 nm  f=0.0000  <S**2>=0.000
     312 -> 313        0.70710

 The electronic state is 1-A.
 Alpha  occ. eigenvalues --  -46.91308 -46.89102 -19.24716 -19.24340 -19.21408
 Alpha  occ. eigenvalues --  -19.20536 -19.19021 -19.18920 -19.18818 -19.17580
 Alpha  occ. eigenvalues --  -14.42415 -14.42232 -14.42203 -14.41950 -14.40250
 Alpha  occ. eigenvalues --  -14.39768 -14.39641 -14.39182 -10.40599 -10.39730
 Alpha  occ. eigenvalues --  -10.35116 -10.35102 -10.34569 -10.34133 -10.31838
 Alpha  occ. eigenvalues --  -10.31621 -10.31435 -10.31410 -10.31314 -10.31297
 Alpha  occ. eigenvalues --  -10.31179 -10.31058 -10.30982 -10.30838 -10.30677
 Alpha  occ. eigenvalues --  -10.30630 -10.30190 -10.30088 -10.30076 -10.29474
 Alpha  occ. eigenvalues --  -10.29399 -10.29350 -10.28956 -10.28788 -10.28674
 Alpha  occ. eigenvalues --  -10.28537 -10.28528 -10.28425 -10.28419 -10.28410
 Alpha  occ. eigenvalues --  -10.28379 -10.28338 -10.28206 -10.28204 -10.28157
 Alpha  occ. eigenvalues --  -10.28154 -10.28073 -10.27914 -10.27671 -10.27670
 Alpha  occ. eigenvalues --  -10.27614 -10.27562 -10.27362 -10.27296 -10.27172
 Alpha  occ. eigenvalues --  -10.27160 -10.27135 -10.27123 -10.27114 -10.27101
 Alpha  occ. eigenvalues --  -10.26965 -10.26902 -10.26789 -10.26726 -10.26369
 Alpha  occ. eigenvalues --  -10.26239 -10.26215 -10.26052 -10.26018 -10.25956
 Alpha  occ. eigenvalues --  -10.25777 -10.25752 -10.25675 -10.25383 -10.25278
 Alpha  occ. eigenvalues --  -10.24984  -3.19508  -3.17628  -1.94349  -1.94015
 Alpha  occ. eigenvalues --   -1.93764  -1.92512  -1.92099  -1.91921  -1.15826
 Alpha  occ. eigenvalues --   -1.14816  -1.10359  -1.09608  -1.09369  -1.09364
 Alpha  occ. eigenvalues --   -1.08657  -1.06898  -1.05069  -1.04208  -1.03714
 Alpha  occ. eigenvalues --   -1.03456  -1.03181  -1.02844  -1.02340  -1.01283
 Alpha  occ. eigenvalues --   -0.94386  -0.92461  -0.89654  -0.89219  -0.89176
 Alpha  occ. eigenvalues --   -0.88728  -0.87983  -0.87807  -0.87665  -0.87273
 Alpha  occ. eigenvalues --   -0.86877  -0.86855  -0.86181  -0.85578  -0.84829
 Alpha  occ. eigenvalues --   -0.84785  -0.84453  -0.83668  -0.82718  -0.82709
 Alpha  occ. eigenvalues --   -0.82382  -0.81648  -0.80862  -0.80841  -0.80279
 Alpha  occ. eigenvalues --   -0.80149  -0.78318  -0.78043  -0.77499  -0.77277
 Alpha  occ. eigenvalues --   -0.76884  -0.76843  -0.76214  -0.76009  -0.75745
 Alpha  occ. eigenvalues --   -0.75212  -0.72753  -0.72641  -0.72137  -0.71846
 Alpha  occ. eigenvalues --   -0.69924  -0.69422  -0.69361  -0.68719  -0.68086
 Alpha  occ. eigenvalues --   -0.67323  -0.66873  -0.66825  -0.66411  -0.65348
 Alpha  occ. eigenvalues --   -0.64975  -0.64899  -0.64718  -0.64549  -0.64505
 Alpha  occ. eigenvalues --   -0.63997  -0.62541  -0.62218  -0.60274  -0.59937
 Alpha  occ. eigenvalues --   -0.59774  -0.59376  -0.59277  -0.58940  -0.58905
 Alpha  occ. eigenvalues --   -0.58283  -0.58267  -0.57525  -0.57248  -0.57041
 Alpha  occ. eigenvalues --   -0.56322  -0.56205  -0.55965  -0.55822  -0.55645
 Alpha  occ. eigenvalues --   -0.55346  -0.55097  -0.54954  -0.54606  -0.54563
 Alpha  occ. eigenvalues --   -0.53889  -0.53682  -0.53398  -0.53039  -0.52904
 Alpha  occ. eigenvalues --   -0.52711  -0.52646  -0.52623  -0.52185  -0.52174
 Alpha  occ. eigenvalues --   -0.51980  -0.51968  -0.51674  -0.51613  -0.51396
 Alpha  occ. eigenvalues --   -0.51310  -0.51108  -0.50847  -0.50558  -0.50469
 Alpha  occ. eigenvalues --   -0.50273  -0.50189  -0.49972  -0.49631  -0.49550
 Alpha  occ. eigenvalues --   -0.49408  -0.49268  -0.49233  -0.48954  -0.48819
 Alpha  occ. eigenvalues --   -0.48561  -0.48482  -0.48296  -0.48270  -0.48169
 Alpha  occ. eigenvalues --   -0.47763  -0.47737  -0.47475  -0.47249  -0.47172
 Alpha  occ. eigenvalues --   -0.46914  -0.46854  -0.46500  -0.46269  -0.46206
 Alpha  occ. eigenvalues --   -0.46098  -0.45950  -0.45905  -0.45873  -0.45728
 Alpha  occ. eigenvalues --   -0.45440  -0.45384  -0.45305  -0.45149  -0.45118
 Alpha  occ. eigenvalues --   -0.44989  -0.44973  -0.44689  -0.44644  -0.44574
 Alpha  occ. eigenvalues --   -0.44453  -0.44141  -0.43925  -0.43797  -0.43480
 Alpha  occ. eigenvalues --   -0.43418  -0.43311  -0.43218  -0.43107  -0.43008
 Alpha  occ. eigenvalues --   -0.42746  -0.42477  -0.42335  -0.42129  -0.42046
 Alpha  occ. eigenvalues --   -0.41960  -0.41707  -0.41682  -0.41604  -0.41303
 Alpha  occ. eigenvalues --   -0.41220  -0.41014  -0.40980  -0.40455  -0.40432
 Alpha  occ. eigenvalues --   -0.40088  -0.39991  -0.39177  -0.39101  -0.38562
 Alpha  occ. eigenvalues --   -0.38507  -0.38273  -0.37974  -0.37928  -0.37640
 Alpha  occ. eigenvalues --   -0.37431  -0.36893  -0.36556  -0.36520  -0.36329
 Alpha  occ. eigenvalues --   -0.35774  -0.35654  -0.35220  -0.35152  -0.34797
 Alpha  occ. eigenvalues --   -0.34222  -0.33351  -0.33317  -0.31469  -0.31270
 Alpha  occ. eigenvalues --   -0.31202  -0.30815  -0.30811  -0.30572  -0.30220
 Alpha  occ. eigenvalues --   -0.29955  -0.29653  -0.29483  -0.24094  -0.24055
 Alpha  occ. eigenvalues --   -0.21212  -0.21043
 Alpha virt. eigenvalues --   -0.08663  -0.08536  -0.02620  -0.02245  -0.00610
 Alpha virt. eigenvalues --    0.00128   0.00634   0.01716   0.02165   0.02530
 Alpha virt. eigenvalues --    0.04087   0.04703   0.04953   0.05162   0.05892

 Mulliken charges:
               1
     1  Mg   0.808490
     2  C    0.026517
     3  C   -0.060737
     4  C   -0.021860
     5  C   -0.054842
     6  N   -0.238524
     7  C   -0.066696
     8  C   -0.007333
     9  C   -0.085898
    10  C    0.025304
    11  C    0.085420
    12  C    0.072661
    13  C   -0.063567
    14  H    0.018212
    15  N   -0.411422
    16  C    0.127349
    17  C   -0.147923
    18  C    0.024172
    19  C    0.084029
    20  C    0.141729
    21  C   -0.053921
    22  O   -0.216886
    23  C    0.078837
    24  N   -0.260294
    25  C    0.038671
    26  C   -0.046170
    27  C    0.025417
    28  C   -0.014233
    29  C    0.052469
    30  C    0.002701
    31  C    0.007461
    32  N   -0.333231
    33  C    0.096763
    34  C   -0.206564
    35  C    0.019524
    36  C    0.125926
    37  C    0.134626
    38  C    0.005922
    39  O   -0.180152
    40  C    0.016397
    41  C    0.215325
    42  O   -0.202551
    43  O   -0.345888
    44  C    0.186818
    45  H   -0.020639
    46  H   -0.066447
    47  H   -0.026131
    48  H   -0.009637
    49  H    0.002571
    50  H    0.020031
    51  H    0.025883
    52  H    0.005837
    53  H    0.007762
    54  H    0.031963
    55  H    0.024946
    56  H    0.024296
    57  H    0.034545
    58  H    0.037896
    59  H   -0.012189
    60  H    0.019222
    61  H    0.050499
    62  H    0.019666
    63  H    0.023826
    64  H    0.010322
    65  H    0.032476
    66  H    0.011767
    67  H    0.010039
    68  H    0.015630
    69  H    0.005356
    70  H    0.012268
    71  H    0.025457
    72  H    0.040080
    73  H    0.049494
    74  H    0.045738
    75  H    0.017023
    76  H    0.029900
    77  H    0.038731
    78  H    0.024830
    79  H    0.034943
    80  Mg   0.819780
    81  C   -0.024969
    82  C   -0.097576
    83  C   -0.086970
    84  C   -0.094196
    85  N   -0.283860
    86  C   -0.030032
    87  C   -0.040847
    88  C    0.001965
    89  C    0.000859
    90  C    0.064169
    91  C    0.029213
    92  C   -0.076366
    93  H    0.023215
    94  N   -0.359619
    95  C    0.167004
    96  C   -0.136593
    97  C   -0.064249
    98  C    0.184917
    99  C    0.126743
   100  C    0.000333
   101  O   -0.204495
   102  C    0.054785
   103  N   -0.295315
   104  C   -0.001589
   105  C   -0.034006
   106  C   -0.063455
   107  C    0.012415
   108  C    0.107198
   109  C    0.036507
   110  C    0.030433
   111  N   -0.342673
   112  C    0.151467
   113  C   -0.189610
   114  C   -0.004861
   115  C    0.088733
   116  C    0.130652
   117  C    0.030282
   118  O   -0.149200
   119  C    0.028504
   120  C    0.222583
   121  O   -0.208326
   122  O   -0.379727
   123  C    0.180161
   124  H   -0.029610
   125  H   -0.042317
   126  H   -0.043983
   127  H    0.010506
   128  H    0.006362
   129  H    0.011233
   130  H    0.026795
   131  H    0.022182
   132  H    0.028650
   133  H    0.010471
   134  H    0.047603
   135  H    0.030598
   136  H    0.035850
   137  H    0.016248
   138  H    0.041150
   139  H    0.048731
   140  H    0.044981
   141  H    0.024326
   142  H    0.004677
   143  H    0.008061
   144  H    0.019782
   145  H    0.014485
   146  H    0.025107
   147  H    0.015650
   148  H    0.007060
   149  H    0.005815
   150  H    0.014906
   151  H    0.023368
   152  H   -0.003587
   153  H    0.043703
   154  H    0.053185
   155  H    0.038603
   156  H    0.018953
   157  H    0.058645
   158  H    0.038430
 Sum of Mulliken charges =  -0.00000

 Dipole moment (field-independent basis, Debye):
    X=             -1.7357    Y=              5.1035    Z=              6.7735  Tot=              8.6567
 Quadrupole moment (field-independent basis, Debye-Ang):
   XX=           -379.1946   YY=           -542.4159   ZZ=           -505.9084
   XY=            -48.4366   XZ=             40.2452   YZ=             11.2228

 Normal termination of Gaussian 16 at Wed Sep 15 12:38:45 2021.
