 Gaussian 16, Revision A.03,
 Gaussian 16:  ES64L-G16RevA.03 25-Dec-2016

 -----------------------------------
 #p cam-b3lyp/Def2SVP td=(nstates=5)
 -----------------------------------

 --------------------------------
 TDDFT excited states in gaussian
 --------------------------------
 Symbolic Z-matrix:
 Charge =  0 Multiplicity = 1

                         Standard orientation:
 ---------------------------------------------------------------------
 Center     Atomic      Atomic             Coordinates (Angstroms)
 Number     Number       Type             X           Y           Z
 ---------------------------------------------------------------------
      1         12           0       13.659334   -0.923304   -0.246022
      2          6           0       14.158882    2.467173    0.344346
      3          6           0       10.351495   -0.279722   -0.868014
      4          6           0       13.169138   -4.286544   -0.496126
      5          6           0       17.059227   -1.377345    0.685590
      6          7           0       12.397890    0.870222   -0.226543
      7          6           0       12.870980    2.146900   -0.074691
      8          6           0       11.680800    3.080566   -0.308641
      9          6           0       10.459910    2.181274   -0.385929
     10          6           0       11.125324    0.818521   -0.541178
     11          6           0        9.426351    2.224293    0.707410
     12          6           0       11.833999    4.100268   -1.535418
     13          6           0       10.549024    4.901539   -1.920713
     14          1           0       10.312163    6.285391   -1.261231
     15          7           0       12.017093   -2.077512   -0.772971
     16          6           0       10.746339   -1.641017   -0.957903
     17          6           0        9.941794   -2.808602   -1.207946
     18          6           0       10.767275   -3.965439   -1.091669
     19          6           0       12.033662   -3.492050   -0.753269
     20          6           0        8.481225   -2.672229   -1.509471
     21          6           0       10.293392   -5.446641   -1.155980
     22          8           0       10.970570   -6.356872   -0.712722
     23          6           0        8.979060   -5.850935   -1.628160
     24          7           0       14.875847   -2.479590    0.035758
     25          6           0       14.491167   -3.805021   -0.164198
     26          6           0       15.651915   -4.793324    0.043491
     27          6           0       16.879719   -3.823981    0.127640
     28          6           0       16.220009   -2.459888    0.245530
     29          6           0       15.457143   -5.836844    1.064292
     30          6           0       18.033370   -3.895187   -1.018721
     31          6           0       19.486502   -4.202298   -0.644634
     32          7           0       15.338739    0.301322    0.462446
     33          6           0       16.614317   -0.055348    0.799377
     34          6           0       17.382265    1.080137    1.185513
     35          6           0       16.453327    2.164159    0.947962
     36          6           0       15.194352    1.604696    0.591385
     37          6           0       18.806770    1.027727    1.588134
     38          6           0       16.343146    3.604282    0.908997
     39          8           0       17.130041    4.517152    1.065756
     40          6           0       14.772499    3.850070    0.505937
     41          6           0       14.111085    4.793611    1.442987
     42          8           0       13.897052    4.544388    2.609095
     43          8           0       13.763353    5.949374    0.850419
     44          6           0       12.859717    6.881432    1.628151
     45          1           0        9.308598   -0.074574   -1.119582
     46          1           0       12.983231   -5.359496   -0.575627
     47          1           0       18.071934   -1.719297    0.909895
     48          1           0       11.704098    3.646551    0.622502
     49          1           0        9.879841    2.438042   -1.271969
     50          1           0        9.654287    1.277567    1.196196
     51          1           0        8.410893    2.319054    0.322475
     52          1           0        9.643270    2.987461    1.455129
     53          1           0       12.112353    3.424883   -2.344691
     54          1           0       12.633908    4.810055   -1.327906
     55          1           0        9.642297    4.349877   -1.675676
     56          1           0       10.552575    5.035366   -3.002453
     57          1           0        8.067308   -1.669239   -1.617900
     58          1           0        7.965694   -3.082771   -0.641895
     59          1           0        8.160150   -3.281999   -2.354209
     60          1           0        8.087052   -5.346349   -1.258351
     61          1           0        8.767216   -6.918397   -1.568352
     62          1           0        9.069756   -5.691594   -2.702425
     63          1           0       15.631149   -5.244048   -0.949112
     64          1           0       17.220950   -4.073915    1.132098
     65          1           0       15.431409   -6.870151    0.717240
     66          1           0       14.512526   -5.628418    1.567325
     67          1           0       16.240491   -5.870471    1.821377
     68          1           0       18.047745   -2.929650   -1.523963
     69          1           0       17.879437   -4.591935   -1.843578
     70          1           0       20.153057   -3.339463   -0.645012
     71          1           0       19.921987   -5.056594   -1.162157
     72          1           0       19.497522   -4.470968    0.411767
     73          1           0       18.937670    0.200691    2.285571
     74          1           0       19.164690    1.974005    1.992896
     75          1           0       19.368627    0.645068    0.735476
     76          1           0       14.799705    4.345515   -0.464035
     77          1           0       13.034036    7.833272    1.126948
     78          1           0       13.177472    6.884808    2.670608
     79          1           0       11.838547    6.542454    1.453160
     80         12           0      -14.247653    0.022735    0.280428
     81          6           0      -11.606506    1.773215   -1.263351
     82          6           0      -15.067247   -1.123580   -2.762412
     83          6           0      -16.322395   -1.935015    1.875191
     84          6           0      -12.681799    0.848266    3.384790
     85          7           0      -13.381252    0.275613   -1.765216
     86          6           0      -12.377228    1.071950   -2.202850
     87          6           0      -12.194110    1.049410   -3.706831
     88          6           0      -13.524665    0.309544   -4.134795
     89          6           0      -14.059056   -0.248633   -2.832070
     90          6           0      -14.591537    1.224526   -4.866186
     91          6           0      -10.910834    0.399306   -4.386136
     92          6           0       -9.962706   -0.541065   -3.595650
     93          1           0       -9.266260   -1.715279   -4.379838
     94          7           0      -15.627542   -1.263667   -0.431266
     95          6           0      -15.754420   -1.692155   -1.679992
     96          6           0      -16.771655   -2.778015   -1.716124
     97          6           0      -17.268198   -2.894550   -0.315760
     98          6           0      -16.378413   -2.012498    0.440016
     99          6           0      -17.286272   -3.409211   -2.981689
    100          6           0      -18.343950   -3.834709    0.161629
    101          8           0      -18.933615   -4.524570   -0.666438
    102          6           0      -18.751391   -4.068455    1.663124
    103          7           0      -14.420603   -0.588362    2.411569
    104          6           0      -15.478288   -1.263853    2.701631
    105          6           0      -15.572332   -1.342856    4.290356
    106          6           0      -14.264396   -0.655472    4.687824
    107          6           0      -13.712347   -0.088827    3.393960
    108          6           0      -16.811548   -0.768583    4.996982
    109          6           0      -13.131210   -1.676739    5.220380
    110          6           0      -12.738332   -1.552815    6.703937
    111          7           0      -12.503941    1.011467    0.984819
    112          6           0      -12.069507    1.372194    2.232885
    113          6           0      -10.989480    2.388373    2.138144
    114          6           0      -10.668713    2.497614    0.755438
    115          6           0      -11.721318    1.704662    0.122840
    116          6           0      -10.200776    3.023584    3.305007
    117          6           0       -9.824915    3.066830   -0.241669
    118          8           0       -8.765328    3.716030   -0.214627
    119          6           0      -10.440644    2.685120   -1.611852
    120          6           0      -10.767560    3.997030   -2.331111
    121          8           0      -10.254885    4.570543   -3.255165
    122          8           0      -12.009018    4.439697   -1.861702
    123          6           0      -12.601318    5.653409   -2.505081
    124          1           0      -15.306267   -1.487351   -3.764097
    125          1           0      -17.061345   -2.576927    2.360894
    126          1           0      -12.385859    1.293099    4.336776
    127          1           0      -12.287718    2.092414   -4.008748
    128          1           0      -13.282175   -0.484092   -4.841657
    129          1           0      -14.252279    2.258894   -4.910486
    130          1           0      -15.404070    1.228560   -4.140462
    131          1           0      -14.835372    0.797712   -5.839229
    132          1           0      -10.319786    1.222625   -4.787480
    133          1           0      -11.224794   -0.150416   -5.274102
    134          1           0      -10.574617   -0.974479   -2.804531
    135          1           0       -9.056620   -0.053158   -3.237724
    136          1           0      -18.203028   -3.980174   -2.836015
    137          1           0      -16.445665   -3.951997   -3.415589
    138          1           0      -17.414367   -2.561805   -3.655991
    139          1           0      -19.007884   -3.231949    2.314271
    140          1           0      -17.897129   -4.508579    2.177556
    141          1           0      -19.612665   -4.729486    1.755417
    142          1           0      -15.601034   -2.375602    4.636150
    143          1           0      -14.287043    0.112953    5.461338
    144          1           0      -17.536658   -0.371802    4.286252
    145          1           0      -16.540124   -0.020620    5.742707
    146          1           0      -17.385617   -1.516970    5.543306
    147          1           0      -12.193358   -1.555816    4.679972
    148          1           0      -13.521085   -2.673971    5.015208
    149          1           0      -11.697411   -1.780441    6.934991
    150          1           0      -13.332669   -2.307749    7.218585
    151          1           0      -12.970922   -0.513599    6.936707
    152          1           0      -10.328236    2.533172    4.269518
    153          1           0      -10.599275    4.035744    3.370038
    154          1           0       -9.159025    3.116141    2.998938
    155          1           0       -9.708955    2.123715   -2.191907
    156          1           0      -11.928972    6.413731   -2.901921
    157          1           0      -13.125383    6.137498   -1.681212
    158          1           0      -13.369801    5.516306   -3.266101
 ---------------------------------------------------------------------

 SCF Done:  E(RCAM-B3LYP) =  -4069.79762042     A.U. after   18 cycles

 Excitation energies and oscillator strengths:

 Excited State   1:      Singlet-A      1.6982 eV  730.10 nm  f=0.4125  <S**2>=0.000
     310 -> 316       -0.17916
     312 -> 314        0.68572
     310 <- 316       -0.10832
 This state for optimization and/or second-order correction.
 Total Energy, E(TD-HF/TD-DFT) =  -4069.73521326
 Copying the excited state density for this state as the 1-particle RhoCI density.

 Excited State   2:      Singlet-A      1.7687 eV  700.98 nm  f=0.3998  <S**2>=0.000
     309 -> 315       -0.18512
     311 -> 313        0.68372
     309 <- 315       -0.10636

 Excited State   3:      Singlet-A      2.2223 eV  557.90 nm  f=0.0944  <S**2>=0.000
     310 -> 314        0.63227
     312 -> 316        0.30137

 Excited State   4:      Singlet-A      2.2833 eV  543.00 nm  f=0.0987  <S**2>=0.000
     309 -> 313        0.63712
     311 -> 315        0.29627

 Excited State   5:      Singlet-A      2.9394 eV  421.81 nm  f=0.0000  <S**2>=0.000
     312 -> 313        0.70706

 The electronic state is 1-A.
 Alpha  occ. eigenvalues --  -46.90152 -46.87814 -19.24687 -19.24352 -19.20508
 Alpha  occ. eigenvalues --  -19.19557 -19.19018 -19.18676 -19.18599 -19.18192
 Alpha  occ. eigenvalues --  -14.42652 -14.42400 -14.41977 -14.41923 -14.40520
 Alpha  occ. eigenvalues --  -14.40247 -14.38985 -14.38376 -10.39972 -10.37900
 Alpha  occ. eigenvalues --  -10.35782 -10.35681 -10.35522 -10.34585 -10.32038
 Alpha  occ. eigenvalues --  -10.31952 -10.31607 -10.31539 -10.31202 -10.31109
 Alpha  occ. eigenvalues --  -10.31066 -10.31046 -10.30854 -10.30810 -10.30375
 Alpha  occ. eigenvalues --  -10.30260 -10.30195 -10.30186 -10.29952 -10.29744
 Alpha  occ. eigenvalues --  -10.29633 -10.29520 -10.29515 -10.29062 -10.28930
 Alpha  occ. eigenvalues --  -10.28889 -10.28837 -10.28233 -10.28108 -10.28073
 Alpha  occ. eigenvalues --  -10.28057 -10.28009 -10.27984 -10.27907 -10.27699
 Alpha  occ. eigenvalues --  -10.27665 -10.27469 -10.27456 -10.27456 -10.27444
 Alpha  occ. eigenvalues --  -10.27328 -10.27269 -10.27197 -10.27171 -10.27161
 Alpha  occ. eigenvalues --  -10.27078 -10.27007 -10.26969 -10.26920 -10.26875
 Alpha  occ. eigenvalues --  -10.26864 -10.26802 -10.26790 -10.26670 -10.26639
 Alpha  occ. eigenvalues --  -10.26453 -10.26428 -10.26246 -10.26197 -10.26090
 Alpha  occ. eigenvalues --  -10.25860 -10.25664 -10.25545 -10.25458 -10.25442
 Alpha  occ. eigenvalues --  -10.25178  -3.18629  -3.16474  -1.93518  -1.93084
 Alpha  occ. eigenvalues --   -1.92933  -1.91389  -1.90931  -1.90776  -1.16150
 Alpha  occ. eigenvalues --   -1.15780  -1.10921  -1.09645  -1.09429  -1.09422
 Alpha  occ. eigenvalues --   -1.07370  -1.06826  -1.06666  -1.05174  -1.04911
 Alpha  occ. eigenvalues --   -1.04096  -1.04047  -1.03388  -1.03255  -1.02290
 Alpha  occ. eigenvalues --   -0.93673  -0.92369  -0.89889  -0.89137  -0.88906
 Alpha  occ. eigenvalues --   -0.88708  -0.88656  -0.88383  -0.88269  -0.87507
 Alpha  occ. eigenvalues --   -0.86989  -0.86910  -0.86641  -0.85493  -0.84979
 Alpha  occ. eigenvalues --   -0.84578  -0.84036  -0.83647  -0.82991  -0.82576
 Alpha  occ. eigenvalues --   -0.82401  -0.81879  -0.81346  -0.80894  -0.80678
 Alpha  occ. eigenvalues --   -0.80628  -0.78730  -0.78601  -0.77794  -0.77738
 Alpha  occ. eigenvalues --   -0.77209  -0.77119  -0.76774  -0.75828  -0.75454
 Alpha  occ. eigenvalues --   -0.75083  -0.73406  -0.72716  -0.72483  -0.71751
 Alpha  occ. eigenvalues --   -0.69654  -0.69366  -0.69318  -0.68890  -0.68768
 Alpha  occ. eigenvalues --   -0.68162  -0.67613  -0.66937  -0.66853  -0.65785
 Alpha  occ. eigenvalues --   -0.65599  -0.65486  -0.65365  -0.64962  -0.64606
 Alpha  occ. eigenvalues --   -0.64140  -0.63253  -0.61359  -0.60688  -0.60465
 Alpha  occ. eigenvalues --   -0.60286  -0.59686  -0.59550  -0.58890  -0.58764
 Alpha  occ. eigenvalues --   -0.58641  -0.58173  -0.57896  -0.57403  -0.57236
 Alpha  occ. eigenvalues --   -0.56455  -0.56298  -0.55964  -0.55785  -0.55688
 Alpha  occ. eigenvalues --   -0.55341  -0.55166  -0.54722  -0.54620  -0.54509
 Alpha  occ. eigenvalues --   -0.54030  -0.53743  -0.53698  -0.53093  -0.53091
 Alpha  occ. eigenvalues --   -0.52910  -0.52902  -0.52529  -0.52291  -0.52105
 Alpha  occ. eigenvalues --   -0.52011  -0.51859  -0.51624  -0.51333  -0.51246
 Alpha  occ. eigenvalues --   -0.51193  -0.50922  -0.50782  -0.50697  -0.50429
 Alpha  occ. eigenvalues --   -0.50235  -0.50106  -0.49884  -0.49875  -0.49576
 Alpha  occ. eigenvalues --   -0.49365  -0.49274  -0.49114  -0.49075  -0.48965
 Alpha  occ. eigenvalues --   -0.48921  -0.48635  -0.48597  -0.48556  -0.48380
 Alpha  occ. eigenvalues --   -0.48165  -0.47983  -0.47713  -0.47666  -0.47516
 Alpha  occ. eigenvalues --   -0.47392  -0.47322  -0.47035  -0.47019  -0.46773
 Alpha  occ. eigenvalues --   -0.46732  -0.46530  -0.46471  -0.46361  -0.46184
 Alpha  occ. eigenvalues --   -0.46178  -0.46004  -0.46001  -0.45618  -0.45443
 Alpha  occ. eigenvalues --   -0.45089  -0.45041  -0.44958  -0.44733  -0.44342
 Alpha  occ. eigenvalues --   -0.44291  -0.44178  -0.44008  -0.43951  -0.43666
 Alpha  occ. eigenvalues --   -0.43621  -0.43380  -0.43304  -0.43211  -0.42761
 Alpha  occ. eigenvalues --   -0.42745  -0.42632  -0.42344  -0.42152  -0.42099
 Alpha  occ. eigenvalues --   -0.41893  -0.41766  -0.41552  -0.41442  -0.41324
 Alpha  occ. eigenvalues --   -0.41211  -0.41012  -0.40904  -0.40765  -0.40305
 Alpha  occ. eigenvalues --   -0.40145  -0.40047  -0.39436  -0.39321  -0.39217
 Alpha  occ. eigenvalues --   -0.38942  -0.38725  -0.38293  -0.37747  -0.37691
 Alpha  occ. eigenvalues --   -0.37201  -0.36986  -0.36820  -0.36753  -0.36423
 Alpha  occ. eigenvalues --   -0.36223  -0.35985  -0.35105  -0.34348  -0.34003
 Alpha  occ. eigenvalues --   -0.33919  -0.33731  -0.32919  -0.31998  -0.31505
 Alpha  occ. eigenvalues --   -0.31245  -0.31133  -0.31042  -0.30903  -0.30146
 Alpha  occ. eigenvalues --   -0.29654  -0.29352  -0.28985  -0.24577  -0.24141
 Alpha  occ. eigenvalues --   -0.21616  -0.21064
 Alpha virt. eigenvalues --   -0.08998  -0.08733  -0.02115  -0.01811  -0.00706
 Alpha virt. eigenvalues --    0.00680   0.01107   0.01787   0.02793   0.03439
 Alpha virt. eigenvalues --    0.04199   0.04783   0.04873   0.05310   0.05352

 Mulliken charges:
               1
     1  Mg   0.828774
     2  C    0.048424
     3  C   -0.078994
     4  C   -0.067562
     5  C   -0.103463
     6  N   -0.255728
     7  C   -0.051987
     8  C   -0.000596
     9  C   -0.103533
    10  C    0.035588
    11  C    0.099433
    12  C    0.042541
    13  C   -0.062530
    14  H    0.014001
    15  N   -0.403939
    16  C    0.147211
    17  C   -0.142704
    18  C   -0.017948
    19  C    0.106352
    20  C    0.100350
    21  C    0.025226
    22  O   -0.202289
    23  C    0.059498
    24  N   -0.343353
    25  C    0.041681
    26  C   -0.041097
    27  C   -0.002477
    28  C    0.022952
    29  C    0.094457
    30  C    0.043959
    31  C   -0.014144
    32  N   -0.286873
    33  C    0.152990
    34  C   -0.160850
    35  C   -0.026720
    36  C    0.074247
    37  C    0.149307
    38  C    0.065518
    39  O   -0.154953
    40  C   -0.074488
    41  C    0.174477
    42  O   -0.224126
    43  O   -0.340806
    44  C    0.172973
    45  H   -0.041225
    46  H    0.001600
    47  H   -0.024386
    48  H    0.009380
    49  H   -0.002168
    50  H    0.017392
    51  H    0.021911
    52  H    0.015334
    53  H    0.009073
    54  H    0.039007
    55  H    0.023561
    56  H    0.035870
    57  H    0.015958
    58  H    0.027382
    59  H    0.025203
    60  H    0.036163
    61  H    0.022967
    62  H    0.027322
    63  H    0.010672
    64  H    0.007941
    65  H    0.017663
    66  H    0.025452
    67  H    0.006048
    68  H    0.012088
    69  H    0.010541
    70  H    0.018342
    71  H    0.023207
    72  H   -0.001813
    73  H    0.012635
    74  H    0.047854
    75  H    0.021329
    76  H    0.037241
    77  H    0.044527
    78  H    0.064956
    79  H    0.042176
    80  Mg   0.823441
    81  C   -0.024923
    82  C   -0.082122
    83  C   -0.031274
    84  C   -0.095582
    85  N   -0.272510
    86  C   -0.080850
    87  C    0.045115
    88  C   -0.108096
    89  C    0.036601
    90  C    0.079836
    91  C    0.047766
    92  C   -0.094586
    93  H    0.009795
    94  N   -0.388604
    95  C    0.149266
    96  C   -0.157952
    97  C   -0.043751
    98  C    0.147788
    99  C    0.134747
   100  C    0.013454
   101  O   -0.209364
   102  C    0.034088
   103  N   -0.199540
   104  C    0.025766
   105  C   -0.006848
   106  C   -0.076339
   107  C    0.051513
   108  C    0.059882
   109  C   -0.001655
   110  C    0.015457
   111  N   -0.315885
   112  C    0.114018
   113  C   -0.179604
   114  C    0.031397
   115  C    0.134950
   116  C    0.119671
   117  C    0.021357
   118  O   -0.182922
   119  C   -0.017361
   120  C    0.214347
   121  O   -0.176020
   122  O   -0.370318
   123  C    0.173451
   124  H   -0.036626
   125  H   -0.077632
   126  H   -0.024158
   127  H    0.012994
   128  H    0.010998
   129  H    0.013916
   130  H    0.017020
   131  H    0.032891
   132  H    0.019831
   133  H    0.021114
   134  H    0.051586
   135  H    0.052336
   136  H    0.053503
   137  H    0.017423
   138  H    0.015942
   139  H    0.036818
   140  H    0.036768
   141  H    0.025350
   142  H    0.009860
   143  H    0.001129
   144  H    0.012039
   145  H    0.014848
   146  H    0.005387
   147  H    0.019436
   148  H    0.001103
   149  H    0.020960
   150  H    0.015973
   151  H    0.009348
   152  H    0.021229
   153  H    0.031407
   154  H    0.046142
   155  H    0.038247
   156  H    0.048674
   157  H    0.026529
   158  H    0.030016
 Sum of Mulliken charges =  -0.00000

 Dipole moment (field-independent basis, Debye):
    X=             -6.4114    Y=             -1.5922    Z=             -0.3057  Tot=              6.6132
 Quadrupole moment (field-independent basis, Debye-Ang):
   XX=           -543.4144   YY=           -539.0942   ZZ=           -487.3392
   XY=           -105.0590   XZ=            -85.4765   YZ=             -7.8010

 Normal termination of Gaussian 16 at Thu Sep 16 01:08:47 2021.
