 Gaussian 16, Revision A.03,
 Gaussian 16:  ES64L-G16RevA.03 25-Dec-2016

 -----------------------------------
 #p cam-b3lyp/Def2SVP td=(nstates=5)
 -----------------------------------

 --------------------------------
 TDDFT excited states in gaussian
 --------------------------------
 Symbolic Z-matrix:
 Charge =  0 Multiplicity = 1

                         Standard orientation:
 ---------------------------------------------------------------------
 Center     Atomic      Atomic             Coordinates (Angstroms)
 Number     Number       Type             X           Y           Z
 ---------------------------------------------------------------------
      1         12           0       32.817557    0.374941   -0.306100
      2          6           0       30.707635   -2.216666    0.876492
      3          6           0       30.954043    2.555993    1.509925
      4          6           0       35.295619    2.655554   -0.772363
      5          6           0       34.882220   -2.061550   -1.652733
      6          7           0       31.121268    0.041671    1.149269
      7          6           0       30.336286   -1.047150    1.421950
      8          6           0       29.178082   -0.697790    2.280705
      9          6           0       29.116507    0.898391    2.175371
     10          6           0       30.458925    1.198582    1.601253
     11          6           0       27.953360    1.365360    1.315130
     12          6           0       29.438954   -1.305059    3.668074
     13          6           0       28.319522   -2.249420    4.278786
     14          1           0       27.703872   -1.972462    5.683411
     15          7           0       33.123786    2.345375    0.217509
     16          6           0       32.162083    3.095097    0.908929
     17          6           0       32.583658    4.463651    0.892086
     18          6           0       33.870923    4.547449    0.261573
     19          6           0       34.112575    3.153311   -0.197255
     20          6           0       31.699863    5.559621    1.473595
     21          6           0       34.755284    5.758005    0.062278
     22          8           0       34.210295    6.843445    0.416231
     23          6           0       36.237279    5.814100   -0.405011
     24          7           0       34.841598    0.331783   -1.118149
     25          6           0       35.642803    1.414446   -1.226883
     26          6           0       37.033488    1.087277   -1.832416
     27          6           0       36.847967   -0.421002   -2.217580
     28          6           0       35.425925   -0.756220   -1.563119
     29          6           0       37.305283    2.003667   -3.011950
     30          6           0       37.903148   -1.350702   -1.700839
     31          6           0       38.773227   -1.941890   -2.776657
     32          7           0       32.785385   -1.636393   -0.561818
     33          6           0       33.651477   -2.550608   -1.174895
     34          6           0       33.086415   -3.796747   -1.292854
     35          6           0       31.903449   -3.710343   -0.530786
     36          6           0       31.810869   -2.406801   -0.048465
     37          6           0       33.635123   -4.886452   -2.189410
     38          6           0       30.686881   -4.467528   -0.133078
     39          8           0       30.369614   -5.583482   -0.405965
     40          6           0       29.964834   -3.480643    0.860393
     41          6           0       28.481384   -3.578606    0.578576
     42          8           0       27.673306   -4.182195    1.284363
     43          8           0       28.150498   -2.834839   -0.580120
     44          6           0       26.708929   -2.794367   -0.823992
     45          1           0       30.247620    3.291969    1.900139
     46          1           0       36.075369    3.375447   -1.031962
     47          1           0       35.565851   -2.889104   -1.850167
     48          1           0       28.273307   -1.144312    1.868076
     49          1           0       28.976032    1.298698    3.179069
     50          1           0       27.767600    0.721140    0.456822
     51          1           0       28.216624    2.329886    0.879705
     52          1           0       27.031827    1.530242    1.873378
     53          1           0       29.602683   -0.473765    4.353665
     54          1           0       30.392591   -1.826790    3.748552
     55          1           0       28.874241   -3.186841    4.326764
     56          1           0       27.559219   -2.477922    3.532836
     57          1           0       31.372789    5.305916    2.481951
     58          1           0       30.817331    5.604659    0.835579
     59          1           0       32.150421    6.540767    1.629601
     60          1           0       36.175870    5.529453   -1.454910
     61          1           0       36.808998    5.083789    0.167718
     62          1           0       36.688001    6.795041   -0.251993
     63          1           0       37.863441    1.223334   -1.139503
     64          1           0       36.672043   -0.511065   -3.289205
     65          1           0       37.129845    3.027611   -2.681577
     66          1           0       36.606711    1.746206   -3.808719
     67          1           0       38.255329    1.929235   -3.539721
     68          1           0       37.502677   -2.221669   -1.182045
     69          1           0       38.592735   -0.946869   -0.959825
     70          1           0       39.810823   -1.733087   -2.519021
     71          1           0       38.629728   -1.464606   -3.746043
     72          1           0       38.604957   -3.004548   -2.954655
     73          1           0       32.820068   -5.597140   -2.329930
     74          1           0       34.490111   -5.396075   -1.745774
     75          1           0       33.924812   -4.370354   -3.104465
     76          1           0       30.072577   -4.004385    1.810931
     77          1           0       26.439938   -1.892933   -1.374758
     78          1           0       26.152411   -2.664786    0.103147
     79          1           0       26.333916   -3.689425   -1.321078
     80         12           0      -32.854200   -0.395172   -0.574026
     81          6           0      -30.371425    1.980859    0.444166
     82          6           0      -30.937841   -2.857333    1.094628
     83          6           0      -35.474410   -2.476588   -0.824009
     84          6           0      -34.856111    2.245793   -1.538925
     85          7           0      -30.857313   -0.458557    0.637654
     86          6           0      -30.117514    0.660752    0.898464
     87          6           0      -29.067804    0.344170    1.951902
     88          6           0      -29.133072   -1.238927    1.881695
     89          6           0      -30.379353   -1.609097    1.171925
     90          6           0      -27.918986   -1.978340    1.225562
     91          6           0      -29.414751    1.070126    3.291213
     92          6           0      -28.278202    1.822428    4.098108
     93          1           0      -27.920143    1.360164    5.522003
     94          7           0      -33.122581   -2.363400   -0.154057
     95          6           0      -32.226965   -3.234496    0.520511
     96          6           0      -32.781652   -4.573372    0.597240
     97          6           0      -34.116938   -4.441546    0.036709
     98          6           0      -34.260917   -3.048965   -0.344243
     99          6           0      -32.075215   -5.667520    1.282772
    100          6           0      -35.084681   -5.630066   -0.098380
    101          8           0      -34.698442   -6.726111    0.402989
    102          6           0      -36.465026   -5.588155   -0.787712
    103          7           0      -35.016270   -0.167380   -0.858469
    104          6           0      -35.831631   -1.177625   -1.092811
    105          6           0      -37.179922   -0.630156   -1.433732
    106          6           0      -36.919133    0.874626   -1.710758
    107          6           0      -35.500870    1.040052   -1.258491
    108          6           0      -38.042020   -1.303958   -2.585279
    109          6           0      -37.927299    1.897339   -0.971440
    110          6           0      -38.862874    2.771402   -1.842165
    111          7           0      -32.633435    1.624109   -0.753181
    112          6           0      -33.508106    2.562906   -1.152179
    113          6           0      -32.938405    3.859466   -1.104698
    114          6           0      -31.684470    3.659081   -0.522846
    115          6           0      -31.546281    2.269410   -0.277938
    116          6           0      -33.466616    5.167002   -1.540121
    117          6           0      -30.545010    4.398330   -0.074283
    118          8           0      -30.380204    5.597632   -0.066512
    119          6           0      -29.597452    3.255774    0.663010
    120          6           0      -28.283426    3.201679    0.011348
    121          8           0      -28.084669    3.223201   -1.209942
    122          8           0      -27.347781    3.093624    1.018032
    123          6           0      -25.948501    3.027396    0.599787
    124          1           0      -30.391339   -3.662063    1.588775
    125          1           0      -36.385793   -3.077490   -0.830836
    126          1           0      -35.353758    3.079285   -2.039388
    127          1           0      -28.106681    0.616854    1.515269
    128          1           0      -29.307085   -1.425579    2.942054
    129          1           0      -28.311864   -2.583608    0.407364
    130          1           0      -27.400027   -2.665200    1.893781
    131          1           0      -27.176162   -1.336116    0.751436
    132          1           0      -29.770555    0.215077    3.865583
    133          1           0      -30.250454    1.768465    3.252251
    134          1           0      -28.594138    2.865417    4.109224
    135          1           0      -27.397497    1.885258    3.459681
    136          1           0      -31.821963   -5.292827    2.274800
    137          1           0      -31.124520   -5.863964    0.787536
    138          1           0      -32.546370   -6.650698    1.295427
    139          1           0      -37.142655   -5.023413   -0.147198
    140          1           0      -36.629758   -6.615304   -1.111517
    141          1           0      -36.260664   -5.017364   -1.694173
    142          1           0      -37.800395   -0.762652   -0.548279
    143          1           0      -36.871402    0.893226   -2.799628
    144          1           0      -39.074987   -1.108527   -2.296288
    145          1           0      -37.794401   -2.364562   -2.626052
    146          1           0      -37.798948   -0.770073   -3.504129
    147          1           0      -37.263658    2.516590   -0.368167
    148          1           0      -38.479244    1.326680   -0.224690
    149          1           0      -38.835913    3.824354   -1.564875
    150          1           0      -39.879871    2.389649   -1.748441
    151          1           0      -38.670949    2.687138   -2.911984
    152          1           0      -32.672124    5.901800   -1.666417
    153          1           0      -34.094164    5.363914   -0.670727
    154          1           0      -34.222532    4.985942   -2.304156
    155          1           0      -29.581309    3.392376    1.743704
    156          1           0      -25.691516    3.839682   -0.080483
    157          1           0      -25.748090    2.060756    0.135334
    158          1           0      -25.316593    3.133238    1.481631
 ---------------------------------------------------------------------

 SCF Done:  E(RCAM-B3LYP) =  -4069.79063344     A.U. after   17 cycles

 Excitation energies and oscillator strengths:

 Excited State   1:      Singlet-A      1.6837 eV  736.38 nm  f=0.3558  <S**2>=0.000
     309 -> 315       -0.17392
     311 -> 313        0.68683
     309 <- 315       -0.10795
 This state for optimization and/or second-order correction.
 Total Energy, E(TD-HF/TD-DFT) =  -4069.72875886
 Copying the excited state density for this state as the 1-particle RhoCI density.

 Excited State   2:      Singlet-A      1.6989 eV  729.78 nm  f=0.3956  <S**2>=0.000
     310 -> 316        0.18537
     312 -> 314        0.68534
     310 <- 316        0.11150

 Excited State   3:      Singlet-A      2.2196 eV  558.59 nm  f=0.1601  <S**2>=0.000
     309 -> 313        0.64873
     311 -> 315        0.26683

 Excited State   4:      Singlet-A      2.2522 eV  550.50 nm  f=0.1326  <S**2>=0.000
     310 -> 314        0.64099
     312 -> 316       -0.28911

 Excited State   5:      Singlet-A      3.1138 eV  398.18 nm  f=0.0000  <S**2>=0.000
     312 -> 313        0.70711

 The electronic state is 1-A.
 Alpha  occ. eigenvalues --  -46.89029 -46.88912 -19.26282 -19.25650 -19.21031
 Alpha  occ. eigenvalues --  -19.20566 -19.19876 -19.19746 -19.18324 -19.18137
 Alpha  occ. eigenvalues --  -14.42392 -14.42251 -14.41939 -14.41406 -14.40110
 Alpha  occ. eigenvalues --  -14.39938 -14.39831 -14.39020 -10.40376 -10.40103
 Alpha  occ. eigenvalues --  -10.35684 -10.35501 -10.35454 -10.35250 -10.32459
 Alpha  occ. eigenvalues --  -10.32007 -10.31685 -10.31196 -10.31144 -10.30877
 Alpha  occ. eigenvalues --  -10.30779 -10.30688 -10.30657 -10.30641 -10.30572
 Alpha  occ. eigenvalues --  -10.30404 -10.30333 -10.30315 -10.29761 -10.29087
 Alpha  occ. eigenvalues --  -10.29081 -10.28954 -10.28884 -10.28738 -10.28591
 Alpha  occ. eigenvalues --  -10.28567 -10.28563 -10.28559 -10.28426 -10.28349
 Alpha  occ. eigenvalues --  -10.28341 -10.28225 -10.28106 -10.28007 -10.27784
 Alpha  occ. eigenvalues --  -10.27748 -10.27631 -10.27597 -10.27524 -10.27500
 Alpha  occ. eigenvalues --  -10.27492 -10.27476 -10.27460 -10.27393 -10.27321
 Alpha  occ. eigenvalues --  -10.27237 -10.27203 -10.27055 -10.27002 -10.26992
 Alpha  occ. eigenvalues --  -10.26790 -10.26780 -10.26681 -10.26608 -10.26512
 Alpha  occ. eigenvalues --  -10.26440 -10.26410 -10.26315 -10.26240 -10.26079
 Alpha  occ. eigenvalues --  -10.25973 -10.25389 -10.25223 -10.25106 -10.25053
 Alpha  occ. eigenvalues --  -10.24567  -3.17593  -3.17466  -1.92473  -1.92356
 Alpha  occ. eigenvalues --   -1.92054  -1.91910  -1.91898  -1.91783  -1.16551
 Alpha  occ. eigenvalues --   -1.15612  -1.12064  -1.10827  -1.08176  -1.07974
 Alpha  occ. eigenvalues --   -1.07650  -1.07247  -1.05457  -1.05275  -1.04731
 Alpha  occ. eigenvalues --   -1.04295  -1.03748  -1.03379  -1.02775  -1.02345
 Alpha  occ. eigenvalues --   -0.93341  -0.93187  -0.89957  -0.89344  -0.89332
 Alpha  occ. eigenvalues --   -0.89085  -0.88290  -0.88138  -0.87977  -0.87888
 Alpha  occ. eigenvalues --   -0.87480  -0.87035  -0.86012  -0.85976  -0.84862
 Alpha  occ. eigenvalues --   -0.84642  -0.84302  -0.83864  -0.82733  -0.82657
 Alpha  occ. eigenvalues --   -0.82023  -0.81974  -0.81372  -0.80727  -0.80520
 Alpha  occ. eigenvalues --   -0.80491  -0.78228  -0.77838  -0.77653  -0.77486
 Alpha  occ. eigenvalues --   -0.76923  -0.76884  -0.76523  -0.76305  -0.75534
 Alpha  occ. eigenvalues --   -0.75350  -0.73551  -0.73202  -0.72251  -0.72220
 Alpha  occ. eigenvalues --   -0.69818  -0.69437  -0.69393  -0.69014  -0.68489
 Alpha  occ. eigenvalues --   -0.67740  -0.67262  -0.66756  -0.66377  -0.66160
 Alpha  occ. eigenvalues --   -0.65722  -0.65641  -0.65378  -0.65124  -0.64959
 Alpha  occ. eigenvalues --   -0.64771  -0.63149  -0.62966  -0.60557  -0.60150
 Alpha  occ. eigenvalues --   -0.60121  -0.59909  -0.59622  -0.59552  -0.58987
 Alpha  occ. eigenvalues --   -0.58923  -0.58438  -0.58084  -0.57599  -0.56916
 Alpha  occ. eigenvalues --   -0.56255  -0.56245  -0.55990  -0.55855  -0.55657
 Alpha  occ. eigenvalues --   -0.55655  -0.54975  -0.54866  -0.54510  -0.54376
 Alpha  occ. eigenvalues --   -0.53927  -0.53700  -0.53616  -0.53299  -0.53234
 Alpha  occ. eigenvalues --   -0.52943  -0.52727  -0.52639  -0.52312  -0.52102
 Alpha  occ. eigenvalues --   -0.52072  -0.51771  -0.51741  -0.51420  -0.51234
 Alpha  occ. eigenvalues --   -0.51148  -0.50904  -0.50587  -0.50572  -0.50343
 Alpha  occ. eigenvalues --   -0.50318  -0.50069  -0.50035  -0.49977  -0.49894
 Alpha  occ. eigenvalues --   -0.49684  -0.49572  -0.49414  -0.48939  -0.48792
 Alpha  occ. eigenvalues --   -0.48675  -0.48469  -0.48368  -0.48022  -0.47943
 Alpha  occ. eigenvalues --   -0.47756  -0.47748  -0.47659  -0.47597  -0.47456
 Alpha  occ. eigenvalues --   -0.47240  -0.47037  -0.46913  -0.46651  -0.46632
 Alpha  occ. eigenvalues --   -0.46487  -0.46459  -0.46132  -0.46046  -0.45939
 Alpha  occ. eigenvalues --   -0.45936  -0.45773  -0.45627  -0.45521  -0.45381
 Alpha  occ. eigenvalues --   -0.45334  -0.45178  -0.44987  -0.44912  -0.44544
 Alpha  occ. eigenvalues --   -0.44079  -0.43995  -0.43781  -0.43691  -0.43662
 Alpha  occ. eigenvalues --   -0.43563  -0.43294  -0.43281  -0.43090  -0.42952
 Alpha  occ. eigenvalues --   -0.42812  -0.42679  -0.42526  -0.42462  -0.42436
 Alpha  occ. eigenvalues --   -0.42328  -0.42099  -0.41760  -0.41605  -0.41530
 Alpha  occ. eigenvalues --   -0.41419  -0.41233  -0.41136  -0.41110  -0.40858
 Alpha  occ. eigenvalues --   -0.40339  -0.40233  -0.40156  -0.39062  -0.38931
 Alpha  occ. eigenvalues --   -0.38800  -0.38749  -0.38253  -0.38248  -0.37835
 Alpha  occ. eigenvalues --   -0.37729  -0.37643  -0.37354  -0.37278  -0.36452
 Alpha  occ. eigenvalues --   -0.36448  -0.35856  -0.35438  -0.35194  -0.34723
 Alpha  occ. eigenvalues --   -0.34116  -0.33213  -0.33021  -0.31771  -0.31335
 Alpha  occ. eigenvalues --   -0.31148  -0.31130  -0.30605  -0.30337  -0.30114
 Alpha  occ. eigenvalues --   -0.30041  -0.29812  -0.29374  -0.24435  -0.24174
 Alpha  occ. eigenvalues --   -0.21666  -0.21316
 Alpha virt. eigenvalues --   -0.09350  -0.08932  -0.01856  -0.01736   0.00206
 Alpha virt. eigenvalues --    0.00278   0.01779   0.02296   0.02383   0.02421
 Alpha virt. eigenvalues --    0.04124   0.04243   0.04997   0.05004   0.05686

 Mulliken charges:
               1
     1  Mg   0.834314
     2  C    0.054447
     3  C   -0.069509
     4  C   -0.042653
     5  C   -0.089382
     6  N   -0.294801
     7  C   -0.091760
     8  C   -0.014623
     9  C   -0.026238
    10  C    0.046684
    11  C    0.078050
    12  C    0.043292
    13  C   -0.061166
    14  H    0.031818
    15  N   -0.389554
    16  C    0.137842
    17  C   -0.128902
    18  C   -0.023670
    19  C    0.152817
    20  C    0.116430
    21  C   -0.020001
    22  O   -0.248437
    23  C    0.085880
    24  N   -0.230546
    25  C   -0.019134
    26  C    0.006701
    27  C   -0.010750
    28  C    0.025317
    29  C    0.055027
    30  C    0.043141
    31  C   -0.008610
    32  N   -0.375661
    33  C    0.100445
    34  C   -0.182940
    35  C   -0.033737
    36  C    0.116684
    37  C    0.133509
    38  C    0.043072
    39  O   -0.120472
    40  C    0.002791
    41  C    0.187314
    42  O   -0.212264
    43  O   -0.363341
    44  C    0.180002
    45  H   -0.018613
    46  H   -0.075967
    47  H   -0.016210
    48  H    0.012630
    49  H    0.010829
    50  H    0.016015
    51  H    0.003201
    52  H    0.023982
    53  H    0.006981
    54  H    0.023792
    55  H    0.028349
    56  H    0.033073
    57  H    0.012509
    58  H    0.023908
    59  H    0.040151
    60  H    0.042589
    61  H    0.043390
    62  H    0.036494
    63  H    0.016290
    64  H    0.018831
    65  H    0.011203
    66  H    0.003371
    67  H    0.016391
    68  H    0.007505
    69  H    0.001225
    70  H    0.009135
    71  H    0.000924
    72  H    0.018436
    73  H    0.037279
    74  H    0.028801
    75  H    0.024980
    76  H    0.038878
    77  H    0.028874
    78  H    0.028180
    79  H    0.045170
    80  Mg   0.845474
    81  C   -0.112938
    82  C   -0.073113
    83  C   -0.090996
    84  C   -0.092594
    85  N   -0.247116
    86  C   -0.075176
    87  C   -0.009291
    88  C   -0.029568
    89  C    0.035780
    90  C    0.076708
    91  C    0.033472
    92  C   -0.045955
    93  H    0.033771
    94  N   -0.393818
    95  C    0.113879
    96  C   -0.127926
    97  C   -0.056949
    98  C    0.207470
    99  C    0.128626
   100  C   -0.019436
   101  O   -0.248922
   102  C    0.082582
   103  N   -0.275369
   104  C   -0.016079
   105  C   -0.039397
   106  C   -0.051950
   107  C    0.065264
   108  C    0.078743
   109  C    0.053581
   110  C    0.008850
   111  N   -0.340868
   112  C    0.091980
   113  C   -0.194210
   114  C   -0.020904
   115  C    0.159329
   116  C    0.167681
   117  C    0.065263
   118  O   -0.152081
   119  C    0.021577
   120  C    0.224369
   121  O   -0.224388
   122  O   -0.341396
   123  C    0.178506
   124  H   -0.025594
   125  H   -0.057475
   126  H   -0.022570
   127  H   -0.004137
   128  H    0.003353
   129  H    0.016660
   130  H    0.023094
   131  H    0.015150
   132  H    0.006912
   133  H    0.030308
   134  H    0.025808
   135  H    0.020586
   136  H    0.025876
   137  H    0.010151
   138  H    0.043818
   139  H    0.062293
   140  H    0.038778
   141  H    0.023403
   142  H    0.011769
   143  H    0.009055
   144  H    0.018288
   145  H    0.020281
   146  H    0.011082
   147  H    0.009907
   148  H    0.000818
   149  H    0.024633
   150  H    0.014035
   151  H    0.012619
   152  H    0.056977
   153  H    0.022578
   154  H    0.007145
   155  H    0.030639
   156  H    0.047769
   157  H    0.034989
   158  H    0.038539
 Sum of Mulliken charges =  -0.00000

 Dipole moment (field-independent basis, Debye):
    X=              1.0787    Y=              2.0377    Z=             -2.0942  Tot=              3.1147
 Quadrupole moment (field-independent basis, Debye-Ang):
   XX=           -195.2574   YY=           -618.5068   ZZ=           -507.1126
   XY=             24.7931   XZ=            -63.4893   YZ=              8.7509

 Normal termination of Gaussian 16 at Wed Sep 15 17:34:58 2021.
