 Gaussian 16, Revision A.03,
 Gaussian 16:  ES64L-G16RevA.03 25-Dec-2016

 ----------------------------------------------------------
 #p cam-b3lyp/Def2SVP td=(nstates=5) density=(transition=1)
 ----------------------------------------------------------

 --------------------------------
 TDDFT excited states in gaussian
 --------------------------------
 Symbolic Z-matrix:
 Charge =  0 Multiplicity = 1

                         Standard orientation:
 ---------------------------------------------------------------------
 Center     Atomic      Atomic             Coordinates (Angstroms)
 Number     Number       Type             X           Y           Z
 ---------------------------------------------------------------------
      1         12           0       -4.399126   -0.500555    0.969639
      2          6           0       -5.302815    2.753369    0.035416
      3          6           0       -1.397922    0.827518    2.298169
      4          6           0       -3.338184   -3.668717    1.575142
      5          6           0       -6.971937   -1.705204   -0.992626
      6          7           0       -3.595229    1.543355    1.266453
      7          6           0       -4.270575    2.722879    0.939915
      8          6           0       -3.616133    3.922180    1.715833
      9          6           0       -2.361736    3.281892    2.321517
     10          6           0       -2.418351    1.772764    1.897515
     11          6           0       -1.084029    3.983630    1.787414
     12          6           0       -4.635683    4.476902    2.703153
     13          6           0       -4.534376    5.944283    3.086194
     14          1           0       -3.243020    6.709009    2.717430
     15          7           0       -2.639810   -1.354038    1.823933
     16          6           0       -1.514769   -0.639744    2.277954
     17          6           0       -0.488960   -1.551137    2.753854
     18          6           0       -1.017919   -2.896524    2.636521
     19          6           0       -2.374884   -2.678358    1.973899
     20          6           0        0.810140   -1.109124    3.439568
     21          6           0       -0.429161   -4.234178    3.041839
     22          8           0       -1.062871   -5.266402    2.866830
     23          6           0        0.818285   -4.247808    3.838992
     24          7           0       -5.135155   -2.421053    0.407420
     25          6           0       -4.565418   -3.570424    0.865410
     26          6           0       -5.456698   -4.782611    0.488249
     27          6           0       -6.677681   -4.156860   -0.291231
     28          6           0       -6.335496   -2.646165   -0.219393
     29          6           0       -4.650775   -5.804930   -0.333011
     30          6           0       -8.065708   -4.413262    0.353558
     31          6           0       -8.773756   -5.529226   -0.408418
     32          7           0       -5.826517    0.269201   -0.352358
     33          6           0       -6.766089   -0.303491   -1.143061
     34          6           0       -7.325011    0.762870   -2.009230
     35          6           0       -6.880054    1.959638   -1.528904
     36          6           0       -5.928633    1.593015   -0.543011
     37          6           0       -8.371662    0.458274   -3.067755
     38          6           0       -6.965552    3.423526   -1.616461
     39          8           0       -7.627666    4.115856   -2.380088
     40          6           0       -6.018991    3.945037   -0.552589
     41          6           0       -5.168228    4.933491   -1.233974
     42          8           0       -4.196296    4.771495   -1.984201
     43          8           0       -5.685322    6.182814   -0.958548
     44          6           0       -5.035783    7.309843   -1.591820
     45          1           0       -0.523994    1.281802    2.769210
     46          1           0       -2.972904   -4.644748    1.901417
     47          1           0       -7.703648   -2.169402   -1.657250
     48          1           0       -3.393892    4.593234    0.885255
     49          1           0       -2.377536    3.542681    3.379697
     50          1           0       -0.469988    3.376132    1.122366
     51          1           0       -0.402485    4.051415    2.634881
     52          1           0       -1.312566    4.907451    1.256331
     53          1           0       -4.568823    3.805092    3.559439
     54          1           0       -5.636753    4.278138    2.322280
     55          1           0       -4.723852    6.037562    4.154685
     56          1           0       -5.399308    6.356262    2.565136
     57          1           0        0.985288   -0.033698    3.404311
     58          1           0        1.663644   -1.594016    2.963862
     59          1           0        0.815802   -1.501171    4.455921
     60          1           0        0.615956   -3.788317    4.806801
     61          1           0        1.660916   -3.876583    3.255718
     62          1           0        1.113451   -5.261144    4.111432
     63          1           0       -5.737338   -5.283164    1.414675
     64          1           0       -6.565874   -4.506698   -1.318326
     65          1           0       -5.044138   -6.059838   -1.316651
     66          1           0       -4.773271   -6.675077    0.311569
     67          1           0       -3.631229   -5.498452   -0.565198
     68          1           0       -8.740152   -3.584414    0.137793
     69          1           0       -8.018841   -4.662184    1.413889
     70          1           0       -9.141295   -6.184436    0.381191
     71          1           0       -8.105330   -6.186250   -0.964331
     72          1           0       -9.591923   -5.209915   -1.054577
     73          1           0       -8.505790   -0.598417   -3.300535
     74          1           0       -8.181365    0.976516   -4.006805
     75          1           0       -9.351811    0.697568   -2.653762
     76          1           0       -6.622987    4.396153    0.234004
     77          1           0       -4.964510    7.091699   -2.657696
     78          1           0       -4.033636    7.506149   -1.210052
     79          1           0       -5.803117    8.082440   -1.627047
     80         12           0        3.889754   -0.828312   -0.976647
     81          6           0        6.303863    1.772062   -0.366454
     82          6           0        1.488904    1.594047   -0.828525
     83          6           0        1.630239   -3.293352   -1.240526
     84          6           0        6.388175   -3.101586   -0.600783
     85          7           0        3.933807    1.530056   -0.670355
     86          6           0        5.053569    2.289886   -0.493649
     87          6           0        4.632609    3.709165   -0.555110
     88          6           0        3.079153    3.676286   -0.563000
     89          6           0        2.726306    2.166047   -0.647571
     90          6           0        2.476759    4.314038    0.729227
     91          6           0        5.212768    4.519958   -1.686828
     92          6           0        5.025819    6.028593   -1.690501
     93          1           0        6.228385    6.846245   -1.912335
     94          7           0        1.879669   -0.833673   -1.137451
     95          6           0        1.027493    0.289556   -0.950534
     96          6           0       -0.343199   -0.172528   -1.239146
     97          6           0       -0.280219   -1.563371   -1.261278
     98          6           0        1.133956   -1.963428   -1.146298
     99          6           0       -1.507850    0.795039   -1.269110
    100          6           0       -1.408850   -2.597195   -1.464561
    101          8           0       -1.286401   -3.816739   -1.244473
    102          6           0       -2.693057   -2.088240   -1.979460
    103          7           0        3.960348   -2.943051   -0.866152
    104          6           0        2.947099   -3.772250   -1.010599
    105          6           0        3.351204   -5.267664   -0.894398
    106          6           0        4.876321   -5.152946   -0.944983
    107          6           0        5.091500   -3.660249   -0.843622
    108          6           0        2.831205   -5.902835    0.439217
    109          6           0        5.567492   -5.751517   -2.149297
    110          6           0        6.855818   -6.549219   -1.880036
    111          7           0        5.919045   -0.687529   -0.663872
    112          6           0        6.809393   -1.732244   -0.545052
    113          6           0        8.209625   -1.237163   -0.382250
    114          6           0        7.964102    0.118383   -0.295707
    115          6           0        6.600901    0.415432   -0.412921
    116          6           0        9.487781   -2.008531   -0.461665
    117          6           0        8.653237    1.387638   -0.115265
    118          8           0        9.860523    1.575627   -0.016153
    119          6           0        7.614355    2.531805   -0.153428
    120          6           0        7.854176    3.341437    1.013838
    121          8           0        7.536044    3.071923    2.197171
    122          8           0        8.340449    4.560346    0.650157
    123          6           0        8.389936    5.612438    1.641799
    124          1           0        0.718341    2.366376   -0.869540
    125          1           0        0.894781   -4.096326   -1.160021
    126          1           0        7.057409   -3.896729   -0.266195
    127          1           0        4.984292    4.103704    0.397278
    128          1           0        2.656061    4.214532   -1.411343
    129          1           0        1.704424    5.083738    0.716619
    130          1           0        3.337503    4.757078    1.229912
    131          1           0        2.152623    3.601597    1.488296
    132          1           0        4.760492    4.246220   -2.640190
    133          1           0        6.227190    4.207758   -1.933429
    134          1           0        4.618928    6.368088   -0.739164
    135          1           0        4.483739    6.245234   -2.610632
    136          1           0       -2.383396    0.459467   -0.713703
    137          1           0       -1.844421    1.053247   -2.272974
    138          1           0       -1.318150    1.756346   -0.790977
    139          1           0       -2.494294   -1.491588   -2.869854
    140          1           0       -3.033982   -1.455013   -1.161118
    141          1           0       -3.258809   -2.960218   -2.305535
    142          1           0        2.940417   -5.760107   -1.776455
    143          1           0        5.416494   -5.562508   -0.091896
    144          1           0        3.651254   -6.146598    1.113995
    145          1           0        2.320540   -6.847996    0.254771
    146          1           0        2.195324   -5.141086    0.890578
    147          1           0        5.790266   -4.998110   -2.904174
    148          1           0        4.763565   -6.250114   -2.689810
    149          1           0        6.937861   -7.287313   -2.677306
    150          1           0        6.912660   -6.939988   -0.863610
    151          1           0        7.605604   -5.761747   -1.953302
    152          1           0       10.000366   -1.929318   -1.420535
    153          1           0        9.237400   -3.011166   -0.116235
    154          1           0       10.132355   -1.716692    0.368394
    155          1           0        7.940698    3.162792   -0.980093
    156          1           0        7.918409    5.363629    2.592886
    157          1           0        8.013211    6.547768    1.228775
    158          1           0        9.414217    5.876550    1.906148
 ---------------------------------------------------------------------

 SCF Done:  E(RCAM-B3LYP) =  -4069.81774524     A.U. after   19 cycles

 Excitation energies and oscillator strengths:

 Excited State   1:      Singlet-A      1.6612 eV  746.36 nm  f=0.5631  <S**2>=0.000
     310 -> 316       -0.12930
     311 -> 313        0.65563
     312 -> 313        0.11010
     312 -> 314        0.17808
 This state for optimization and/or second-order correction.
 Total Energy, E(TD-HF/TD-DFT) =  -4069.75669745
 Copying the excited state density for this state as the 1-particle RhoCI density.

 Excited State   2:      Singlet-A      1.7493 eV  708.78 nm  f=0.2609  <S**2>=0.000
     309 -> 315       -0.16050
     311 -> 313       -0.16695
     312 -> 314        0.65098

 Excited State   3:      Singlet-A      2.0599 eV  601.88 nm  f=0.0127  <S**2>=0.000
     309 -> 313        0.10223
     310 -> 313       -0.16730
     311 -> 313       -0.12007
     312 -> 313        0.65808

 Excited State   4:      Singlet-A      2.2028 eV  562.84 nm  f=0.0622  <S**2>=0.000
     309 -> 313       -0.32125
     310 -> 313        0.51769
     311 -> 316        0.24490
     312 -> 313        0.21091

 Excited State   5:      Singlet-A      2.3232 eV  533.68 nm  f=0.0610  <S**2>=0.000
     309 -> 314        0.48692
     310 -> 314        0.33806
     311 -> 314        0.16127
     312 -> 315        0.32387

 The electronic state is 1-A.
 Alpha  occ. eigenvalues --  -46.89548 -46.88497 -19.25220 -19.24841 -19.20244
 Alpha  occ. eigenvalues --  -19.19534 -19.19175 -19.18983 -19.18903 -19.18561
 Alpha  occ. eigenvalues --  -14.42505 -14.41946 -14.41899 -14.41120 -14.40449
 Alpha  occ. eigenvalues --  -14.39716 -14.39580 -14.39501 -10.39780 -10.39199
 Alpha  occ. eigenvalues --  -10.35655 -10.35438 -10.35050 -10.34414 -10.32291
 Alpha  occ. eigenvalues --  -10.31445 -10.31332 -10.31325 -10.31291 -10.31168
 Alpha  occ. eigenvalues --  -10.30934 -10.30782 -10.30599 -10.30547 -10.30418
 Alpha  occ. eigenvalues --  -10.30375 -10.30297 -10.30200 -10.30022 -10.29637
 Alpha  occ. eigenvalues --  -10.29518 -10.29327 -10.28833 -10.28785 -10.28704
 Alpha  occ. eigenvalues --  -10.28572 -10.28373 -10.28320 -10.28175 -10.28154
 Alpha  occ. eigenvalues --  -10.28154 -10.28042 -10.27952 -10.27946 -10.27931
 Alpha  occ. eigenvalues --  -10.27909 -10.27757 -10.27587 -10.27582 -10.27508
 Alpha  occ. eigenvalues --  -10.27429 -10.27233 -10.27104 -10.27097 -10.27074
 Alpha  occ. eigenvalues --  -10.26915 -10.26864 -10.26720 -10.26477 -10.26451
 Alpha  occ. eigenvalues --  -10.26359 -10.26297 -10.26249 -10.26181 -10.26148
 Alpha  occ. eigenvalues --  -10.26059 -10.25937 -10.25910 -10.25874 -10.25770
 Alpha  occ. eigenvalues --  -10.25731 -10.25703 -10.25002 -10.24992 -10.24687
 Alpha  occ. eigenvalues --  -10.24529  -3.17983  -3.17107  -1.92920  -1.92387
 Alpha  occ. eigenvalues --   -1.92302  -1.92018  -1.91554  -1.91417  -1.16192
 Alpha  occ. eigenvalues --   -1.16168  -1.10389  -1.10259  -1.09437  -1.08910
 Alpha  occ. eigenvalues --   -1.07293  -1.06021  -1.05770  -1.04578  -1.04535
 Alpha  occ. eigenvalues --   -1.03062  -1.02988  -1.02956  -1.02118  -1.01877
 Alpha  occ. eigenvalues --   -0.93650  -0.93139  -0.90098  -0.89619  -0.89311
 Alpha  occ. eigenvalues --   -0.88804  -0.88395  -0.88019  -0.87432  -0.87293
 Alpha  occ. eigenvalues --   -0.86997  -0.86936  -0.86547  -0.85828  -0.84648
 Alpha  occ. eigenvalues --   -0.84532  -0.84080  -0.83955  -0.82960  -0.82914
 Alpha  occ. eigenvalues --   -0.82395  -0.82307  -0.81195  -0.81112  -0.80831
 Alpha  occ. eigenvalues --   -0.80216  -0.78357  -0.78148  -0.77593  -0.77424
 Alpha  occ. eigenvalues --   -0.77395  -0.77103  -0.76617  -0.76110  -0.75225
 Alpha  occ. eigenvalues --   -0.74608  -0.72912  -0.72728  -0.71968  -0.71159
 Alpha  occ. eigenvalues --   -0.69558  -0.69366  -0.69186  -0.68554  -0.68093
 Alpha  occ. eigenvalues --   -0.68059  -0.67223  -0.66431  -0.66399  -0.65440
 Alpha  occ. eigenvalues --   -0.65344  -0.65264  -0.65084  -0.64831  -0.64508
 Alpha  occ. eigenvalues --   -0.64111  -0.62563  -0.62432  -0.60296  -0.60215
 Alpha  occ. eigenvalues --   -0.59988  -0.59795  -0.59433  -0.59364  -0.59073
 Alpha  occ. eigenvalues --   -0.58711  -0.58527  -0.58402  -0.57783  -0.57551
 Alpha  occ. eigenvalues --   -0.56325  -0.56112  -0.55928  -0.55764  -0.55419
 Alpha  occ. eigenvalues --   -0.55337  -0.54956  -0.54477  -0.54103  -0.54003
 Alpha  occ. eigenvalues --   -0.53798  -0.53714  -0.53579  -0.53480  -0.53371
 Alpha  occ. eigenvalues --   -0.53134  -0.53033  -0.52975  -0.52885  -0.52238
 Alpha  occ. eigenvalues --   -0.51977  -0.51897  -0.51828  -0.51664  -0.51565
 Alpha  occ. eigenvalues --   -0.51119  -0.50954  -0.50754  -0.50364  -0.50329
 Alpha  occ. eigenvalues --   -0.50277  -0.49953  -0.49891  -0.49673  -0.49604
 Alpha  occ. eigenvalues --   -0.49338  -0.49300  -0.49210  -0.48998  -0.48920
 Alpha  occ. eigenvalues --   -0.48574  -0.48381  -0.48317  -0.48150  -0.48026
 Alpha  occ. eigenvalues --   -0.47877  -0.47651  -0.47513  -0.47389  -0.47326
 Alpha  occ. eigenvalues --   -0.47026  -0.46893  -0.46738  -0.46653  -0.46474
 Alpha  occ. eigenvalues --   -0.46280  -0.46202  -0.46023  -0.45790  -0.45507
 Alpha  occ. eigenvalues --   -0.45365  -0.45225  -0.45082  -0.45024  -0.44767
 Alpha  occ. eigenvalues --   -0.44603  -0.44533  -0.44392  -0.44285  -0.43920
 Alpha  occ. eigenvalues --   -0.43871  -0.43728  -0.43595  -0.43533  -0.43328
 Alpha  occ. eigenvalues --   -0.43207  -0.43107  -0.43051  -0.42962  -0.42677
 Alpha  occ. eigenvalues --   -0.42584  -0.42512  -0.42399  -0.42083  -0.41886
 Alpha  occ. eigenvalues --   -0.41806  -0.41748  -0.41725  -0.41624  -0.41445
 Alpha  occ. eigenvalues --   -0.41351  -0.41079  -0.41009  -0.40768  -0.40499
 Alpha  occ. eigenvalues --   -0.40225  -0.40098  -0.39940  -0.39236  -0.38807
 Alpha  occ. eigenvalues --   -0.38468  -0.38230  -0.38080  -0.37858  -0.37802
 Alpha  occ. eigenvalues --   -0.37020  -0.36721  -0.36604  -0.36066  -0.36041
 Alpha  occ. eigenvalues --   -0.35947  -0.35691  -0.34781  -0.34358  -0.33836
 Alpha  occ. eigenvalues --   -0.33556  -0.33060  -0.32808  -0.31709  -0.31610
 Alpha  occ. eigenvalues --   -0.31520  -0.31283  -0.30904  -0.30520  -0.30435
 Alpha  occ. eigenvalues --   -0.30429  -0.30191  -0.30082  -0.24104  -0.23967
 Alpha  occ. eigenvalues --   -0.21153  -0.20832
 Alpha virt. eigenvalues --   -0.08831  -0.08055  -0.01799  -0.01662  -0.00055
 Alpha virt. eigenvalues --    0.00853   0.01620   0.02321   0.02568   0.03000
 Alpha virt. eigenvalues --    0.04410   0.04748   0.04817   0.04877   0.05648

 Mulliken charges:
               1
     1  Mg  12.001352
     2  C    6.027999
     3  C    5.989247
     4  C    5.973043
     5  C    6.007217
     6  N    7.013596
     7  C    5.963482
     8  C    6.005593
     9  C    5.987701
    10  C    6.033941
    11  C    5.998414
    12  C    6.004575
    13  C    6.000495
    14  H    0.992289
    15  N    6.989769
    16  C    6.048712
    17  C    6.019422
    18  C    6.020808
    19  C    6.037183
    20  C    5.997098
    21  C    6.014223
    22  O    8.027726
    23  C    5.992723
    24  N    6.990660
    25  C    6.038928
    26  C    5.991005
    27  C    6.011692
    28  C    5.973907
    29  C    5.997508
    30  C    6.004998
    31  C    6.002147
    32  N    7.005110
    33  C    5.962426
    34  C    5.969735
    35  C    5.998113
    36  C    5.961197
    37  C    6.004790
    38  C    5.981870
    39  O    7.971803
    40  C    5.999020
    41  C    5.996857
    42  O    7.992340
    43  O    7.999335
    44  C    6.001970
    45  H    1.011100
    46  H    1.000485
    47  H    0.986853
    48  H    1.002122
    49  H    1.006024
    50  H    0.999936
    51  H    0.998294
    52  H    1.011817
    53  H    0.989982
    54  H    1.007466
    55  H    0.995997
    56  H    1.003909
    57  H    1.016336
    58  H    1.017059
    59  H    1.015055
    60  H    1.005901
    61  H    1.007055
    62  H    1.013171
    63  H    0.998380
    64  H    0.995968
    65  H    1.008267
    66  H    0.999346
    67  H    0.996696
    68  H    1.004800
    69  H    0.989694
    70  H    0.993699
    71  H    0.994121
    72  H    1.000900
    73  H    0.980645
    74  H    0.979864
    75  H    0.977590
    76  H    0.992021
    77  H    0.998969
    78  H    0.992824
    79  H    0.996651
    80  Mg  11.997168
    81  C    5.993140
    82  C    6.001798
    83  C    6.007226
    84  C    5.998184
    85  N    6.997586
    86  C    6.008178
    87  C    5.997692
    88  C    6.002740
    89  C    5.991522
    90  C    6.001978
    91  C    5.998258
    92  C    5.999398
    93  H    1.001435
    94  N    7.007205
    95  C    5.976708
    96  C    5.993269
    97  C    5.984149
    98  C    5.981972
    99  C    5.998328
   100  C    5.988228
   101  O    7.989617
   102  C    6.008169
   103  N    7.001770
   104  C    5.988598
   105  C    6.003129
   106  C    5.997985
   107  C    6.008162
   108  C    6.000918
   109  C    5.996312
   110  C    6.000143
   111  N    6.998171
   112  C    6.010041
   113  C    6.009038
   114  C    6.000371
   115  C    6.009819
   116  C    5.998972
   117  C    6.005405
   118  O    8.009936
   119  C    6.001554
   120  C    6.000804
   121  O    8.000763
   122  O    8.000857
   123  C    5.998406
   124  H    1.001806
   125  H    0.997239
   126  H    1.004066
   127  H    0.999579
   128  H    1.002816
   129  H    1.002671
   130  H    0.998017
   131  H    0.994486
   132  H    1.003337
   133  H    0.998386
   134  H    1.001074
   135  H    1.003053
   136  H    0.997571
   137  H    1.008120
   138  H    0.994785
   139  H    1.003868
   140  H    0.998214
   141  H    1.002300
   142  H    1.003261
   143  H    1.000174
   144  H    0.998180
   145  H    1.001919
   146  H    0.991684
   147  H    1.002124
   148  H    1.005217
   149  H    1.003442
   150  H    1.000867
   151  H    0.998727
   152  H    1.007311
   153  H    1.004477
   154  H    1.005672
   155  H    1.003613
   156  H    1.000993
   157  H    1.002870
   158  H    1.001968
 Sum of Mulliken charges = 624.00000

 Dipole moment (field-independent basis, Debye):
    X=             11.8155    Y=             -3.5793    Z=              5.1331  Tot=             13.3703
 Quadrupole moment (field-independent basis, Debye-Ang):
   XX=            -40.7459   YY=              2.2965   ZZ=              5.0060
   XY=              9.3594   XZ=            -19.7054   YZ=             -3.6181

 Normal termination of Gaussian 16 at Wed Sep 22 22:53:44 2021.
