 Gaussian 16, Revision A.03,
 Gaussian 16:  ES64L-G16RevA.03 25-Dec-2016

 -----------------------------------
 #p cam-b3lyp/Def2SVP td=(nstates=5)
 -----------------------------------

 --------------------------------
 TDDFT excited states in gaussian
 --------------------------------
 Symbolic Z-matrix:
 Charge =  0 Multiplicity = 1

                         Standard orientation:
 ---------------------------------------------------------------------
 Center     Atomic      Atomic             Coordinates (Angstroms)
 Number     Number       Type             X           Y           Z
 ---------------------------------------------------------------------
      1         12           0      -27.365772    0.511970   -0.309263
      2          6           0      -23.734816    0.524489   -0.024746
      3          6           0      -26.967682   -0.868955   -3.427620
      4          6           0      -30.406297   -0.847651   -0.010856
      5          6           0      -27.564836    2.008813    2.734776
      6          7           0      -25.514109   -0.279525   -1.489047
      7          6           0      -24.116488   -0.087864   -1.192651
      8          6           0      -23.280333   -0.473304   -2.416194
      9          6           0      -24.310446   -0.548289   -3.581566
     10          6           0      -25.721908   -0.558862   -2.845661
     11          6           0      -24.220105    0.685649   -4.598879
     12          6           0      -22.335678   -1.629817   -2.266289
     13          6           0      -22.560618   -2.585531   -1.070839
     14          1           0      -21.769873   -3.868032   -0.754030
     15          7           0      -28.600118   -0.594639   -1.625771
     16          6           0      -28.231762   -1.080352   -2.860913
     17          6           0      -29.433236   -1.715359   -3.486964
     18          6           0      -30.353056   -1.793218   -2.444352
     19          6           0      -29.823180   -1.121710   -1.259917
     20          6           0      -29.392386   -2.213095   -4.888304
     21          6           0      -31.732352   -2.508227   -2.539106
     22          8           0      -31.990341   -3.112323   -3.565065
     23          6           0      -32.701480   -2.635076   -1.410776
     24          7           0      -28.685972    0.478707    1.262674
     25          6           0      -29.957095   -0.051153    1.043832
     26          6           0      -30.889014    0.258726    2.215321
     27          6           0      -30.125782    1.410154    2.964960
     28          6           0      -28.758796    1.337112    2.280894
     29          6           0      -32.359301    0.643871    1.909362
     30          6           0      -30.061912    1.293586    4.521686
     31          6           0      -30.983440    2.311656    5.336940
     32          7           0      -25.972172    1.233512    1.077835
     33          6           0      -26.229619    1.906888    2.263100
     34          6           0      -24.990260    2.423540    2.789623
     35          6           0      -24.034227    1.825557    1.957406
     36          6           0      -24.708557    1.133566    0.921209
     37          6           0      -24.890941    3.253805    4.081063
     38          6           0      -22.636046    1.710509    1.676225
     39          8           0      -21.725727    2.274078    2.316632
     40          6           0      -22.343961    0.978866    0.291834
     41          6           0      -21.352912   -0.062033    0.630180
     42          8           0      -21.420818   -0.872058    1.560640
     43          8           0      -20.419222   -0.038367   -0.352234
     44          6           0      -19.202032   -0.880469   -0.130876
     45          1           0      -26.839319   -1.323850   -4.411542
     46          1           0      -31.403450   -1.286685    0.066042
     47          1           0      -27.670251    2.595878    3.649083
     48          1           0      -22.720403    0.458344   -2.497868
     49          1           0      -24.307081   -1.511905   -4.091318
     50          1           0      -23.866609    0.221616   -5.518795
     51          1           0      -23.555457    1.446082   -4.188196
     52          1           0      -25.245890    1.033041   -4.727133
     53          1           0      -21.332938   -1.203857   -2.295261
     54          1           0      -22.493049   -2.143118   -3.215489
     55          1           0      -23.608781   -2.876696   -1.146174
     56          1           0      -22.425566   -2.038876   -0.137335
     57          1           0      -29.437767   -3.299576   -4.819386
     58          1           0      -28.466339   -1.865101   -5.344953
     59          1           0      -30.212905   -1.769161   -5.453107
     60          1           0      -32.404586   -3.218298   -0.539938
     61          1           0      -33.601836   -3.181670   -1.689764
     62          1           0      -32.933954   -1.585219   -1.232837
     63          1           0      -30.823989   -0.717327    2.697540
     64          1           0      -30.621811    2.323335    2.635341
     65          1           0      -33.061744   -0.179403    2.043244
     66          1           0      -32.451517    0.922152    0.860055
     67          1           0      -32.602198    1.513165    2.521426
     68          1           0      -29.057350    1.380095    4.936718
     69          1           0      -30.341251    0.258112    4.716677
     70          1           0      -31.413018    1.662019    6.099113
     71          1           0      -31.768567    2.791587    4.752500
     72          1           0      -30.335886    3.122746    5.668058
     73          1           0      -24.060386    3.959032    4.118778
     74          1           0      -24.717154    2.466355    4.813625
     75          1           0      -25.753262    3.914029    4.171215
     76          1           0      -21.973257    1.709365   -0.428731
     77          1           0      -18.536157   -0.781360   -0.988832
     78          1           0      -19.463324   -1.934720   -0.037383
     79          1           0      -18.792970   -0.447615    0.780952
     80         12           0       26.374835   -0.733298    0.392335
     81          6           0       27.200562    2.445347   -0.844378
     82          6           0       24.293534    0.601168    2.630392
     83          6           0       25.802315   -3.737757    1.450194
     84          6           0       29.345689   -1.887553   -1.319506
     85          7           0       25.925146    1.318834    0.870689
     86          6           0       26.205304    2.431828    0.181075
     87          6           0       25.622023    3.659824    0.831184
     88          6           0       25.035467    3.082403    2.181481
     89          6           0       25.062917    1.594432    1.890306
     90          6           0       25.748984    3.452334    3.522226
     91          6           0       24.427910    4.263966   -0.070223
     92          6           0       24.532311    5.809315   -0.286431
     93          1           0       23.508531    6.321554   -1.437897
     94          7           0       25.063729   -1.463718    1.627922
     95          6           0       24.222409   -0.759628    2.472432
     96          6           0       23.269590   -1.676949    3.034322
     97          6           0       23.640336   -3.041410    2.691659
     98          6           0       24.828686   -2.818541    1.781987
     99          6           0       22.180051   -1.130449    4.001059
    100          6           0       23.101175   -4.432360    3.005472
    101          8           0       23.513389   -5.507741    2.534412
    102          6           0       21.901168   -4.394411    3.884030
    103          7           0       27.556733   -2.463686    0.189715
    104          6           0       27.021886   -3.584683    0.774991
    105          6           0       27.966503   -4.778865    0.634274
    106          6           0       28.912776   -4.287172   -0.492316
    107          6           0       28.654089   -2.779522   -0.520191
    108          6           0       28.587051   -5.145785    2.040488
    109          6           0       28.708485   -4.956949   -1.917179
    110          6           0       29.917667   -4.947502   -2.866068
    111          7           0       27.956618    0.060870   -0.871590
    112          6           0       29.034722   -0.534432   -1.453232
    113          6           0       29.733980    0.385042   -2.322661
    114          6           0       28.973552    1.555696   -2.147324
    115          6           0       27.949198    1.335084   -1.215531
    116          6           0       30.975291    0.215293   -3.228487
    117          6           0       28.868360    2.918087   -2.589813
    118          8           0       29.389824    3.542661   -3.476137
    119          6           0       27.782649    3.595081   -1.602615
    120          6           0       26.993970    4.375357   -2.559814
    121          8           0       26.050332    3.999799   -3.300458
    122          8           0       27.506681    5.616513   -2.500539
    123          6           0       26.947731    6.640077   -3.384816
    124          1           0       23.543385    1.022524    3.303061
    125          1           0       25.568569   -4.763412    1.743870
    126          1           0       30.175218   -2.311576   -1.889190
    127          1           0       26.323019    4.480395    0.986558
    128          1           0       23.983189    3.291757    2.374713
    129          1           0       26.229488    2.550225    3.900890
    130          1           0       24.946483    3.757915    4.193350
    131          1           0       26.526421    4.215386    3.507522
    132          1           0       23.415687    4.028352    0.260516
    133          1           0       24.443845    3.704462   -1.005598
    134          1           0       25.543794    6.086539   -0.582614
    135          1           0       24.245219    6.418361    0.570402
    136          1           0       21.308178   -0.863873    3.405257
    137          1           0       22.404379   -0.139937    4.398769
    138          1           0       22.011664   -1.685544    4.923593
    139          1           0       21.047220   -3.864040    3.464115
    140          1           0       22.301461   -3.940526    4.791413
    141          1           0       21.547982   -5.380693    4.186369
    142          1           0       27.333856   -5.606174    0.312414
    143          1           0       29.942639   -4.519898   -0.221691
    144          1           0       29.635226   -4.849448    2.078631
    145          1           0       28.595391   -6.189811    2.352528
    146          1           0       28.195090   -4.608844    2.904547
    147          1           0       27.994951   -4.284940   -2.394787
    148          1           0       28.323241   -5.976433   -1.945559
    149          1           0       29.745003   -4.325590   -3.745385
    150          1           0       30.289055   -5.892271   -3.263564
    151          1           0       30.700837   -4.417707   -2.325609
    152          1           0       31.542153   -0.610648   -2.798844
    153          1           0       31.571865    1.128187   -3.252528
    154          1           0       30.598760   -0.066785   -4.211668
    155          1           0       28.284498    4.291119   -0.930238
    156          1           0       26.400594    7.359856   -2.776249
    157          1           0       26.391787    6.208350   -4.216385
    158          1           0       27.773843    7.218534   -3.798184
 ---------------------------------------------------------------------

 SCF Done:  E(RCAM-B3LYP) =  -4069.76838095     A.U. after   19 cycles

 Excitation energies and oscillator strengths:

 Excited State   1:      Singlet-A      1.6562 eV  748.62 nm  f=0.3585  <S**2>=0.000
     309 -> 316       -0.15661
     312 -> 313        0.69071
     309 <- 316       -0.10158
 This state for optimization and/or second-order correction.
 Total Energy, E(TD-HF/TD-DFT) =  -4069.70751751
 Copying the excited state density for this state as the 1-particle RhoCI density.

 Excited State   2:      Singlet-A      1.7272 eV  717.83 nm  f=0.3805  <S**2>=0.000
     310 -> 315        0.19745
     311 -> 314        0.68096
     310 <- 315        0.11062

 Excited State   3:      Singlet-A      2.2496 eV  551.13 nm  f=0.0628  <S**2>=0.000
     310 -> 314        0.61703
     311 -> 315       -0.33568

 Excited State   4:      Singlet-A      2.2760 eV  544.75 nm  f=0.0763  <S**2>=0.000
     309 -> 313        0.61915
     312 -> 316        0.32532

 Excited State   5:      Singlet-A      3.1818 eV  389.67 nm  f=0.0000  <S**2>=0.000
     312 -> 314        0.70710

 The electronic state is 1-A.
 Alpha  occ. eigenvalues --  -46.89317 -46.87561 -19.25374 -19.24857 -19.19658
 Alpha  occ. eigenvalues --  -19.19435 -19.19088 -19.19026 -19.18417 -19.17086
 Alpha  occ. eigenvalues --  -14.42587 -14.42481 -14.41718 -14.41558 -14.39738
 Alpha  occ. eigenvalues --  -14.39446 -14.38753 -14.38394 -10.39147 -10.38558
 Alpha  occ. eigenvalues --  -10.35983 -10.35514 -10.34650 -10.33546 -10.32141
 Alpha  occ. eigenvalues --  -10.31946 -10.31701 -10.31665 -10.31181 -10.31016
 Alpha  occ. eigenvalues --  -10.30994 -10.30886 -10.30823 -10.30777 -10.30594
 Alpha  occ. eigenvalues --  -10.30513 -10.30263 -10.30104 -10.30029 -10.29456
 Alpha  occ. eigenvalues --  -10.29218 -10.29019 -10.28847 -10.28727 -10.28711
 Alpha  occ. eigenvalues --  -10.28530 -10.28528 -10.28489 -10.28404 -10.28357
 Alpha  occ. eigenvalues --  -10.27889 -10.27870 -10.27853 -10.27826 -10.27731
 Alpha  occ. eigenvalues --  -10.27725 -10.27702 -10.27685 -10.27666 -10.27647
 Alpha  occ. eigenvalues --  -10.27621 -10.27598 -10.27568 -10.27310 -10.27290
 Alpha  occ. eigenvalues --  -10.27248 -10.27178 -10.27133 -10.26933 -10.26903
 Alpha  occ. eigenvalues --  -10.26798 -10.26793 -10.26639 -10.26491 -10.26422
 Alpha  occ. eigenvalues --  -10.26403 -10.26269 -10.26247 -10.26050 -10.26045
 Alpha  occ. eigenvalues --  -10.25953 -10.25863 -10.25810 -10.25354 -10.24428
 Alpha  occ. eigenvalues --  -10.23988  -3.17804  -3.16404  -1.92677  -1.92281
 Alpha  occ. eigenvalues --   -1.92086  -1.91289  -1.90871  -1.90719  -1.16094
 Alpha  occ. eigenvalues --   -1.15925  -1.10763  -1.10697  -1.09379  -1.07492
 Alpha  occ. eigenvalues --   -1.06690  -1.05538  -1.05180  -1.04849  -1.04292
 Alpha  occ. eigenvalues --   -1.04033  -1.03581  -1.02833  -1.02400  -1.00363
 Alpha  occ. eigenvalues --   -0.92703  -0.91948  -0.89357  -0.89100  -0.88984
 Alpha  occ. eigenvalues --   -0.88618  -0.88250  -0.88037  -0.87437  -0.86960
 Alpha  occ. eigenvalues --   -0.86833  -0.86660  -0.86253  -0.86096  -0.84523
 Alpha  occ. eigenvalues --   -0.84386  -0.83816  -0.83711  -0.82741  -0.82468
 Alpha  occ. eigenvalues --   -0.82362  -0.82259  -0.81257  -0.80977  -0.80291
 Alpha  occ. eigenvalues --   -0.80178  -0.78207  -0.78033  -0.77767  -0.77309
 Alpha  occ. eigenvalues --   -0.76907  -0.76501  -0.76010  -0.75910  -0.75392
 Alpha  occ. eigenvalues --   -0.75259  -0.73042  -0.72777  -0.72121  -0.71692
 Alpha  occ. eigenvalues --   -0.69648  -0.69237  -0.69023  -0.68788  -0.67904
 Alpha  occ. eigenvalues --   -0.67619  -0.67206  -0.66921  -0.66197  -0.66042
 Alpha  occ. eigenvalues --   -0.65536  -0.65378  -0.64851  -0.64675  -0.64434
 Alpha  occ. eigenvalues --   -0.63552  -0.62130  -0.61759  -0.60225  -0.59830
 Alpha  occ. eigenvalues --   -0.59636  -0.59139  -0.59129  -0.59056  -0.58628
 Alpha  occ. eigenvalues --   -0.58036  -0.57965  -0.57509  -0.57208  -0.57145
 Alpha  occ. eigenvalues --   -0.56782  -0.56313  -0.56293  -0.55917  -0.55430
 Alpha  occ. eigenvalues --   -0.55186  -0.54579  -0.54355  -0.54252  -0.53910
 Alpha  occ. eigenvalues --   -0.53678  -0.53467  -0.53422  -0.53204  -0.52868
 Alpha  occ. eigenvalues --   -0.52766  -0.52560  -0.52545  -0.52303  -0.52212
 Alpha  occ. eigenvalues --   -0.51846  -0.51592  -0.51421  -0.51390  -0.51217
 Alpha  occ. eigenvalues --   -0.51054  -0.51016  -0.50718  -0.50662  -0.50378
 Alpha  occ. eigenvalues --   -0.50156  -0.50012  -0.49984  -0.49674  -0.49542
 Alpha  occ. eigenvalues --   -0.49414  -0.49041  -0.48954  -0.48916  -0.48789
 Alpha  occ. eigenvalues --   -0.48474  -0.48359  -0.48124  -0.48103  -0.48011
 Alpha  occ. eigenvalues --   -0.47765  -0.47614  -0.47410  -0.47251  -0.47162
 Alpha  occ. eigenvalues --   -0.46918  -0.46864  -0.46802  -0.46556  -0.46494
 Alpha  occ. eigenvalues --   -0.46335  -0.46247  -0.45898  -0.45723  -0.45705
 Alpha  occ. eigenvalues --   -0.45513  -0.45470  -0.45197  -0.45139  -0.44964
 Alpha  occ. eigenvalues --   -0.44875  -0.44453  -0.44025  -0.43999  -0.43953
 Alpha  occ. eigenvalues --   -0.43722  -0.43550  -0.43488  -0.43467  -0.43426
 Alpha  occ. eigenvalues --   -0.43087  -0.42864  -0.42850  -0.42833  -0.42742
 Alpha  occ. eigenvalues --   -0.42647  -0.42567  -0.42289  -0.42200  -0.42131
 Alpha  occ. eigenvalues --   -0.42067  -0.41935  -0.41898  -0.41757  -0.41335
 Alpha  occ. eigenvalues --   -0.41189  -0.41083  -0.40807  -0.40775  -0.40573
 Alpha  occ. eigenvalues --   -0.40310  -0.39929  -0.39587  -0.39360  -0.39093
 Alpha  occ. eigenvalues --   -0.38771  -0.38515  -0.37833  -0.37416  -0.37372
 Alpha  occ. eigenvalues --   -0.37106  -0.36988  -0.36593  -0.36354  -0.35848
 Alpha  occ. eigenvalues --   -0.35491  -0.35209  -0.34389  -0.33973  -0.33925
 Alpha  occ. eigenvalues --   -0.33835  -0.32962  -0.32702  -0.31715  -0.31536
 Alpha  occ. eigenvalues --   -0.31307  -0.31182  -0.30534  -0.30322  -0.30115
 Alpha  occ. eigenvalues --   -0.29598  -0.29442  -0.29244  -0.24464  -0.24175
 Alpha  occ. eigenvalues --   -0.21107  -0.20765
 Alpha virt. eigenvalues --   -0.08595  -0.08429  -0.02290  -0.01803  -0.00282
 Alpha virt. eigenvalues --    0.00915   0.01460   0.02414   0.02487   0.03159
 Alpha virt. eigenvalues --    0.04799   0.04874   0.05150   0.05397   0.06100

 Mulliken charges:
               1
     1  Mg   0.820313
     2  C   -0.030357
     3  C   -0.063572
     4  C   -0.071122
     5  C   -0.075644
     6  N   -0.309246
     7  C   -0.098367
     8  C    0.032378
     9  C   -0.088981
    10  C    0.017996
    11  C    0.083163
    12  C    0.077562
    13  C   -0.046996
    14  H    0.019769
    15  N   -0.391663
    16  C    0.125449
    17  C   -0.145337
    18  C   -0.034502
    19  C    0.142963
    20  C    0.154399
    21  C   -0.013490
    22  O   -0.198106
    23  C    0.066659
    24  N   -0.314464
    25  C    0.069845
    26  C   -0.078987
    27  C    0.038581
    28  C   -0.001208
    29  C    0.080943
    30  C    0.022870
    31  C   -0.006871
    32  N   -0.284793
    33  C    0.084267
    34  C   -0.172576
    35  C    0.043282
    36  C    0.082301
    37  C    0.114722
    38  C    0.003064
    39  O   -0.216434
    40  C    0.045274
    41  C    0.197741
    42  O   -0.231871
    43  O   -0.339259
    44  C    0.180679
    45  H   -0.019388
    46  H   -0.063778
    47  H   -0.033491
    48  H    0.001486
    49  H    0.014771
    50  H    0.026243
    51  H    0.029000
    52  H    0.019950
    53  H    0.006712
    54  H   -0.007997
    55  H    0.024306
    56  H    0.048668
    57  H    0.049575
    58  H   -0.000637
    59  H    0.036256
    60  H    0.054902
    61  H    0.021121
    62  H    0.037900
    63  H    0.025848
    64  H    0.005560
    65  H    0.018960
    66  H    0.015438
    67  H    0.020817
    68  H    0.021146
    69  H   -0.000055
    70  H    0.029354
    71  H    0.015090
    72  H    0.025941
    73  H    0.027708
    74  H    0.049099
    75  H    0.018930
    76  H    0.043777
    77  H    0.041299
    78  H    0.050538
    79  H    0.054579
    80  Mg   0.852828
    81  C    0.059594
    82  C   -0.070808
    83  C   -0.057490
    84  C   -0.106744
    85  N   -0.271012
    86  C    0.000297
    87  C   -0.067200
    88  C   -0.030285
    89  C    0.007069
    90  C    0.073754
    91  C    0.057186
    92  C   -0.089414
    93  H    0.003784
    94  N   -0.473336
    95  C    0.175996
    96  C   -0.108091
    97  C   -0.095513
    98  C    0.154276
    99  C    0.089096
   100  C    0.047437
   101  O   -0.209007
   102  C    0.040316
   103  N   -0.291862
   104  C    0.056787
   105  C   -0.031487
   106  C   -0.009920
   107  C    0.037026
   108  C    0.062910
   109  C    0.033926
   110  C   -0.009098
   111  N   -0.270808
   112  C    0.124380
   113  C   -0.199734
   114  C    0.032765
   115  C    0.059060
   116  C    0.139566
   117  C    0.025833
   118  O   -0.148484
   119  C   -0.069280
   120  C    0.203374
   121  O   -0.256625
   122  O   -0.319723
   123  C    0.175295
   124  H   -0.039443
   125  H    0.000575
   126  H   -0.042886
   127  H    0.011939
   128  H    0.003447
   129  H    0.020779
   130  H    0.015885
   131  H    0.020555
   132  H    0.007606
   133  H    0.035329
   134  H    0.036295
   135  H    0.033633
   136  H    0.029980
   137  H    0.006235
   138  H    0.032742
   139  H    0.052596
   140  H    0.030742
   141  H    0.020748
   142  H    0.015900
   143  H    0.001399
   144  H   -0.000331
   145  H    0.021554
   146  H    0.019822
   147  H    0.012305
   148  H    0.017924
   149  H    0.013128
   150  H    0.020637
   151  H    0.010250
   152  H    0.013422
   153  H    0.043200
   154  H    0.041335
   155  H    0.043558
   156  H    0.032028
   157  H    0.059359
   158  H    0.031116
 Sum of Mulliken charges =  -0.00000

 Dipole moment (field-independent basis, Debye):
    X=             -4.4757    Y=              2.0624    Z=              2.9821  Tot=              5.7600
 Quadrupole moment (field-independent basis, Debye-Ang):
   XX=           -340.3716   YY=           -515.6362   ZZ=           -510.6813
   XY=            -69.3164   XZ=            118.5823   YZ=             13.6265

 Normal termination of Gaussian 16 at Tue Sep 14 18:44:35 2021.
