 Gaussian 16, Revision A.03,
 Gaussian 16:  ES64L-G16RevA.03 25-Dec-2016

 -----------------------------------
 #p cam-b3lyp/Def2SVP td=(nstates=5)
 -----------------------------------

 --------------------------------
 TDDFT excited states in gaussian
 --------------------------------
 Symbolic Z-matrix:
 Charge =  0 Multiplicity = 1

                         Standard orientation:
 ---------------------------------------------------------------------
 Center     Atomic      Atomic             Coordinates (Angstroms)
 Number     Number       Type             X           Y           Z
 ---------------------------------------------------------------------
      1         12           0      -21.288983   -0.030046   -0.490080
      2          6           0      -18.005196    0.024349    0.544362
      3          6           0      -21.456759   -3.310012    0.446919
      4          6           0      -24.565345    0.344235   -0.294943
      5          6           0      -20.950513    3.355041   -1.358471
      6          7           0      -19.970272   -1.291339    0.827191
      7          6           0      -18.622021   -1.148898    0.904273
      8          6           0      -17.940973   -2.363751    1.461696
      9          6           0      -18.951162   -3.467335    1.009293
     10          6           0      -20.186766   -2.648978    0.664811
     11          6           0      -18.403090   -4.361504   -0.139658
     12          6           0      -17.809383   -2.306386    3.065858
     13          6           0      -16.482578   -2.963557    3.669355
     14          1           0      -16.897048   -4.085607    4.588734
     15          7           0      -22.801874   -1.375173   -0.181795
     16          6           0      -22.729196   -2.645508    0.272655
     17          6           0      -24.062525   -3.209825    0.439891
     18          6           0      -24.975954   -2.164099    0.194264
     19          6           0      -24.108917   -0.990621   -0.107518
     20          6           0      -24.260898   -4.678849    0.885861
     21          6           0      -26.450088   -2.288491    0.461368
     22          8           0      -26.899934   -3.344083    0.824144
     23          6           0      -27.460554   -1.130476    0.353882
     24          7           0      -22.644508    1.591942   -0.910168
     25          6           0      -23.886972    1.486297   -0.740056
     26          6           0      -24.616452    2.769210   -0.895932
     27          6           0      -23.456731    3.776972   -1.261189
     28          6           0      -22.287230    2.895397   -1.178497
     29          6           0      -25.797148    2.644795   -1.917351
     30          6           0      -23.378409    5.000439   -0.235193
     31          6           0      -22.605649    6.286134   -0.699037
     32          7           0      -19.811766    1.410869   -0.521270
     33          6           0      -19.803972    2.708151   -1.000759
     34          6           0      -18.470555    3.242815   -0.990956
     35          6           0      -17.691192    2.175822   -0.421350
     36          6           0      -18.559501    1.160874   -0.068466
     37          6           0      -18.017166    4.586201   -1.464349
     38          6           0      -16.365637    1.790418   -0.079254
     39          8           0      -15.253671    2.330918   -0.137920
     40          6           0      -16.536184    0.465636    0.735539
     41          6           0      -15.487931   -0.475510    0.243001
     42          8           0      -14.371728   -0.624683    0.759766
     43          8           0      -15.924387   -1.101044   -0.892130
     44          6           0      -14.846796   -1.998763   -1.394885
     45          1           0      -21.586076   -4.386184    0.582349
     46          1           0      -25.643765    0.451081   -0.164807
     47          1           0      -20.876562    4.435996   -1.500037
     48          1           0      -17.014313   -2.427947    0.892762
     49          1           0      -19.120476   -4.154522    1.838436
     50          1           0      -18.302081   -5.385537    0.218701
     51          1           0      -17.391225   -4.017822   -0.356881
     52          1           0      -19.060357   -4.229369   -0.998530
     53          1           0      -18.666974   -2.667359    3.633404
     54          1           0      -17.793600   -1.271462    3.406080
     55          1           0      -16.053728   -2.173238    4.285639
     56          1           0      -15.675170   -3.264517    3.001711
     57          1           0      -24.825004   -4.806325    1.809710
     58          1           0      -23.334176   -5.248092    0.966366
     59          1           0      -24.778376   -5.185340    0.071812
     60          1           0      -27.565653   -0.743494   -0.659149
     61          1           0      -27.257167   -0.306171    1.037905
     62          1           0      -28.379633   -1.531639    0.782123
     63          1           0      -24.979245    2.972038    0.111623
     64          1           0      -23.411117    4.169666   -2.276686
     65          1           0      -26.707452    2.908312   -1.379274
     66          1           0      -25.866494    1.642125   -2.339571
     67          1           0      -25.814238    3.426442   -2.676689
     68          1           0      -22.914772    4.676664    0.696879
     69          1           0      -24.414555    5.255227   -0.017379
     70          1           0      -23.106728    7.251560   -0.764019
     71          1           0      -22.232516    6.161334   -1.714630
     72          1           0      -21.741292    6.457205   -0.057360
     73          1           0      -18.747203    5.185093   -2.008492
     74          1           0      -17.175374    4.276250   -2.082244
     75          1           0      -17.638858    4.994270   -0.526996
     76          1           0      -16.457695    0.590106    1.816089
     77          1           0      -14.024319   -1.395393   -1.777721
     78          1           0      -15.134548   -2.538381   -2.297193
     79          1           0      -14.577059   -2.674893   -0.583327
     80         12           0       20.629242    0.780970   -0.654948
     81          6           0       20.441169   -2.769909   -0.836685
     82          6           0       17.240642    0.910683   -0.171921
     83          6           0       20.976244    4.046076    0.555724
     84          6           0       24.132645    0.523289   -0.564227
     85          7           0       19.065763   -0.910108   -0.270669
     86          6           0       19.160609   -2.202380   -0.623915
     87          6           0       17.770618   -2.758241   -0.873935
     88          6           0       16.706594   -1.591146   -0.593444
     89          6           0       17.789603   -0.403112   -0.474127
     90          6           0       15.773231   -1.463719   -1.818341
     91          6           0       17.514818   -3.984586   -0.012698
     92          6           0       18.085317   -3.959625    1.425251
     93          1           0       17.064203   -3.778178    2.581402
     94          7           0       19.262475    2.339245    0.021497
     95          6           0       17.907080    2.122863    0.143050
     96          6           0       17.335661    3.399665    0.436703
     97          6           0       18.378415    4.349904    0.758175
     98          6           0       19.630836    3.631584    0.411423
     99          6           0       15.851726    3.600325    0.640124
    100          6           0       18.231665    5.711064    1.440159
    101          8           0       17.137693    6.091248    1.810557
    102          6           0       19.333931    6.589619    1.694194
    103          7           0       22.302007    2.073141    0.015208
    104          6           0       22.172622    3.359844    0.303055
    105          6           0       23.492405    4.041178    0.626289
    106          6           0       24.453783    2.775801    0.612755
    107          6           0       23.635228    1.738805   -0.067905
    108          6           0       23.916941    5.171883   -0.432739
    109          6           0       24.941220    2.427903    2.094167
    110          6           0       26.378748    2.616588    2.488409
    111          7           0       21.981558   -0.680818   -0.926665
    112          6           0       23.388559   -0.618484   -0.989555
    113          6           0       23.950881   -1.929030   -1.365455
    114          6           0       22.816356   -2.739417   -1.326954
    115          6           0       21.638400   -2.010067   -0.939321
    116          6           0       25.407136   -2.301386   -1.811139
    117          6           0       22.398825   -4.134005   -1.503501
    118          8           0       23.008190   -5.169826   -1.817594
    119          6           0       20.863336   -4.220896   -1.217264
    120          6           0       20.879914   -5.126257   -0.034270
    121          8           0       21.460904   -4.911305    0.998513
    122          8           0       20.266168   -6.269355   -0.326438
    123          6           0       20.085497   -7.306067    0.748976
    124          1           0       16.161684    0.993657   -0.317255
    125          1           0       21.231020    5.064543    0.855532
    126          1           0       25.213736    0.534681   -0.407291
    127          1           0       17.899725   -3.036409   -1.919931
    128          1           0       16.142737   -1.750894    0.325988
    129          1           0       14.751339   -1.644558   -1.485575
    130          1           0       15.964114   -2.188233   -2.610433
    131          1           0       15.862138   -0.430224   -2.152055
    132          1           0       17.930627   -4.865663   -0.501557
    133          1           0       16.444425   -4.132851    0.132997
    134          1           0       18.739574   -3.131392    1.697072
    135          1           0       18.607710   -4.911199    1.524480
    136          1           0       15.302359    2.660908    0.573450
    137          1           0       15.526218    4.373890   -0.056238
    138          1           0       15.721408    4.082095    1.608519
    139          1           0       20.083344    6.211354    2.389793
    140          1           0       18.959981    7.523493    2.113452
    141          1           0       19.788940    6.692162    0.708432
    142          1           0       23.553104    4.433173    1.641235
    143          1           0       25.337744    3.191288    0.128598
    144          1           0       23.124879    5.292696   -1.172332
    145          1           0       24.802609    4.807185   -0.953363
    146          1           0       24.199117    6.138890   -0.013507
    147          1           0       24.845136    1.361958    2.300962
    148          1           0       24.356812    2.971497    2.835244
    149          1           0       26.957118    1.692797    2.504622
    150          1           0       26.237249    2.993077    3.502026
    151          1           0       26.878624    3.459464    2.010855
    152          1           0       26.031224   -2.317485   -0.918050
    153          1           0       25.706761   -1.572026   -2.563886
    154          1           0       25.397475   -3.321324   -2.195076
    155          1           0       20.411372   -4.614852   -2.128295
    156          1           0       20.954554   -7.954722    0.861255
    157          1           0       19.222938   -7.941091    0.542838
    158          1           0       19.892897   -6.731962    1.655274
 ---------------------------------------------------------------------

 SCF Done:  E(RCAM-B3LYP) =  -4069.75869457     A.U. after   19 cycles

 Excitation energies and oscillator strengths:

 Excited State   1:      Singlet-A      1.6883 eV  734.36 nm  f=0.3580  <S**2>=0.000
     309 -> 315       -0.13894
     310 -> 316        0.11841
     311 -> 314       -0.47153
     312 -> 313        0.49608
 This state for optimization and/or second-order correction.
 Total Energy, E(TD-HF/TD-DFT) =  -4069.69664941
 Copying the excited state density for this state as the 1-particle RhoCI density.

 Excited State   2:      Singlet-A      1.6897 eV  733.76 nm  f=0.3558  <S**2>=0.000
     309 -> 315        0.14490
     310 -> 316        0.11401
     311 -> 314        0.49064
     312 -> 313        0.47662

 Excited State   3:      Singlet-A      2.1999 eV  563.59 nm  f=0.0723  <S**2>=0.000
     309 -> 314        0.61852
     311 -> 315       -0.32991

 Excited State   4:      Singlet-A      2.2121 eV  560.48 nm  f=0.1067  <S**2>=0.000
     310 -> 313        0.64117
     312 -> 316       -0.27963

 Excited State   5:      Singlet-A      3.1559 eV  392.86 nm  f=0.0000  <S**2>=0.000
     312 -> 314        0.70710

 The electronic state is 1-A.
 Alpha  occ. eigenvalues --  -46.90180 -46.89222 -19.25561 -19.25048 -19.19523
 Alpha  occ. eigenvalues --  -19.19042 -19.18828 -19.18824 -19.18034 -19.17899
 Alpha  occ. eigenvalues --  -14.42399 -14.42113 -14.41943 -14.41907 -14.40310
 Alpha  occ. eigenvalues --  -14.40108 -14.39507 -14.38589 -10.38698 -10.38661
 Alpha  occ. eigenvalues --  -10.35756 -10.34939 -10.34287 -10.34071 -10.32431
 Alpha  occ. eigenvalues --  -10.32316 -10.31975 -10.31714 -10.31709 -10.31357
 Alpha  occ. eigenvalues --  -10.30982 -10.30947 -10.30897 -10.30706 -10.30681
 Alpha  occ. eigenvalues --  -10.30675 -10.30252 -10.29969 -10.29923 -10.29818
 Alpha  occ. eigenvalues --  -10.29372 -10.28823 -10.28788 -10.28784 -10.28693
 Alpha  occ. eigenvalues --  -10.28390 -10.28389 -10.28368 -10.28353 -10.28211
 Alpha  occ. eigenvalues --  -10.28160 -10.28125 -10.28065 -10.28038 -10.28031
 Alpha  occ. eigenvalues --  -10.27849 -10.27816 -10.27779 -10.27688 -10.27641
 Alpha  occ. eigenvalues --  -10.27583 -10.27571 -10.27434 -10.27409 -10.27260
 Alpha  occ. eigenvalues --  -10.27168 -10.26995 -10.26981 -10.26962 -10.26880
 Alpha  occ. eigenvalues --  -10.26769 -10.26669 -10.26656 -10.26614 -10.26584
 Alpha  occ. eigenvalues --  -10.26559 -10.26386 -10.26277 -10.26219 -10.26218
 Alpha  occ. eigenvalues --  -10.26153 -10.25755 -10.25603 -10.25492 -10.25010
 Alpha  occ. eigenvalues --  -10.24432  -3.18487  -3.17796  -1.93351  -1.92974
 Alpha  occ. eigenvalues --   -1.92764  -1.92683  -1.92265  -1.92087  -1.17034
 Alpha  occ. eigenvalues --   -1.15949  -1.11957  -1.10179  -1.08788  -1.08105
 Alpha  occ. eigenvalues --   -1.07675  -1.07051  -1.06427  -1.04591  -1.04570
 Alpha  occ. eigenvalues --   -1.03937  -1.03645  -1.02828  -1.02365  -1.01569
 Alpha  occ. eigenvalues --   -0.92498  -0.91914  -0.89731  -0.88921  -0.88785
 Alpha  occ. eigenvalues --   -0.88689  -0.88260  -0.88223  -0.87300  -0.87055
 Alpha  occ. eigenvalues --   -0.86878  -0.86628  -0.86088  -0.85322  -0.84653
 Alpha  occ. eigenvalues --   -0.84300  -0.84015  -0.83804  -0.82820  -0.82585
 Alpha  occ. eigenvalues --   -0.82276  -0.81829  -0.81063  -0.80915  -0.80346
 Alpha  occ. eigenvalues --   -0.80221  -0.78424  -0.77870  -0.77842  -0.77317
 Alpha  occ. eigenvalues --   -0.76808  -0.76357  -0.76265  -0.75972  -0.75492
 Alpha  occ. eigenvalues --   -0.74932  -0.72823  -0.72691  -0.72222  -0.71689
 Alpha  occ. eigenvalues --   -0.70487  -0.69313  -0.68866  -0.68497  -0.68152
 Alpha  occ. eigenvalues --   -0.68087  -0.67748  -0.66823  -0.66648  -0.65553
 Alpha  occ. eigenvalues --   -0.65359  -0.65159  -0.64852  -0.64723  -0.64461
 Alpha  occ. eigenvalues --   -0.63997  -0.62420  -0.62388  -0.60516  -0.60253
 Alpha  occ. eigenvalues --   -0.59623  -0.59240  -0.59184  -0.58945  -0.58802
 Alpha  occ. eigenvalues --   -0.58660  -0.57976  -0.57769  -0.57228  -0.56997
 Alpha  occ. eigenvalues --   -0.56692  -0.56284  -0.56210  -0.55807  -0.55670
 Alpha  occ. eigenvalues --   -0.55042  -0.55001  -0.54875  -0.54476  -0.54142
 Alpha  occ. eigenvalues --   -0.53834  -0.53589  -0.53504  -0.53022  -0.52947
 Alpha  occ. eigenvalues --   -0.52661  -0.52582  -0.52458  -0.52391  -0.51985
 Alpha  occ. eigenvalues --   -0.51975  -0.51716  -0.51701  -0.51495  -0.51233
 Alpha  occ. eigenvalues --   -0.51184  -0.50650  -0.50640  -0.50410  -0.50212
 Alpha  occ. eigenvalues --   -0.50128  -0.49917  -0.49768  -0.49690  -0.49654
 Alpha  occ. eigenvalues --   -0.49450  -0.49180  -0.49141  -0.48939  -0.48913
 Alpha  occ. eigenvalues --   -0.48624  -0.48472  -0.48339  -0.48224  -0.47770
 Alpha  occ. eigenvalues --   -0.47766  -0.47679  -0.47406  -0.47268  -0.46924
 Alpha  occ. eigenvalues --   -0.46918  -0.46867  -0.46813  -0.46559  -0.46284
 Alpha  occ. eigenvalues --   -0.46257  -0.46223  -0.45828  -0.45811  -0.45769
 Alpha  occ. eigenvalues --   -0.45564  -0.45377  -0.45273  -0.45147  -0.45104
 Alpha  occ. eigenvalues --   -0.45063  -0.44856  -0.44665  -0.44416  -0.44321
 Alpha  occ. eigenvalues --   -0.44297  -0.44208  -0.43982  -0.43912  -0.43642
 Alpha  occ. eigenvalues --   -0.43537  -0.43376  -0.43175  -0.43163  -0.42917
 Alpha  occ. eigenvalues --   -0.42852  -0.42606  -0.42354  -0.42185  -0.41961
 Alpha  occ. eigenvalues --   -0.41960  -0.41897  -0.41458  -0.41452  -0.41368
 Alpha  occ. eigenvalues --   -0.41250  -0.41161  -0.40825  -0.40764  -0.40088
 Alpha  occ. eigenvalues --   -0.40070  -0.39988  -0.39769  -0.39618  -0.38621
 Alpha  occ. eigenvalues --   -0.38609  -0.38283  -0.37953  -0.37707  -0.37383
 Alpha  occ. eigenvalues --   -0.37076  -0.36813  -0.36712  -0.36705  -0.36486
 Alpha  occ. eigenvalues --   -0.36347  -0.35673  -0.34965  -0.34217  -0.34067
 Alpha  occ. eigenvalues --   -0.33596  -0.33383  -0.33312  -0.31908  -0.31379
 Alpha  occ. eigenvalues --   -0.31346  -0.30709  -0.30639  -0.30596  -0.30240
 Alpha  occ. eigenvalues --   -0.30050  -0.28956  -0.28885  -0.24247  -0.24182
 Alpha  occ. eigenvalues --   -0.21281  -0.21161
 Alpha virt. eigenvalues --   -0.08797  -0.08731  -0.02520  -0.01799   0.00207
 Alpha virt. eigenvalues --    0.00301   0.01066   0.01665   0.02362   0.02465
 Alpha virt. eigenvalues --    0.04625   0.04821   0.05227   0.05808   0.06005

 Mulliken charges:
               1
     1  Mg   0.827974
     2  C    0.029787
     3  C   -0.080495
     4  C   -0.070050
     5  C   -0.085111
     6  N   -0.279654
     7  C   -0.085584
     8  C    0.013171
     9  C   -0.095822
    10  C    0.097081
    11  C    0.091211
    12  C    0.062612
    13  C   -0.075218
    14  H    0.013420
    15  N   -0.375442
    16  C    0.100313
    17  C   -0.121966
    18  C   -0.020125
    19  C    0.147705
    20  C    0.133008
    21  C   -0.028646
    22  O   -0.181301
    23  C    0.044388
    24  N   -0.219552
    25  C   -0.003979
    26  C   -0.028906
    27  C    0.001889
    28  C   -0.020751
    29  C    0.065831
    30  C    0.026747
    31  C   -0.008601
    32  N   -0.362115
    33  C    0.142925
    34  C   -0.189890
    35  C    0.039475
    36  C    0.070824
    37  C    0.143856
    38  C    0.011182
    39  O   -0.189824
    40  C    0.005476
    41  C    0.179209
    42  O   -0.228202
    43  O   -0.342858
    44  C    0.180419
    45  H   -0.022466
    46  H   -0.067118
    47  H   -0.046992
    48  H    0.007622
    49  H    0.015464
    50  H    0.019102
    51  H    0.006640
    52  H    0.019680
    53  H    0.017321
    54  H    0.008071
    55  H    0.035252
    56  H    0.040844
    57  H    0.046018
    58  H   -0.003636
    59  H    0.028825
    60  H    0.045400
    61  H    0.039478
    62  H    0.024607
    63  H    0.020020
    64  H    0.015938
    65  H    0.008873
    66  H    0.036921
    67  H    0.015500
    68  H    0.016346
    69  H    0.011568
    70  H    0.016017
    71  H    0.015035
    72  H    0.022419
    73  H    0.021521
    74  H    0.042220
    75  H    0.041839
    76  H    0.048109
    77  H    0.046353
    78  H    0.028307
    79  H    0.044492
    80  Mg   0.809028
    81  C   -0.024283
    82  C   -0.063346
    83  C   -0.069227
    84  C   -0.046425
    85  N   -0.259847
    86  C   -0.095475
    87  C    0.047091
    88  C   -0.094980
    89  C    0.038566
    90  C    0.067229
    91  C    0.028229
    92  C   -0.086712
    93  H   -0.003113
    94  N   -0.383458
    95  C    0.151058
    96  C   -0.160401
    97  C   -0.041618
    98  C    0.173082
    99  C    0.133615
   100  C   -0.012984
   101  O   -0.204375
   102  C    0.070702
   103  N   -0.255742
   104  C    0.022684
   105  C   -0.100938
   106  C   -0.016289
   107  C    0.028485
   108  C    0.062478
   109  C    0.013460
   110  C    0.006266
   111  N   -0.412688
   112  C    0.143945
   113  C   -0.181455
   114  C    0.017239
   115  C    0.150126
   116  C    0.132495
   117  C    0.023739
   118  O   -0.196909
   119  C    0.022571
   120  C    0.168888
   121  O   -0.207068
   122  O   -0.315697
   123  C    0.170860
   124  H   -0.008538
   125  H   -0.041498
   126  H   -0.025306
   127  H    0.008597
   128  H    0.036010
   129  H    0.010439
   130  H    0.022932
   131  H    0.020758
   132  H    0.017484
   133  H    0.016170
   134  H    0.065828
   135  H    0.027657
   136  H    0.007337
   137  H    0.023993
   138  H    0.038971
   139  H    0.044530
   140  H    0.029534
   141  H    0.034945
   142  H    0.015065
   143  H   -0.005512
   144  H    0.022381
   145  H    0.010511
   146  H    0.024172
   147  H    0.012525
   148  H    0.009697
   149  H    0.031423
   150  H    0.006055
   151  H    0.005276
   152  H    0.031894
   153  H    0.034960
   154  H    0.039111
   155  H    0.037200
   156  H    0.053483
   157  H    0.040954
   158  H    0.052159
 Sum of Mulliken charges =  -0.00000

 Dipole moment (field-independent basis, Debye):
    X=             -4.7209    Y=              1.7425    Z=             -3.9292  Tot=              6.3845
 Quadrupole moment (field-independent basis, Debye-Ang):
   XX=           -289.4355   YY=           -501.8009   ZZ=           -511.9080
   XY=             24.2902   XZ=             25.0029   YZ=             -8.6637

 Normal termination of Gaussian 16 at Thu Sep 16 02:20:36 2021.
