 Gaussian 16, Revision A.03,
 Gaussian 16:  ES64L-G16RevA.03 25-Dec-2016

 -----------------------------------
 #p cam-b3lyp/Def2SVP td=(nstates=5)
 -----------------------------------

 --------------------------------
 TDDFT excited states in gaussian
 --------------------------------
 Symbolic Z-matrix:
 Charge =  0 Multiplicity = 1

                         Standard orientation:
 ---------------------------------------------------------------------
 Center     Atomic      Atomic             Coordinates (Angstroms)
 Number     Number       Type             X           Y           Z
 ---------------------------------------------------------------------
      1         12           0      -14.206606    0.038698    0.248373
      2          6           0      -11.750509    1.728852   -1.419209
      3          6           0      -15.165092   -1.349334   -2.884883
      4          6           0      -16.379598   -1.944897    1.900455
      5          6           0      -12.597389    0.731945    3.259513
      6          7           0      -13.239873   -0.091268   -1.937802
      7          6           0      -12.395592    0.887726   -2.368476
      8          6           0      -12.141181    0.729498   -3.841971
      9          6           0      -13.244674   -0.309366   -4.324268
     10          6           0      -13.984938   -0.637502   -2.989156
     11          6           0      -13.911189   -0.013888   -5.618089
     12          6           0      -10.658297    0.428635   -4.367248
     13          6           0       -9.743518   -0.371231   -3.487838
     14          1           0       -8.996585   -1.527925   -4.137024
     15          7           0      -15.724031   -1.248237   -0.430356
     16          6           0      -15.975195   -1.661609   -1.701889
     17          6           0      -17.068002   -2.586664   -1.762482
     18          6           0      -17.523018   -2.684991   -0.347350
     19          6           0      -16.530824   -1.932674    0.451281
     20          6           0      -17.641136   -3.241356   -2.927331
     21          6           0      -18.741326   -3.402789    0.215540
     22          8           0      -19.390129   -4.110742   -0.469702
     23          6           0      -19.198081   -3.399652    1.648085
     24          7           0      -14.362920   -0.613876    2.235233
     25          6           0      -15.450103   -1.272754    2.664490
     26          6           0      -15.301977   -1.662952    4.227433
     27          6           0      -14.307198   -0.482335    4.670174
     28          6           0      -13.699288   -0.154407    3.327234
     29          6           0      -16.604056   -1.698868    5.032409
     30          6           0      -13.363847   -0.894217    5.814762
     31          6           0      -13.169643    0.012393    7.035900
     32          7           0      -12.450977    0.938029    0.820458
     33          6           0      -11.914625    1.201944    2.074631
     34          6           0      -10.795955    2.058248    1.991522
     35          6           0      -10.687234    2.364460    0.645055
     36          6           0      -11.727041    1.654619   -0.053688
     37          6           0       -9.962484    2.592965    3.114860
     38          6           0      -10.047912    3.095177   -0.368454
     39          8           0       -9.089479    3.855092   -0.245104
     40          6           0      -10.566511    2.605737   -1.750612
     41          6           0      -10.917389    3.902209   -2.465701
     42          8           0      -10.504763    4.208721   -3.604368
     43          8           0      -11.852032    4.556510   -1.698289
     44          6           0      -12.601571    5.733002   -2.202805
     45          1           0      -15.326409   -1.831919   -3.851020
     46          1           0      -16.939778   -2.730806    2.411100
     47          1           0      -12.141736    1.001987    4.214078
     48          1           0      -12.298146    1.695757   -4.322750
     49          1           0      -12.714858   -1.245370   -4.498794
     50          1           0      -14.997690   -0.087853   -5.573314
     51          1           0      -13.478953   -0.579425   -6.443597
     52          1           0      -13.747771    1.032790   -5.874896
     53          1           0      -10.061014    1.319253   -4.562924
     54          1           0      -10.710856   -0.207357   -5.251459
     55          1           0      -10.161388   -0.639783   -2.518169
     56          1           0       -8.887562    0.266282   -3.263997
     57          1           0      -17.523559   -2.585765   -3.789597
     58          1           0      -18.694291   -3.498530   -2.820530
     59          1           0      -17.069589   -4.157096   -3.082753
     60          1           0      -18.845024   -2.389737    1.858064
     61          1           0      -18.675559   -4.132366    2.262273
     62          1           0      -20.265911   -3.520672    1.831020
     63          1           0      -14.744434   -2.599908    4.244197
     64          1           0      -14.733877    0.468828    4.987545
     65          1           0      -16.611524   -0.807155    5.659813
     66          1           0      -16.735808   -2.675519    5.497219
     67          1           0      -17.494947   -1.622818    4.409717
     68          1           0      -12.383630   -1.054145    5.364861
     69          1           0      -13.646220   -1.897934    6.132791
     70          1           0      -13.257049   -0.425276    8.030453
     71          1           0      -13.759126    0.928692    6.983724
     72          1           0      -12.178460    0.424586    6.849527
     73          1           0       -9.579099    3.601537    2.958392
     74          1           0       -9.118673    1.919695    3.267600
     75          1           0      -10.510436    2.681475    4.053862
     76          1           0       -9.697167    2.096684   -2.165007
     77          1           0      -13.644054    5.733386   -1.884959
     78          1           0      -12.560170    5.718256   -3.292039
     79          1           0      -12.278849    6.744503   -1.959386
     80         12           0       13.668715   -0.856336   -0.522301
     81          6           0       13.861487    2.689601   -0.033655
     82          6           0       10.399085   -0.607121   -0.692565
     83          6           0       13.658982   -4.149185   -0.146159
     84          6           0       17.296644   -0.880230    0.082925
     85          7           0       12.303897    0.865240   -0.423628
     86          6           0       12.563409    2.229911   -0.187256
     87          6           0       11.268844    3.127280   -0.156187
     88          6           0       10.160148    1.942851   -0.455438
     89          6           0       10.957832    0.646066   -0.550590
     90          6           0        9.060875    1.843133    0.687414
     91          6           0       11.254963    4.341605   -1.148748
     92          6           0        9.887836    4.955757   -1.425219
     93          1           0        9.711145    6.393030   -0.902145
     94          7           0       12.219255   -2.201107   -0.531840
     95          6           0       10.867396   -1.971871   -0.635953
     96          6           0       10.099925   -3.199102   -0.663065
     97          6           0       11.101914   -4.237704   -0.511583
     98          6           0       12.424659   -3.518823   -0.461026
     99          6           0        8.664607   -3.327425   -0.872284
    100          6           0       10.944083   -5.747730   -0.469302
    101          8           0       11.861724   -6.519437   -0.458284
    102          6           0        9.522286   -6.228767   -0.350779
    103          7           0       15.251670   -2.312171   -0.027400
    104          6           0       14.947791   -3.633384    0.028789
    105          6           0       16.225244   -4.488819    0.241992
    106          6           0       17.364374   -3.413155    0.172243
    107          6           0       16.607346   -2.108465    0.015144
    108          6           0       16.316164   -5.373844    1.531589
    109          6           0       18.408193   -3.585206   -0.987093
    110          6           0       19.454683   -4.687121   -0.709882
    111          7           0       15.273455    0.523716   -0.052153
    112          6           0       16.636441    0.388558    0.078256
    113          6           0       17.213751    1.667573    0.203220
    114          6           0       16.228670    2.582260    0.225707
    115          6           0       15.005912    1.858079    0.087040
    116          6           0       18.725485    1.852487    0.223275
    117          6           0       15.824205    3.983186    0.380922
    118          8           0       16.484227    4.972392    0.569217
    119          6           0       14.230779    4.075957    0.234981
    120          6           0       13.683752    4.442040    1.577780
    121          8           0       13.369762    3.767257    2.532303
    122          8           0       13.537240    5.814301    1.532416
    123          6           0       12.984097    6.472764    2.739771
    124          1           0        9.307598   -0.632110   -0.708375
    125          1           0       13.571247   -5.205809    0.117936
    126          1           0       18.373982   -1.052757    0.138298
    127          1           0       11.107456    3.437729    0.876261
    128          1           0        9.634466    2.202423   -1.374637
    129          1           0        8.076145    1.737608    0.232406
    130          1           0        9.013446    2.623411    1.446562
    131          1           0        9.164739    0.903317    1.228816
    132          1           0       11.741283    3.880973   -2.009625
    133          1           0       11.919689    5.182438   -0.949447
    134          1           0        9.120110    4.335805   -0.963089
    135          1           0        9.778270    5.089162   -2.501107
    136          1           0        8.673096   -3.843129   -1.832506
    137          1           0        8.178874   -2.351530   -0.877724
    138          1           0        8.098925   -3.946157   -0.175962
    139          1           0        9.128449   -6.436209   -1.345657
    140          1           0        8.948006   -5.711567    0.418408
    141          1           0        9.618062   -7.108193    0.285416
    142          1           0       16.370099   -5.015644   -0.701651
    143          1           0       17.823809   -3.320728    1.156606
    144          1           0       17.156683   -5.173871    2.196780
    145          1           0       16.537482   -6.378163    1.171081
    146          1           0       15.431529   -5.364570    2.168319
    147          1           0       18.957650   -2.653531   -1.117187
    148          1           0       17.806912   -3.767397   -1.878892
    149          1           0       19.525905   -4.883826    0.360030
    150          1           0       20.386206   -4.327577   -1.146865
    151          1           0       19.205161   -5.658274   -1.138362
    152          1           0       19.006888    2.839254   -0.144592
    153          1           0       19.183358    1.055799   -0.363108
    154          1           0       19.116094    1.673384    1.225243
    155          1           0       13.937023    4.785604   -0.538824
    156          1           0       13.555138    7.393914    2.855267
    157          1           0       13.058856    5.877864    3.649928
    158          1           0       11.962575    6.637114    2.395465
 ---------------------------------------------------------------------

 SCF Done:  E(RCAM-B3LYP) =  -4069.76703741     A.U. after   18 cycles

 Excitation energies and oscillator strengths:

 Excited State   1:      Singlet-A      1.6345 eV  758.53 nm  f=0.4008  <S**2>=0.000
     309 -> 315        0.16913
     311 -> 313        0.68871
     309 <- 315        0.10874
 This state for optimization and/or second-order correction.
 Total Energy, E(TD-HF/TD-DFT) =  -4069.70696959
 Copying the excited state density for this state as the 1-particle RhoCI density.

 Excited State   2:      Singlet-A      1.6973 eV  730.50 nm  f=0.3876  <S**2>=0.000
     310 -> 316       -0.17769
     312 -> 314        0.68629
     310 <- 316       -0.10761

 Excited State   3:      Singlet-A      2.1487 eV  577.01 nm  f=0.1472  <S**2>=0.000
     309 -> 313        0.65209
     311 -> 315       -0.25546

 Excited State   4:      Singlet-A      2.2114 eV  560.66 nm  f=0.1390  <S**2>=0.000
     310 -> 314        0.65075
     312 -> 316        0.26500

 Excited State   5:      Singlet-A      2.6917 eV  460.61 nm  f=0.0000  <S**2>=0.000
     312 -> 313        0.70707

 The electronic state is 1-A.
 Alpha  occ. eigenvalues --  -46.90031 -46.88517 -19.26308 -19.23786 -19.20413
 Alpha  occ. eigenvalues --  -19.19867 -19.19057 -19.18898 -19.18566 -19.17314
 Alpha  occ. eigenvalues --  -14.42663 -14.42134 -14.42118 -14.41268 -14.40136
 Alpha  occ. eigenvalues --  -14.39743 -14.39573 -14.38795 -10.40566 -10.38920
 Alpha  occ. eigenvalues --  -10.35214 -10.34719 -10.34366 -10.33652 -10.32904
 Alpha  occ. eigenvalues --  -10.32176 -10.31686 -10.31149 -10.31096 -10.31007
 Alpha  occ. eigenvalues --  -10.30853 -10.30840 -10.30808 -10.30780 -10.30317
 Alpha  occ. eigenvalues --  -10.30262 -10.30134 -10.30054 -10.30052 -10.29472
 Alpha  occ. eigenvalues --  -10.29298 -10.29036 -10.28973 -10.28939 -10.28838
 Alpha  occ. eigenvalues --  -10.28792 -10.28709 -10.28552 -10.28523 -10.28433
 Alpha  occ. eigenvalues --  -10.28372 -10.28283 -10.28064 -10.28056 -10.27886
 Alpha  occ. eigenvalues --  -10.27694 -10.27623 -10.27601 -10.27594 -10.27313
 Alpha  occ. eigenvalues --  -10.27112 -10.26933 -10.26887 -10.26867 -10.26866
 Alpha  occ. eigenvalues --  -10.26827 -10.26776 -10.26774 -10.26723 -10.26714
 Alpha  occ. eigenvalues --  -10.26699 -10.26687 -10.26662 -10.26417 -10.26295
 Alpha  occ. eigenvalues --  -10.26151 -10.26080 -10.25841 -10.25660 -10.25598
 Alpha  occ. eigenvalues --  -10.25552 -10.25526 -10.25497 -10.25236 -10.25159
 Alpha  occ. eigenvalues --  -10.24654  -3.18502  -3.17060  -1.93360  -1.92994
 Alpha  occ. eigenvalues --   -1.92778  -1.91956  -1.91496  -1.91384  -1.15768
 Alpha  occ. eigenvalues --   -1.15650  -1.11491  -1.11316  -1.10738  -1.09447
 Alpha  occ. eigenvalues --   -1.07411  -1.07342  -1.05252  -1.04448  -1.03754
 Alpha  occ. eigenvalues --   -1.03243  -1.03023  -1.02451  -1.02242  -1.01536
 Alpha  occ. eigenvalues --   -0.93780  -0.92960  -0.89922  -0.88880  -0.88827
 Alpha  occ. eigenvalues --   -0.88492  -0.88199  -0.88053  -0.88029  -0.87340
 Alpha  occ. eigenvalues --   -0.87092  -0.86794  -0.85972  -0.85968  -0.84640
 Alpha  occ. eigenvalues --   -0.84080  -0.83835  -0.83190  -0.83143  -0.82262
 Alpha  occ. eigenvalues --   -0.82126  -0.81991  -0.81069  -0.80677  -0.80655
 Alpha  occ. eigenvalues --   -0.80022  -0.78602  -0.78058  -0.77896  -0.77083
 Alpha  occ. eigenvalues --   -0.76927  -0.76783  -0.76582  -0.75565  -0.75486
 Alpha  occ. eigenvalues --   -0.74764  -0.73675  -0.72716  -0.71842  -0.71266
 Alpha  occ. eigenvalues --   -0.70114  -0.69584  -0.69479  -0.68702  -0.68502
 Alpha  occ. eigenvalues --   -0.67664  -0.66902  -0.66657  -0.66357  -0.65582
 Alpha  occ. eigenvalues --   -0.64994  -0.64805  -0.64557  -0.64495  -0.64350
 Alpha  occ. eigenvalues --   -0.63834  -0.63686  -0.61406  -0.60370  -0.60027
 Alpha  occ. eigenvalues --   -0.59485  -0.59419  -0.58976  -0.58760  -0.58276
 Alpha  occ. eigenvalues --   -0.58154  -0.57789  -0.57714  -0.57309  -0.56820
 Alpha  occ. eigenvalues --   -0.56619  -0.56072  -0.55888  -0.55713  -0.55419
 Alpha  occ. eigenvalues --   -0.55204  -0.54946  -0.54552  -0.54417  -0.54223
 Alpha  occ. eigenvalues --   -0.54076  -0.54063  -0.53606  -0.53366  -0.53267
 Alpha  occ. eigenvalues --   -0.52606  -0.52602  -0.52323  -0.52167  -0.51928
 Alpha  occ. eigenvalues --   -0.51895  -0.51892  -0.51569  -0.51440  -0.51280
 Alpha  occ. eigenvalues --   -0.51169  -0.50942  -0.50778  -0.50683  -0.50477
 Alpha  occ. eigenvalues --   -0.50142  -0.50068  -0.49804  -0.49747  -0.49617
 Alpha  occ. eigenvalues --   -0.49552  -0.49429  -0.49272  -0.49101  -0.49085
 Alpha  occ. eigenvalues --   -0.48769  -0.48343  -0.48316  -0.47962  -0.47912
 Alpha  occ. eigenvalues --   -0.47760  -0.47696  -0.47647  -0.47396  -0.47312
 Alpha  occ. eigenvalues --   -0.47170  -0.47006  -0.46989  -0.46707  -0.46503
 Alpha  occ. eigenvalues --   -0.46282  -0.46229  -0.45840  -0.45708  -0.45683
 Alpha  occ. eigenvalues --   -0.45620  -0.45406  -0.45398  -0.45241  -0.45118
 Alpha  occ. eigenvalues --   -0.45114  -0.44987  -0.44975  -0.44790  -0.44664
 Alpha  occ. eigenvalues --   -0.44244  -0.44084  -0.43925  -0.43756  -0.43470
 Alpha  occ. eigenvalues --   -0.43423  -0.43157  -0.43136  -0.42799  -0.42720
 Alpha  occ. eigenvalues --   -0.42706  -0.42494  -0.42467  -0.42167  -0.42025
 Alpha  occ. eigenvalues --   -0.42015  -0.41818  -0.41759  -0.41569  -0.41563
 Alpha  occ. eigenvalues --   -0.41373  -0.41060  -0.40893  -0.40715  -0.40648
 Alpha  occ. eigenvalues --   -0.40424  -0.40322  -0.39294  -0.39123  -0.38766
 Alpha  occ. eigenvalues --   -0.38722  -0.38074  -0.38057  -0.37700  -0.37457
 Alpha  occ. eigenvalues --   -0.36972  -0.36951  -0.36473  -0.36288  -0.36250
 Alpha  occ. eigenvalues --   -0.35693  -0.35673  -0.34874  -0.34584  -0.33952
 Alpha  occ. eigenvalues --   -0.33884  -0.33171  -0.32538  -0.31658  -0.31259
 Alpha  occ. eigenvalues --   -0.30984  -0.30780  -0.30597  -0.30516  -0.30056
 Alpha  occ. eigenvalues --   -0.29688  -0.29627  -0.28433  -0.24547  -0.23535
 Alpha  occ. eigenvalues --   -0.21805  -0.20907
 Alpha virt. eigenvalues --   -0.09752  -0.08479  -0.02044  -0.01077   0.00059
 Alpha virt. eigenvalues --    0.00918   0.00935   0.02520   0.02609   0.02729
 Alpha virt. eigenvalues --    0.04479   0.04824   0.05021   0.05811   0.05909

 Mulliken charges:
               1
     1  Mg   0.824995
     2  C    0.019287
     3  C   -0.076939
     4  C   -0.075262
     5  C   -0.091202
     6  N   -0.272159
     7  C   -0.046343
     8  C    0.019158
     9  C   -0.037957
    10  C    0.011854
    11  C    0.090862
    12  C    0.034492
    13  C   -0.113479
    14  H    0.011681
    15  N   -0.363530
    16  C    0.155830
    17  C   -0.164888
    18  C   -0.053176
    19  C    0.114006
    20  C    0.136368
    21  C   -0.034828
    22  O   -0.178593
    23  C    0.046379
    24  N   -0.288424
    25  C    0.057846
    26  C   -0.083535
    27  C   -0.035952
    28  C    0.047995
    29  C    0.096404
    30  C    0.030966
    31  C    0.010227
    32  N   -0.351622
    33  C    0.123465
    34  C   -0.172845
    35  C    0.107822
    36  C    0.078517
    37  C    0.118769
    38  C   -0.023722
    39  O   -0.181165
    40  C   -0.040708
    41  C    0.244512
    42  O   -0.225361
    43  O   -0.349214
    44  C    0.180431
    45  H   -0.016049
    46  H   -0.017543
    47  H   -0.037867
    48  H    0.015031
    49  H    0.022309
    50  H    0.014312
    51  H    0.018986
    52  H    0.005503
    53  H    0.034629
    54  H    0.020712
    55  H    0.043047
    56  H    0.033799
    57  H    0.010805
    58  H    0.039642
    59  H    0.029675
    60  H    0.015073
    61  H    0.049050
    62  H    0.031239
    63  H    0.029329
    64  H    0.016196
    65  H    0.016781
    66  H    0.016817
    67  H    0.012792
    68  H    0.005974
    69  H    0.002166
    70  H    0.033254
    71  H    0.005170
    72  H    0.010896
    73  H    0.037272
    74  H    0.036884
    75  H    0.011053
    76  H    0.036816
    77  H    0.035921
    78  H    0.037913
    79  H    0.041453
    80  Mg   0.840111
    81  C   -0.023599
    82  C   -0.059852
    83  C   -0.059576
    84  C   -0.088329
    85  N   -0.312911
    86  C   -0.052842
    87  C    0.013287
    88  C   -0.070198
    89  C    0.084856
    90  C    0.032806
    91  C    0.022270
    92  C   -0.067155
    93  H    0.013222
    94  N   -0.403477
    95  C    0.093528
    96  C   -0.114388
    97  C   -0.089723
    98  C    0.139442
    99  C    0.129758
   100  C   -0.007933
   101  O   -0.175227
   102  C    0.037128
   103  N   -0.268512
   104  C    0.008218
   105  C    0.022468
   106  C   -0.064355
   107  C   -0.003260
   108  C    0.067851
   109  C    0.012989
   110  C    0.024892
   111  N   -0.316127
   112  C    0.150931
   113  C   -0.226575
   114  C    0.063320
   115  C    0.099492
   116  C    0.138233
   117  C    0.034416
   118  O   -0.135762
   119  C   -0.039631
   120  C    0.217467
   121  O   -0.203451
   122  O   -0.356805
   123  C    0.167128
   124  H   -0.052009
   125  H   -0.001907
   126  H   -0.022211
   127  H    0.024651
   128  H    0.022337
   129  H    0.009846
   130  H    0.028733
   131  H    0.021628
   132  H    0.009390
   133  H    0.037124
   134  H    0.040287
   135  H    0.040445
   136  H    0.035167
   137  H    0.015937
   138  H    0.025441
   139  H    0.055403
   140  H    0.027323
   141  H    0.014832
   142  H    0.011934
   143  H    0.007714
   144  H    0.012326
   145  H    0.017532
   146  H    0.029853
   147  H    0.004761
   148  H    0.008096
   149  H    0.011293
   150  H    0.020235
   151  H    0.015844
   152  H    0.034480
   153  H    0.007326
   154  H    0.021668
   155  H    0.051855
   156  H    0.045548
   157  H    0.055905
   158  H    0.037087
 Sum of Mulliken charges =  -0.00000

 Dipole moment (field-independent basis, Debye):
    X=             -5.2673    Y=             -0.3432    Z=              1.8917  Tot=              5.6073
 Quadrupole moment (field-independent basis, Debye-Ang):
   XX=           -547.1772   YY=           -539.0852   ZZ=           -481.3656
   XY=            -79.3514   XZ=            -67.9495   YZ=             -2.2897

 Normal termination of Gaussian 16 at Wed Sep 15 00:09:38 2021.
