 Gaussian 16, Revision A.03,
 Gaussian 16:  ES64L-G16RevA.03 25-Dec-2016

 ---------------------------------------------------
 #p cam-b3lyp/Def2SVP td=(nstates=5) density=(CIS=1)
 ---------------------------------------------------

 --------------------------------
 TDDFT excited states in gaussian
 --------------------------------
 Symbolic Z-matrix:
 Charge =  0 Multiplicity = 1

                         Standard orientation:
 ---------------------------------------------------------------------
 Center     Atomic      Atomic             Coordinates (Angstroms)
 Number     Number       Type             X           Y           Z
 ---------------------------------------------------------------------
      1         12           0       -0.719919    0.133279    0.143357
      2          6           0        2.795660    0.384084    0.147094
      3          6           0       -0.302757   -3.294620    0.001561
      4          6           0       -4.108533   -0.259931    0.011923
      5          6           0       -0.975178    3.474221   -0.062120
      6          7           0        1.071003   -1.309189    0.116206
      7          6           0        2.418321   -1.001794    0.262643
      8          6           0        3.222781   -2.259528    0.522866
      9          6           0        2.243839   -3.416295    0.104881
     10          6           0        0.948887   -2.635481    0.092025
     11          6           0        2.604360   -4.168596   -1.235762
     12          6           0        3.626477   -2.426253    1.995411
     13          6           0        5.011425   -3.037816    2.232643
     14          1           0        5.230076   -4.535896    1.881903
     15          7           0       -2.028157   -1.527234    0.114181
     16          6           0       -1.605388   -2.808862    0.018319
     17          6           0       -2.745980   -3.654159   -0.124593
     18          6           0       -3.932985   -2.854845    0.013784
     19          6           0       -3.387169   -1.509154   -0.002884
     20          6           0       -2.621375   -5.139452   -0.321991
     21          6           0       -5.416983   -3.222180    0.007846
     22          8           0       -6.301381   -2.391458    0.311641
     23          6           0       -5.922664   -4.588591   -0.440789
     24          7           0       -2.293250    1.411818    0.088730
     25          6           0       -3.631673    1.051234   -0.034578
     26          6           0       -4.457534    2.288364   -0.177007
     27          6           0       -3.520069    3.548526   -0.139400
     28          6           0       -2.176525    2.817500    0.014488
     29          6           0       -5.484573    2.254557   -1.348569
     30          6           0       -3.780805    4.538999    1.016079
     31          6           0       -4.671563    5.730760    0.615194
     32          7           0        0.561820    1.633664    0.013200
     33          6           0        0.361015    3.013202   -0.003205
     34          6           0        1.655381    3.789793    0.032956
     35          6           0        2.592646    2.744274    0.056637
     36          6           0        1.907797    1.487438    0.098929
     37          6           0        1.812729    5.299437    0.035724
     38          6           0        4.028779    2.511755    0.085397
     39          8           0        4.975596    3.298849    0.052679
     40          6           0        4.183688    0.942590    0.270135
     41          6           0        5.158956    0.499271   -0.838064
     42          8           0        5.183390    0.904081   -1.982055
     43          8           0        6.127890   -0.326632   -0.271422
     44          6           0        7.113325   -0.800902   -1.243241
     45          1           0       -0.136266   -4.373064    0.037800
     46          1           0       -5.199783   -0.268164   -0.021359
     47          1           0       -1.141993    4.535903   -0.253862
     48          1           0        4.123840   -2.355603   -0.082410
     49          1           0        2.175663   -4.235612    0.820593
     50          1           0        3.555600   -3.890034   -1.690157
     51          1           0        1.909744   -4.045164   -2.066305
     52          1           0        2.713987   -5.238631   -1.059309
     53          1           0        2.904876   -3.036898    2.537605
     54          1           0        3.682062   -1.457246    2.491836
     55          1           0        5.360977   -2.870284    3.251297
     56          1           0        5.779808   -2.503918    1.673885
     57          1           0       -1.888447   -5.194248   -1.127062
     58          1           0       -3.499922   -5.680287   -0.673477
     59          1           0       -2.225509   -5.683444    0.535297
     60          1           0       -5.490729   -4.865941   -1.402497
     61          1           0       -6.998972   -4.424153   -0.489890
     62          1           0       -5.640343   -5.364925    0.270327
     63          1           0       -5.176895    2.275922    0.642376
     64          1           0       -3.462649    4.111650   -1.071793
     65          1           0       -5.339987    1.318296   -1.888090
     66          1           0       -5.270557    3.080335   -2.026561
     67          1           0       -6.453215    2.292019   -0.849019
     68          1           0       -2.812340    4.800496    1.441880
     69          1           0       -4.384618    4.074555    1.796003
     70          1           0       -5.285862    5.459442   -0.243590
     71          1           0       -4.159689    6.627309    0.265007
     72          1           0       -5.349096    5.936073    1.444517
     73          1           0        1.506679    5.652269    1.020739
     74          1           0        1.199862    5.838652   -0.686323
     75          1           0        2.873963    5.483763   -0.130572
     76          1           0        4.573979    0.616925    1.234169
     77          1           0        6.854202   -1.737431   -1.737991
     78          1           0        8.028748   -0.890915   -0.658601
     79          1           0        7.352098   -0.178503   -2.105611
 ---------------------------------------------------------------------

 SCF Done:  E(RCAM-B3LYP) =  -2034.93661705     A.U. after   17 cycles

 Excitation energies and oscillator strengths:

 Excited State   1:      Singlet-A      1.7014 eV  728.70 nm  f=0.0000  <S**2>=0.000
     155 ->158        -0.18664
     156 ->157         0.68384
     155 <-158        -0.10959
 This state for optimization and/or second-order correction.
 Total Energy, E(TD-HF/TD-DFT) =  -2034.87409042
 Copying the excited state density for this state as the 1-particle RhoCI density.

 Excited State   2:      Singlet-A      2.2324 eV  555.40 nm  f=0.0000  <S**2>=0.000
     155 ->157         0.63574
     156 ->158         0.29946

 Excited State   3:      Singlet-A      3.4236 eV  362.14 nm  f=0.0000  <S**2>=0.000
     153 ->157         0.13977
     154 ->157         0.58946
     155 ->157         0.10768
     156 ->158        -0.32538

 Excited State   4:      Singlet-A      3.5520 eV  349.06 nm  f=0.0000  <S**2>=0.000
     151 ->157         0.10867
     152 ->157         0.20192
     152 ->159         0.13836
     152 ->160         0.10324
     153 ->157        -0.16541
     154 ->157         0.31641
     155 ->157        -0.22989
     156 ->158         0.45378

 Excited State   5:      Singlet-A      3.5885 eV  345.50 nm  f=0.0000  <S**2>=0.000
     151 ->157         0.16419
     151 ->159         0.13098
     152 ->157         0.41062
     152 ->159         0.23933
     152 ->160         0.20110
     153 ->157        -0.16141
     154 ->157        -0.14132
     155 ->157         0.14985
     156 ->158        -0.27899

 The electronic state is 1-A.
 Alpha  occ. eigenvalues --  -46.87647 -19.25762 -19.20410 -19.19205 -19.19095
 Alpha  occ. eigenvalues --  -14.42674 -14.41275 -14.39893 -14.39480 -10.39684
 Alpha  occ. eigenvalues --  -10.35845 -10.35078 -10.31477 -10.31438 -10.30873
 Alpha  occ. eigenvalues --  -10.30743 -10.30726 -10.30324 -10.30275 -10.29584
 Alpha  occ. eigenvalues --  -10.29219 -10.29103 -10.28742 -10.28737 -10.28712
 Alpha  occ. eigenvalues --  -10.28627 -10.28558 -10.28377 -10.27854 -10.27545
 Alpha  occ. eigenvalues --  -10.27370 -10.27201 -10.27065 -10.27044 -10.26601
 Alpha  occ. eigenvalues --  -10.26423 -10.26403 -10.26334 -10.26007 -10.25988
 Alpha  occ. eigenvalues --  -10.25692 -10.25661 -10.25560  -3.16430  -1.91328
 Alpha  occ. eigenvalues --   -1.90861  -1.90774  -1.16301  -1.09231  -1.08927
 Alpha  occ. eigenvalues --   -1.08174  -1.04714  -1.03666  -1.03073  -1.01456
 Alpha  occ. eigenvalues --   -0.92573  -0.89434  -0.89020  -0.88296  -0.87483
 Alpha  occ. eigenvalues --   -0.87014  -0.86146  -0.84415  -0.83548  -0.82300
 Alpha  occ. eigenvalues --   -0.81729  -0.80987  -0.80086  -0.78455  -0.77467
 Alpha  occ. eigenvalues --   -0.77288  -0.76153  -0.75060  -0.72682  -0.71663
 Alpha  occ. eigenvalues --   -0.69385  -0.68817  -0.68187  -0.67317  -0.65788
 Alpha  occ. eigenvalues --   -0.65505  -0.64493  -0.64164  -0.62578  -0.60375
 Alpha  occ. eigenvalues --   -0.60153  -0.58936  -0.58500  -0.57751  -0.57500
 Alpha  occ. eigenvalues --   -0.56022  -0.55452  -0.55115  -0.54694  -0.53805
 Alpha  occ. eigenvalues --   -0.53498  -0.53137  -0.52880  -0.52568  -0.52152
 Alpha  occ. eigenvalues --   -0.51856  -0.51752  -0.51225  -0.50486  -0.50217
 Alpha  occ. eigenvalues --   -0.50044  -0.49797  -0.49369  -0.49071  -0.48904
 Alpha  occ. eigenvalues --   -0.48496  -0.48243  -0.48087  -0.47621  -0.47403
 Alpha  occ. eigenvalues --   -0.46855  -0.46662  -0.46528  -0.46277  -0.45907
 Alpha  occ. eigenvalues --   -0.45517  -0.44923  -0.44626  -0.44533  -0.44356
 Alpha  occ. eigenvalues --   -0.44345  -0.43592  -0.43498  -0.43189  -0.43015
 Alpha  occ. eigenvalues --   -0.42687  -0.42359  -0.41939  -0.41752  -0.41610
 Alpha  occ. eigenvalues --   -0.41231  -0.41053  -0.40450  -0.40245  -0.39691
 Alpha  occ. eigenvalues --   -0.38711  -0.38313  -0.37935  -0.37266  -0.36875
 Alpha  occ. eigenvalues --   -0.36638  -0.35159  -0.34956  -0.32855  -0.31521
 Alpha  occ. eigenvalues --   -0.30976  -0.30942  -0.30557  -0.29999  -0.23952
 Alpha  occ. eigenvalues --   -0.21079
 Alpha virt. eigenvalues --   -0.08574  -0.01782  -0.00004   0.01745   0.03736
 Alpha virt. eigenvalues --    0.04753   0.05028   0.05604   0.06362   0.07444
 Alpha virt. eigenvalues --    0.08209   0.08745   0.09441   0.09491   0.10462

 Mulliken charges:
               1
     1  Mg   0.845390
     2  C   -0.109451
     3  C   -0.166100
     4  C   -0.110528
     5  C   -0.104391
     6  N   -0.310713
     7  C    0.066944
     8  C    0.016211
     9  C   -0.049762
    10  C    0.036423
    11  C    0.056310
    12  C    0.068988
    13  C   -0.070144
    14  H    0.002348
    15  N   -0.345028
    16  C    0.227220
    17  C   -0.192275
    18  C   -0.025437
    19  C    0.128360
    20  C    0.108728
    21  C   -0.003324
    22  O   -0.236734
    23  C    0.038017
    24  N   -0.432963
    25  C    0.117285
    26  C   -0.049222
    27  C   -0.000501
    28  C    0.088493
    29  C    0.064976
    30  C    0.047230
    31  C    0.000003
    32  N   -0.397712
    33  C    0.181630
    34  C   -0.149863
    35  C   -0.027495
    36  C    0.214850
    37  C    0.125861
    38  C    0.073272
    39  O   -0.180971
    40  C   -0.032673
    41  C    0.196475
    42  O   -0.194048
    43  O   -0.339642
    44  C    0.167139
    45  H   -0.034381
    46  H   -0.011348
    47  H   -0.037497
    48  H    0.010058
    49  H    0.015990
    50  H    0.012550
    51  H    0.020221
    52  H    0.012865
    53  H    0.016563
    54  H    0.012354
    55  H    0.024876
    56  H    0.028664
    57  H    0.023635
    58  H    0.003656
    59  H    0.033327
    60  H    0.040105
    61  H    0.037899
    62  H    0.041467
    63  H    0.019507
    64  H    0.020705
    65  H    0.021720
    66  H    0.012986
    67  H    0.021805
    68  H    0.012904
    69  H    0.003841
    70  H    0.004480
    71  H    0.019152
    72  H    0.018496
    73  H    0.028307
    74  H    0.026317
    75  H    0.042331
    76  H    0.042587
    77  H    0.025717
    78  H    0.037244
    79  H    0.047718
 Sum of Mulliken charges =  -0.00000

 Dipole moment (field-independent basis, Debye):
    X=              0.2311    Y=             -1.3579    Z=              0.6638  Tot=              1.5290
 Quadrupole moment (field-independent basis, Debye-Ang):
   XX=           -279.7140   YY=           -231.0291   ZZ=           -258.7557
   XY=            -38.1380   XZ=              8.8185   YZ=              6.2967

 Normal termination of Gaussian 16 at Fri Oct  8 19:18:51 2021.
