 Gaussian 16, Revision A.03,
 Gaussian 16:  ES64L-G16RevA.03 25-Dec-2016

 ---------------------------------------------------
 #p cam-b3lyp/Def2SVP td=(nstates=5) density=(CIS=1)
 ---------------------------------------------------

 --------------------------------
 TDDFT excited states in gaussian
 --------------------------------
 Symbolic Z-matrix:
 Charge =  0 Multiplicity = 1

                         Standard orientation:
 ---------------------------------------------------------------------
 Center     Atomic      Atomic             Coordinates (Angstroms)
 Number     Number       Type             X           Y           Z
 ---------------------------------------------------------------------
      1         12           0        0.738410    0.151152   -0.454371
      2          6           0       -2.734669    0.165063   -0.129328
      3          6           0        0.725689   -3.176835   -0.489201
      4          6           0        3.997527    0.252944    0.571735
      5          6           0        0.704041    3.633483   -0.362385
      6          7           0       -0.866512   -1.350644   -0.489840
      7          6           0       -2.165287   -1.105198   -0.366832
      8          6           0       -2.959136   -2.446640   -0.567043
      9          6           0       -1.824742   -3.499195   -0.566082
     10          6           0       -0.560149   -2.649198   -0.487325
     11          6           0       -1.818321   -4.453735    0.729042
     12          6           0       -3.838570   -2.524991   -1.896625
     13          6           0       -5.167194   -3.157139   -1.659867
     14          1           0       -5.623480   -4.299643   -2.554143
     15          7           0        2.156183   -1.277452   -0.046693
     16          6           0        1.963147   -2.630242   -0.140991
     17          6           0        3.273555   -3.294236   -0.102506
     18          6           0        4.221203   -2.279610    0.208966
     19          6           0        3.438860   -1.035957    0.304183
     20          6           0        3.452936   -4.839101   -0.248289
     21          6           0        5.748926   -2.424212    0.480909
     22          8           0        6.493967   -1.485556    0.739157
     23          6           0        6.344269   -3.778710    0.396321
     24          7           0        2.106375    1.654811    0.052491
     25          6           0        3.412477    1.488584    0.522803
     26          6           0        3.970811    2.855646    0.997487
     27          6           0        3.162658    3.896763    0.105416
     28          6           0        1.922602    2.977222   -0.081186
     29          6           0        3.881448    3.052569    2.526075
     30          6           0        3.762557    4.279284   -1.217758
     31          6           0        3.663961    3.368501   -2.405347
     32          7           0       -0.670179    1.661271   -0.486821
     33          6           0       -0.560254    3.030286   -0.407059
     34          6           0       -1.869582    3.686799   -0.406340
     35          6           0       -2.801951    2.574636   -0.190305
     36          6           0       -1.986826    1.377461   -0.241588
     37          6           0       -2.120317    5.105962   -0.350205
     38          6           0       -4.191256    2.204302    0.050518
     39          8           0       -5.160624    2.839076    0.237656
     40          6           0       -4.201908    0.587820    0.018795
     41          6           0       -4.944882   -0.051399    1.164634
     42          8           0       -4.440350   -0.406055    2.225926
     43          8           0       -6.268211   -0.256604    0.775609
     44          6           0       -7.171152   -0.905232    1.743639
     45          1           0        0.910485   -4.233817   -0.693695
     46          1           0        5.034329    0.207774    0.912633
     47          1           0        0.763137    4.721211   -0.433648
     48          1           0       -3.599266   -2.676530    0.285077
     49          1           0       -1.811771   -4.196732   -1.403544
     50          1           0       -2.404106   -5.336152    0.470762
     51          1           0       -2.306216   -4.043924    1.613039
     52          1           0       -0.785950   -4.748894    0.920267
     53          1           0       -3.341870   -3.104183   -2.675215
     54          1           0       -4.022845   -1.573227   -2.395112
     55          1           0       -5.864619   -2.351068   -1.886148
     56          1           0       -5.400260   -3.494372   -0.650279
     57          1           0        3.394206   -5.237982    0.764015
     58          1           0        4.374554   -5.089042   -0.774438
     59          1           0        2.584002   -5.350088   -0.664318
     60          1           0        5.832054   -4.654877    0.793589
     61          1           0        7.321364   -3.779476    0.878783
     62          1           0        6.716696   -3.942200   -0.615355
     63          1           0        5.007917    2.832242    0.664109
     64          1           0        2.947401    4.821359    0.640738
     65          1           0        3.378284    3.954825    2.873779
     66          1           0        4.822756    2.872362    3.045757
     67          1           0        3.278941    2.258177    2.966206
     68          1           0        4.828834    4.498815   -1.179018
     69          1           0        3.305585    5.219621   -1.526385
     70          1           0        2.787846    3.759855   -2.922112
     71          1           0        3.457917    2.320477   -2.186778
     72          1           0        4.565639    3.468497   -3.010427
     73          1           0       -3.013246    5.271634   -0.953248
     74          1           0       -1.272400    5.599584   -0.824399
     75          1           0       -2.301892    5.415923    0.678427
     76          1           0       -4.714308    0.293412   -0.897115
     77          1           0       -7.095561   -0.341231    2.673703
     78          1           0       -6.847088   -1.924124    1.954003
     79          1           0       -8.230132   -1.008978    1.506632
 ---------------------------------------------------------------------

 SCF Done:  E(RCAM-B3LYP) =  -2034.91279561     A.U. after   17 cycles

 Excitation energies and oscillator strengths:

 Excited State   1:      Singlet-A      1.6811 eV  737.52 nm  f=0.0000  <S**2>=0.000
     155 ->158        -0.17713
     156 ->157         0.68652
     155 <-158        -0.10859
 This state for optimization and/or second-order correction.
 Total Energy, E(TD-HF/TD-DFT) =  -2034.85101611
 Copying the excited state density for this state as the 1-particle RhoCI density.

 Excited State   2:      Singlet-A      2.2559 eV  549.59 nm  f=0.0000  <S**2>=0.000
     155 ->157         0.63266
     156 ->158         0.30603

 Excited State   3:      Singlet-A      3.3832 eV  366.47 nm  f=0.0000  <S**2>=0.000
     154 ->157         0.67844
     156 ->158        -0.13841

 Excited State   4:      Singlet-A      3.5159 eV  352.64 nm  f=0.0000  <S**2>=0.000
     153 ->157        -0.23374
     154 ->157         0.13367
     155 ->157        -0.27772
     156 ->158         0.58705
     155 <-157         0.10603

 Excited State   5:      Singlet-A      3.6457 eV  340.09 nm  f=0.0000  <S**2>=0.000
     153 ->157         0.64338
     155 ->157        -0.15088
     156 ->158         0.18398

 The electronic state is 1-A.
 Alpha  occ. eigenvalues --  -46.87925 -19.25025 -19.20105 -19.19692 -19.19189
 Alpha  occ. eigenvalues --  -14.42199 -14.41429 -14.39290 -14.39232 -10.39697
 Alpha  occ. eigenvalues --  -10.35654 -10.35527 -10.31804 -10.31339 -10.30597
 Alpha  occ. eigenvalues --  -10.30592 -10.30008 -10.29891 -10.29755 -10.29482
 Alpha  occ. eigenvalues --  -10.29393 -10.28786 -10.28670 -10.28386 -10.28304
 Alpha  occ. eigenvalues --  -10.28297 -10.28224 -10.27915 -10.27673 -10.27566
 Alpha  occ. eigenvalues --  -10.27544 -10.27085 -10.26896 -10.26710 -10.26127
 Alpha  occ. eigenvalues --  -10.26091 -10.26059 -10.25937 -10.25818 -10.25574
 Alpha  occ. eigenvalues --  -10.25544 -10.25381 -10.24555  -3.16628  -1.91532
 Alpha  occ. eigenvalues --   -1.91059  -1.90956  -1.15160  -1.12951  -1.10166
 Alpha  occ. eigenvalues --   -1.07457  -1.05186  -1.03585  -1.02875  -1.02143
 Alpha  occ. eigenvalues --   -0.91875  -0.89038  -0.88638  -0.88026  -0.87189
 Alpha  occ. eigenvalues --   -0.86904  -0.86312  -0.84184  -0.83602  -0.82547
 Alpha  occ. eigenvalues --   -0.81872  -0.81004  -0.80370  -0.78251  -0.77277
 Alpha  occ. eigenvalues --   -0.76739  -0.75854  -0.74869  -0.72252  -0.71474
 Alpha  occ. eigenvalues --   -0.69233  -0.68502  -0.67757  -0.66764  -0.65713
 Alpha  occ. eigenvalues --   -0.64620  -0.64243  -0.64103  -0.61808  -0.60154
 Alpha  occ. eigenvalues --   -0.59599  -0.58881  -0.58108  -0.57772  -0.57237
 Alpha  occ. eigenvalues --   -0.55812  -0.55530  -0.55353  -0.54843  -0.54103
 Alpha  occ. eigenvalues --   -0.53574  -0.53384  -0.52971  -0.52518  -0.52173
 Alpha  occ. eigenvalues --   -0.51780  -0.51629  -0.51387  -0.51243  -0.50412
 Alpha  occ. eigenvalues --   -0.50181  -0.50077  -0.49622  -0.49530  -0.49154
 Alpha  occ. eigenvalues --   -0.48612  -0.48322  -0.47996  -0.47805  -0.46969
 Alpha  occ. eigenvalues --   -0.46798  -0.46600  -0.46284  -0.46102  -0.45753
 Alpha  occ. eigenvalues --   -0.45511  -0.45201  -0.44956  -0.44640  -0.44394
 Alpha  occ. eigenvalues --   -0.44171  -0.43735  -0.43331  -0.43256  -0.42808
 Alpha  occ. eigenvalues --   -0.42670  -0.41888  -0.41580  -0.41534  -0.41372
 Alpha  occ. eigenvalues --   -0.41191  -0.40504  -0.40240  -0.39137  -0.38669
 Alpha  occ. eigenvalues --   -0.38072  -0.37684  -0.36984  -0.36593  -0.36537
 Alpha  occ. eigenvalues --   -0.35917  -0.34468  -0.34290  -0.32813  -0.31414
 Alpha  occ. eigenvalues --   -0.31226  -0.31019  -0.30031  -0.29562  -0.23990
 Alpha  occ. eigenvalues --   -0.20785
 Alpha virt. eigenvalues --   -0.08471  -0.01387   0.00396   0.02413   0.02784
 Alpha virt. eigenvalues --    0.04559   0.05575   0.06056   0.07205   0.08336
 Alpha virt. eigenvalues --    0.08734   0.08912   0.09317   0.09937   0.10456

 Mulliken charges:
               1
     1  Mg   0.834471
     2  C   -0.031982
     3  C   -0.109488
     4  C   -0.109431
     5  C   -0.128787
     6  N   -0.299487
     7  C    0.016356
     8  C    0.001499
     9  C   -0.074602
    10  C    0.147012
    11  C    0.042643
    12  C    0.072505
    13  C   -0.093095
    14  H    0.009755
    15  N   -0.373661
    16  C    0.131864
    17  C   -0.148545
    18  C   -0.068249
    19  C    0.151468
    20  C    0.094123
    21  C    0.031286
    22  O   -0.205746
    23  C    0.041893
    24  N   -0.349714
    25  C    0.079679
    26  C    0.003186
    27  C   -0.008900
    28  C    0.071628
    29  C    0.095121
    30  C    0.019677
    31  C    0.022792
    32  N   -0.366985
    33  C    0.173185
    34  C   -0.181439
    35  C   -0.059012
    36  C    0.131076
    37  C    0.123512
    38  C    0.042745
    39  O   -0.116706
    40  C   -0.069664
    41  C    0.217899
    42  O   -0.220400
    43  O   -0.352029
    44  C    0.187123
    45  H   -0.037137
    46  H   -0.006858
    47  H   -0.034970
    48  H    0.022651
    49  H    0.020056
    50  H    0.009116
    51  H    0.029649
    52  H    0.017025
    53  H    0.013974
    54  H    0.013168
    55  H    0.031503
    56  H    0.030232
    57  H    0.034817
    58  H    0.042182
    59  H    0.009123
    60  H    0.038067
    61  H    0.011879
    62  H    0.038344
    63  H   -0.003188
    64  H   -0.003533
    65  H    0.016800
    66  H    0.021789
    67  H    0.010888
    68  H    0.000738
    69  H   -0.001911
    70  H    0.004805
    71  H    0.032064
    72  H    0.016111
    73  H    0.033091
    74  H    0.015225
    75  H    0.049887
    76  H    0.047226
    77  H    0.036670
    78  H    0.023049
    79  H    0.042889
 Sum of Mulliken charges =  -0.00000

 Dipole moment (field-independent basis, Debye):
    X=              1.8036    Y=             -3.7613    Z=             -2.1079  Tot=              4.6737
 Quadrupole moment (field-independent basis, Debye-Ang):
   XX=           -272.5052   YY=           -225.6602   ZZ=           -258.8688
   XY=             18.3593   XZ=             -3.3517   YZ=              0.5913

 Normal termination of Gaussian 16 at Fri Oct  8 18:15:59 2021.
