 Gaussian 16, Revision A.03,
 Gaussian 16:  ES64L-G16RevA.03 25-Dec-2016

 -----------------------------------------------------
 #p cam-b3lyp/Def2SVP td=(nstates=5) density=(current)
 -----------------------------------------------------

 --------------------------------
 TDDFT excited states in gaussian
 --------------------------------
 Symbolic Z-matrix:
 Charge =  0 Multiplicity = 1

                         Standard orientation:
 ---------------------------------------------------------------------
 Center     Atomic      Atomic             Coordinates (Angstroms)
 Number     Number       Type             X           Y           Z
 ---------------------------------------------------------------------
      1         12           0       -0.769893    0.028382   -0.536872
      2          6           0        2.706398    0.184291    0.248483
      3          6           0       -0.584781   -3.199103    0.212169
      4          6           0       -4.137394   -0.038244   -0.259381
      5          6           0       -0.720146    3.583561   -0.295156
      6          7           0        0.835792   -1.318294    0.010744
      7          6           0        2.215073   -1.083973    0.199672
      8          6           0        3.012238   -2.375222    0.566488
      9          6           0        1.894468   -3.453134    0.484635
     10          6           0        0.635190   -2.636580    0.124885
     11          6           0        2.350965   -4.514778   -0.529879
     12          6           0        3.771809   -2.401616    1.962624
     13          6           0        5.294270   -2.458809    1.914022
     14          1           0        5.985381   -3.619853    2.657805
     15          7           0       -2.167115   -1.383760   -0.190723
     16          6           0       -1.866707   -2.710771    0.115966
     17          6           0       -3.041583   -3.483066    0.169599
     18          6           0       -4.112449   -2.653819   -0.108612
     19          6           0       -3.549992   -1.320927   -0.188675
     20          6           0       -3.196591   -5.025089    0.443496
     21          6           0       -5.533003   -3.154385   -0.225880
     22          8           0       -5.842753   -4.308449   -0.207284
     23          6           0       -6.639233   -2.028169   -0.528501
     24          7           0       -2.233137    1.540000   -0.236786
     25          6           0       -3.566928    1.237555   -0.196926
     26          6           0       -4.335475    2.583785    0.126039
     27          6           0       -3.323453    3.734124   -0.005689
     28          6           0       -1.986118    2.917106   -0.174841
     29          6           0       -5.634557    2.762315   -0.607105
     30          6           0       -3.273216    4.518414    1.299614
     31          6           0       -2.777113    5.938450    1.233590
     32          7           0        0.720815    1.612062   -0.358146
     33          6           0        0.579703    2.978267   -0.305385
     34          6           0        1.851625    3.600372   -0.232543
     35          6           0        2.800968    2.562327   -0.079479
     36          6           0        2.011255    1.378450   -0.045362
     37          6           0        2.143597    5.044909   -0.149976
     38          6           0        4.198753    2.154068    0.115285
     39          8           0        5.215199    2.861345    0.126155
     40          6           0        4.219323    0.589791    0.313432
     41          6           0        4.845971   -0.021991   -0.827928
     42          8           0        4.245702   -0.114543   -1.924780
     43          8           0        6.095960   -0.367656   -0.462030
     44          6           0        6.906757   -1.198640   -1.393744
     45          1           0       -0.554223   -4.272037    0.414725
     46          1           0       -5.227247   -0.103814   -0.234773
     47          1           0       -0.631243    4.670819   -0.337199
     48          1           0        3.759192   -2.576110   -0.201437
     49          1           0        1.687105   -3.938546    1.437817
     50          1           0        1.498489   -5.171213   -0.702052
     51          1           0        3.195513   -5.132867   -0.225536
     52          1           0        2.641518   -4.077643   -1.485836
     53          1           0        3.498758   -3.367590    2.387458
     54          1           0        3.418081   -1.588528    2.596645
     55          1           0        5.665432   -1.507714    2.297341
     56          1           0        5.614703   -2.564776    0.876988
     57          1           0       -3.912162   -5.106006    1.261988
     58          1           0       -2.253665   -5.483563    0.741076
     59          1           0       -3.464749   -5.636796   -0.417863
     60          1           0       -7.569435   -2.570163   -0.696356
     61          1           0       -6.237657   -1.523598   -1.407598
     62          1           0       -6.601780   -1.428687    0.381020
     63          1           0       -4.604823    2.467177    1.176371
     64          1           0       -3.485322    4.441743   -0.818757
     65          1           0       -5.805554    3.829759   -0.743787
     66          1           0       -6.397111    2.304979    0.023649
     67          1           0       -5.707865    2.201634   -1.538235
     68          1           0       -2.696707    4.017629    2.077942
     69          1           0       -4.243686    4.555489    1.794461
     70          1           0       -2.690762    6.311114    0.213083
     71          1           0       -1.793073    5.967942    1.701895
     72          1           0       -3.359772    6.581747    1.892896
     73          1           0        1.374394    5.640535   -0.642584
     74          1           0        3.104336    5.175777   -0.648518
     75          1           0        2.141157    5.279175    0.914796
     76          1           0        4.620584    0.255684    1.270242
     77          1           0        7.901582   -0.805249   -1.179746
     78          1           0        6.608833   -1.113506   -2.438363
     79          1           0        6.995407   -2.225967   -1.038809
 ---------------------------------------------------------------------

 SCF Done:  E(RCAM-B3LYP) =  -2034.90524694     A.U. after   18 cycles

 Excitation energies and oscillator strengths:

 Excited State   1:      Singlet-A      1.7225 eV  719.79 nm  f=0.3865  <S**2>=0.000
     155 ->158         0.17118
     156 ->157         0.68746
     155 <-158         0.10388
 This state for optimization and/or second-order correction.
 Total Energy, E(TD-HF/TD-DFT) =  -2034.84194616
 Copying the excited state density for this state as the 1-particle RhoCI density.

 Excited State   2:      Singlet-A      2.2583 eV  549.00 nm  f=0.1173  <S**2>=0.000
     155 ->157         0.63716
     156 ->158        -0.28982

 Excited State   3:      Singlet-A      3.2541 eV  381.01 nm  f=0.0031  <S**2>=0.000
     154 ->157         0.67664

 Excited State   4:      Singlet-A      3.4951 eV  354.74 nm  f=0.1137  <S**2>=0.000
     150 ->157         0.12968
     151 ->157         0.11480
     153 ->157         0.55235
     155 ->157         0.11120
     156 ->158         0.35455

 Excited State   5:      Singlet-A      3.5743 eV  346.88 nm  f=0.1315  <S**2>=0.000
     152 ->157         0.48605
     152 ->159        -0.30588
     152 ->161         0.10988
     153 ->157        -0.16864
     155 ->157         0.11939
     156 ->158         0.25982

 The electronic state is 1-A.
 Alpha  occ. eigenvalues --  -46.88516 -19.26513 -19.19670 -19.19646 -19.18740
 Alpha  occ. eigenvalues --  -14.42539 -14.42188 -14.39511 -14.38474 -10.39513
 Alpha  occ. eigenvalues --  -10.35483 -10.35396 -10.32848 -10.31643 -10.31500
 Alpha  occ. eigenvalues --  -10.30995 -10.30606 -10.30482 -10.29622 -10.29015
 Alpha  occ. eigenvalues --  -10.28692 -10.28345 -10.28218 -10.28143 -10.28029
 Alpha  occ. eigenvalues --  -10.27961 -10.27783 -10.27625 -10.27318 -10.27190
 Alpha  occ. eigenvalues --  -10.27114 -10.27094 -10.26927 -10.26843 -10.26447
 Alpha  occ. eigenvalues --  -10.26365 -10.26262 -10.26005 -10.25849 -10.25760
 Alpha  occ. eigenvalues --  -10.25442 -10.25172 -10.24841  -3.17114  -1.91992
 Alpha  occ. eigenvalues --   -1.91550  -1.91441  -1.16650  -1.11987  -1.08671
 Alpha  occ. eigenvalues --   -1.07402  -1.04123  -1.03186  -1.02841  -1.01751
 Alpha  occ. eigenvalues --   -0.92218  -0.89672  -0.89353  -0.88716  -0.87338
 Alpha  occ. eigenvalues --   -0.86650  -0.86512  -0.84823  -0.84244  -0.83302
 Alpha  occ. eigenvalues --   -0.81916  -0.81140  -0.80318  -0.77734  -0.77383
 Alpha  occ. eigenvalues --   -0.76690  -0.76263  -0.75136  -0.72758  -0.71729
 Alpha  occ. eigenvalues --   -0.69264  -0.68623  -0.67761  -0.67248  -0.65704
 Alpha  occ. eigenvalues --   -0.65609  -0.65003  -0.64566  -0.62245  -0.60152
 Alpha  occ. eigenvalues --   -0.59639  -0.59437  -0.58525  -0.58218  -0.57152
 Alpha  occ. eigenvalues --   -0.56416  -0.56050  -0.54980  -0.54697  -0.54284
 Alpha  occ. eigenvalues --   -0.53820  -0.53173  -0.52881  -0.52483  -0.52410
 Alpha  occ. eigenvalues --   -0.51687  -0.51483  -0.51241  -0.50583  -0.50354
 Alpha  occ. eigenvalues --   -0.50162  -0.49971  -0.49870  -0.49180  -0.48927
 Alpha  occ. eigenvalues --   -0.48433  -0.48263  -0.48067  -0.47524  -0.47489
 Alpha  occ. eigenvalues --   -0.46963  -0.46424  -0.46300  -0.46093  -0.45619
 Alpha  occ. eigenvalues --   -0.45311  -0.45157  -0.44928  -0.44738  -0.44322
 Alpha  occ. eigenvalues --   -0.44129  -0.43719  -0.43471  -0.43292  -0.43088
 Alpha  occ. eigenvalues --   -0.42802  -0.42565  -0.42311  -0.41940  -0.41664
 Alpha  occ. eigenvalues --   -0.41644  -0.40591  -0.40218  -0.40117  -0.39163
 Alpha  occ. eigenvalues --   -0.38392  -0.38230  -0.37611  -0.37222  -0.36708
 Alpha  occ. eigenvalues --   -0.36005  -0.34344  -0.34171  -0.32937  -0.31795
 Alpha  occ. eigenvalues --   -0.30899  -0.30762  -0.30559  -0.28934  -0.24276
 Alpha  occ. eigenvalues --   -0.21257
 Alpha virt. eigenvalues --   -0.08758  -0.01704   0.00563   0.02178   0.02731
 Alpha virt. eigenvalues --    0.04550   0.04744   0.05633   0.07194   0.08334
 Alpha virt. eigenvalues --    0.08890   0.09255   0.09479   0.09671   0.10705

 Mulliken charges:
               1
     1  Mg   0.838224
     2  C   -0.049742
     3  C   -0.132298
     4  C   -0.095904
     5  C   -0.070933
     6  N   -0.322376
     7  C   -0.005323
     8  C   -0.018372
     9  C   -0.067437
    10  C    0.101414
    11  C    0.060502
    12  C    0.057579
    13  C   -0.082998
    14  H    0.017363
    15  N   -0.423121
    16  C    0.201290
    17  C   -0.162701
    18  C   -0.013683
    19  C    0.127974
    20  C    0.151534
    21  C   -0.043568
    22  O   -0.168469
    23  C    0.032737
    24  N   -0.333481
    25  C    0.094820
    26  C   -0.035353
    27  C   -0.029962
    28  C    0.105401
    29  C    0.078764
    30  C   -0.007993
    31  C    0.033193
    32  N   -0.304792
    33  C    0.090070
    34  C   -0.201749
    35  C    0.042583
    36  C    0.095782
    37  C    0.124924
    38  C    0.050349
    39  O   -0.188345
    40  C   -0.000461
    41  C    0.227049
    42  O   -0.254157
    43  O   -0.319904
    44  C    0.163559
    45  H   -0.041823
    46  H   -0.063769
    47  H   -0.037547
    48  H    0.011717
    49  H    0.022135
    50  H    0.007613
    51  H    0.019118
    52  H    0.020717
    53  H    0.018750
    54  H    0.024567
    55  H    0.047479
    56  H    0.016024
    57  H    0.037222
    58  H   -0.014832
    59  H    0.036114
    60  H    0.028669
    61  H    0.044754
    62  H    0.046681
    63  H    0.025149
    64  H    0.017966
    65  H    0.018429
    66  H    0.012323
    67  H    0.019169
    68  H    0.007782
    69  H    0.001224
    70  H    0.016722
    71  H    0.009362
    72  H    0.010220
    73  H    0.010816
    74  H    0.045853
    75  H    0.039593
    76  H    0.027971
    77  H    0.043933
    78  H    0.068022
    79  H    0.039890
 Sum of Mulliken charges =  -0.00000

 Dipole moment (field-independent basis, Debye):
    X=             -0.6855    Y=              0.2662    Z=              0.8356  Tot=              1.1131
 Quadrupole moment (field-independent basis, Debye-Ang):
   XX=           -261.9386   YY=           -251.7021   ZZ=           -257.2281
   XY=            -51.7012   XZ=             -2.7762   YZ=              1.3924

 Normal termination of Gaussian 16 at Fri Oct  8 14:18:57 2021.
