 Gaussian 16, Revision A.03,
 Gaussian 16:  ES64L-G16RevA.03 25-Dec-2016

 -----------------------------------
 #p cam-b3lyp/Def2SVP td=(nstates=5)
 -----------------------------------

 --------------------------------
 TDDFT excited states in gaussian
 --------------------------------
 Symbolic Z-matrix:
 Charge =  0 Multiplicity = 1

                         Standard orientation:
 ---------------------------------------------------------------------
 Center     Atomic      Atomic             Coordinates (Angstroms)
 Number     Number       Type             X           Y           Z
 ---------------------------------------------------------------------
      1         12           0       -4.909220    0.693172   -0.299321
      2          6           0       -2.861189   -2.129461   -0.917640
      3          6           0       -7.590022   -1.549978   -0.312670
      4          6           0       -6.940786    3.179910    0.385083
      5          6           0       -2.249888    2.772450   -1.132677
      6          7           0       -5.138334   -1.566112   -0.552635
      7          6           0       -4.170833   -2.520427   -0.644041
      8          6           0       -4.665148   -3.974184   -0.737023
      9          6           0       -6.246868   -3.674176   -0.653807
     10          6           0       -6.297549   -2.181322   -0.515938
     11          6           0       -7.062322   -4.121559   -1.930931
     12          6           0       -4.152633   -4.870943    0.436764
     13          6           0       -3.165329   -6.020710    0.278482
     14          1           0       -3.276912   -7.280911    1.126386
     15          7           0       -6.978116    0.822582    0.077470
     16          6           0       -7.929865   -0.200077   -0.044632
     17          6           0       -9.232582    0.398648    0.142509
     18          6           0       -9.066420    1.732906    0.505512
     19          6           0       -7.611578    1.951713    0.387621
     20          6           0      -10.427872   -0.491867    0.157666
     21          6           0      -10.082019    2.827179    0.832331
     22          8           0       -9.791452    3.994855    1.109405
     23          6           0      -11.495459    2.414407    0.959879
     24          7           0       -4.699483    2.705772   -0.453463
     25          6           0       -5.605215    3.575556    0.087717
     26          6           0       -4.965920    4.987753    0.312242
     27          6           0       -3.564428    4.823570   -0.261275
     28          6           0       -3.499618    3.341194   -0.723107
     29          6           0       -5.815232    6.160037   -0.279037
     30          6           0       -2.522821    5.180210    0.810175
     31          6           0       -1.363105    6.020749    0.416248
     32          7           0       -2.974518    0.445529   -1.002937
     33          6           0       -1.996005    1.369127   -1.270861
     34          6           0       -0.770895    0.735511   -1.657288
     35          6           0       -0.981187   -0.715203   -1.450270
     36          6           0       -2.368963   -0.804786   -1.038161
     37          6           0        0.506425    1.454245   -2.124426
     38          6           0       -0.400106   -2.080357   -1.504306
     39          8           0        0.774873   -2.445625   -1.678577
     40          6           0       -1.615326   -3.033162   -1.150836
     41          6           0       -1.654954   -3.871119   -2.390441
     42          8           0       -2.236309   -3.646149   -3.445043
     43          8           0       -1.061981   -5.016896   -2.194374
     44          6           0       -0.840621   -5.935897   -3.337192
     45          1           0       -8.299063   -2.370999   -0.190250
     46          1           0       -7.506511    4.097258    0.558949
     47          1           0       -1.407747    3.441010   -1.321228
     48          1           0       -4.401455   -4.349316   -1.726676
     49          1           0       -6.799825   -4.051981    0.206752
     50          1           0       -6.492197   -4.336453   -2.834331
     51          1           0       -7.767401   -3.339874   -2.211477
     52          1           0       -7.634231   -5.013927   -1.675913
     53          1           0       -5.037125   -5.332952    0.875609
     54          1           0       -3.667040   -4.257626    1.194738
     55          1           0       -2.255694   -5.547436    0.648470
     56          1           0       -3.216153   -6.205950   -0.794507
     57          1           0      -10.938897   -0.470526    1.119226
     58          1           0      -10.149621   -1.526445   -0.044732
     59          1           0      -11.180557   -0.215326   -0.580015
     60          1           0      -11.562723    1.547390    1.617162
     61          1           0      -11.895235    2.004445    0.032293
     62          1           0      -12.147824    3.170302    1.395912
     63          1           0       -4.981816    5.061661    1.399494
     64          1           0       -3.382734    5.535247   -1.066464
     65          1           0       -6.807074    5.865955   -0.622040
     66          1           0       -5.351534    6.651819   -1.133358
     67          1           0       -5.844285    6.986830    0.430507
     68          1           0       -2.169347    4.199429    1.125768
     69          1           0       -2.918053    5.728830    1.664751
     70          1           0       -0.491239    5.435756    0.708111
     71          1           0       -1.449507    7.013554    0.857698
     72          1           0       -1.229651    6.145061   -0.658602
     73          1           0        0.475190    1.562791   -3.207931
     74          1           0        1.365496    0.869491   -1.795899
     75          1           0        0.578649    2.466476   -1.725991
     76          1           0       -1.306101   -3.625696   -0.289991
     77          1           0       -1.757342   -6.268820   -3.822666
     78          1           0       -0.249885   -6.818256   -3.091855
     79          1           0       -0.238339   -5.557453   -4.162541
     80         12           0        4.792205    0.610425    0.241167
     81          6           0        2.534717   -1.809105    1.164985
     82          6           0        7.230731   -1.954806   -0.123261
     83          6           0        7.252113    2.894971   -0.158046
     84          6           0        2.586982    3.048319    0.907728
     85          7           0        4.862753   -1.635407    0.500803
     86          6           0        3.785579   -2.377515    0.904946
     87          6           0        4.107180   -3.873446    0.878440
     88          6           0        5.688428   -3.833179    0.649540
     89          6           0        5.957589   -2.393148    0.323924
     90          6           0        6.527472   -4.421254    1.842801
     91          6           0        3.345444   -4.672760   -0.275091
     92          6           0        2.703109   -6.019528   -0.044852
     93          1           0        3.481310   -7.060389    0.678731
     94          7           0        6.963276    0.517469   -0.150992
     95          6           0        7.697738   -0.580601   -0.434719
     96          6           0        9.002186   -0.232034   -0.888995
     97          6           0        9.033727    1.197209   -0.942944
     98          6           0        7.726020    1.581152   -0.332349
     99          6           0        9.986005   -1.326724   -1.149332
    100          6           0       10.196816    2.110722   -1.290293
    101          8           0       10.188851    3.318606   -1.033326
    102          6           0       11.438130    1.547865   -1.960040
    103          7           0        4.954515    2.717234    0.507620
    104          6           0        6.052148    3.434888    0.150979
    105          6           0        5.747162    4.931806    0.166857
    106          6           0        4.180946    4.949166    0.341332
    107          6           0        3.874820    3.486157    0.594412
    108          6           0        6.516329    5.903070    1.110373
    109          6           0        3.340104    5.616495   -0.825744
    110          6           0        2.798919    4.772666   -1.960388
    111          7           0        2.991259    0.664925    0.986936
    112          6           0        2.096826    1.699365    1.095571
    113          6           0        0.839157    1.304519    1.616714
    114          6           0        0.938219   -0.083305    1.617398
    115          6           0        2.253421   -0.420105    1.205816
    116          6           0       -0.423148    2.071435    1.988692
    117          6           0        0.284303   -1.284451    1.903361
    118          8           0       -0.834237   -1.443075    2.356634
    119          6           0        1.294909   -2.538705    1.649866
    120          6           0        1.454808   -3.245879    2.914455
    121          8           0        1.987252   -2.789651    3.945641
    122          8           0        0.909415   -4.491023    2.910678
    123          6           0        0.715635   -5.183635    4.189542
    124          1           0        7.864022   -2.829249   -0.284520
    125          1           0        7.939777    3.643772   -0.556111
    126          1           0        1.763312    3.752507    0.778590
    127          1           0        3.762065   -4.315166    1.814128
    128          1           0        5.984747   -4.463311   -0.189218
    129          1           0        7.114723   -5.252828    1.454798
    130          1           0        5.786545   -4.659620    2.606090
    131          1           0        7.305252   -3.764741    2.234041
    132          1           0        4.140440   -4.782576   -1.012879
    133          1           0        2.672174   -4.016377   -0.825414
    134          1           0        2.300241   -6.404858   -0.981478
    135          1           0        1.878626   -5.831307    0.641877
    136          1           0       10.447807   -1.063734   -2.100302
    137          1           0        9.475149   -2.276651   -1.308647
    138          1           0       10.752556   -1.478432   -0.388642
    139          1           0       11.227846    0.828639   -2.752170
    140          1           0       12.161935    1.251438   -1.199632
    141          1           0       11.875223    2.406787   -2.470156
    142          1           0        6.096859    5.261593   -0.811669
    143          1           0        3.854535    5.595248    1.155412
    144          1           0        5.859147    6.257311    1.904424
    145          1           0        6.814085    6.751621    0.494641
    146          1           0        7.365860    5.334915    1.487721
    147          1           0        3.977960    6.383085   -1.263617
    148          1           0        2.463907    6.114087   -0.409460
    149          1           0        3.076220    5.176510   -2.934386
    150          1           0        1.714626    4.655549   -1.938922
    151          1           0        3.253727    3.792438   -1.817434
    152          1           0       -0.277452    3.128138    1.761264
    153          1           0       -0.634443    1.919863    3.047521
    154          1           0       -1.252464    1.675023    1.403542
    155          1           0        0.684080   -3.141288    0.977019
    156          1           0       -0.060628   -5.948627    4.167366
    157          1           0        0.615125   -4.539620    5.062666
    158          1           0        1.603162   -5.805919    4.305300
 ---------------------------------------------------------------------

 SCF Done:  E(RCAM-B3LYP) =  -4069.83665299     A.U. after   18 cycles

 Excitation energies and oscillator strengths:

 Excited State   1:      Singlet-A      1.6680 eV  743.31 nm  f=0.9289  <S**2>=0.000
     311 -> 313       -0.24622
     311 -> 314        0.25856
     312 -> 313        0.43634
     312 -> 314        0.39662
 This state for optimization and/or second-order correction.
 Total Energy, E(TD-HF/TD-DFT) =  -4069.77535483
 Copying the excited state density for this state as the 1-particle RhoCI density.

 Excited State   2:      Singlet-A      1.7689 eV  700.89 nm  f=0.0417  <S**2>=0.000
     309 -> 315        0.15413
     311 -> 313        0.51726
     311 -> 314       -0.25600
     312 -> 313        0.13418
     312 -> 314        0.33988

 Excited State   3:      Singlet-A      2.1546 eV  575.45 nm  f=0.0578  <S**2>=0.000
     309 -> 313        0.17793
     309 -> 314       -0.20001
     310 -> 313        0.42958
     310 -> 314        0.43229
     311 -> 315       -0.10062
     312 -> 316       -0.14465
     312 -> 317       -0.13327

 Excited State   4:      Singlet-A      2.2107 eV  560.84 nm  f=0.1787  <S**2>=0.000
     309 -> 313        0.49839
     309 -> 314       -0.28578
     310 -> 314       -0.26382
     311 -> 315       -0.25679

 Excited State   5:      Singlet-A      2.3212 eV  534.14 nm  f=0.0009  <S**2>=0.000
     311 -> 313        0.19280
     312 -> 313        0.49809
     312 -> 314       -0.45168

 The electronic state is 1-A.
 Alpha  occ. eigenvalues --  -46.88505 -46.88435 -19.25667 -19.24762 -19.19662
 Alpha  occ. eigenvalues --  -19.19626 -19.18467 -19.18377 -19.18299 -19.18089
 Alpha  occ. eigenvalues --  -14.42558 -14.41941 -14.41443 -14.40923 -14.39839
 Alpha  occ. eigenvalues --  -14.39051 -14.38964 -14.38864 -10.38917 -10.38474
 Alpha  occ. eigenvalues --  -10.36016 -10.35993 -10.34874 -10.34082 -10.32314
 Alpha  occ. eigenvalues --  -10.31728 -10.31461 -10.31408 -10.31197 -10.30972
 Alpha  occ. eigenvalues --  -10.30822 -10.30516 -10.30248 -10.30165 -10.29922
 Alpha  occ. eigenvalues --  -10.29568 -10.29509 -10.29485 -10.29410 -10.29318
 Alpha  occ. eigenvalues --  -10.28954 -10.28893 -10.28859 -10.28855 -10.28698
 Alpha  occ. eigenvalues --  -10.28319 -10.28223 -10.28104 -10.28032 -10.28012
 Alpha  occ. eigenvalues --  -10.27915 -10.27816 -10.27787 -10.27560 -10.27554
 Alpha  occ. eigenvalues --  -10.27529 -10.27459 -10.27387 -10.27265 -10.27181
 Alpha  occ. eigenvalues --  -10.27134 -10.27131 -10.27102 -10.27082 -10.26902
 Alpha  occ. eigenvalues --  -10.26873 -10.26529 -10.26427 -10.26413 -10.26212
 Alpha  occ. eigenvalues --  -10.26045 -10.25992 -10.25933 -10.25929 -10.25863
 Alpha  occ. eigenvalues --  -10.25814 -10.25768 -10.25758 -10.25411 -10.25381
 Alpha  occ. eigenvalues --  -10.25359 -10.25300 -10.25218 -10.24894 -10.24587
 Alpha  occ. eigenvalues --  -10.23998  -3.17098  -3.17047  -1.91996  -1.91929
 Alpha  occ. eigenvalues --   -1.91556  -1.91462  -1.91405  -1.91397  -1.18124
 Alpha  occ. eigenvalues --   -1.15496  -1.10125  -1.09538  -1.09164  -1.08971
 Alpha  occ. eigenvalues --   -1.06779  -1.05459  -1.05435  -1.04752  -1.04056
 Alpha  occ. eigenvalues --   -1.04033  -1.03527  -1.02838  -1.02775  -1.01420
 Alpha  occ. eigenvalues --   -0.91957  -0.91915  -0.89700  -0.89102  -0.88729
 Alpha  occ. eigenvalues --   -0.88506  -0.87836  -0.87758  -0.87276  -0.87066
 Alpha  occ. eigenvalues --   -0.86883  -0.86812  -0.85782  -0.85168  -0.84403
 Alpha  occ. eigenvalues --   -0.83694  -0.83611  -0.83333  -0.82972  -0.82712
 Alpha  occ. eigenvalues --   -0.82067  -0.81231  -0.80942  -0.80621  -0.80563
 Alpha  occ. eigenvalues --   -0.79768  -0.78830  -0.77849  -0.77677  -0.77059
 Alpha  occ. eigenvalues --   -0.76855  -0.76463  -0.76364  -0.75725  -0.75220
 Alpha  occ. eigenvalues --   -0.74906  -0.72953  -0.72301  -0.71873  -0.70951
 Alpha  occ. eigenvalues --   -0.69291  -0.69270  -0.68608  -0.68387  -0.67737
 Alpha  occ. eigenvalues --   -0.67314  -0.66950  -0.66363  -0.65807  -0.65435
 Alpha  occ. eigenvalues --   -0.64957  -0.64750  -0.64587  -0.64290  -0.64264
 Alpha  occ. eigenvalues --   -0.63588  -0.62620  -0.61819  -0.61006  -0.59645
 Alpha  occ. eigenvalues --   -0.59546  -0.59253  -0.59094  -0.58555  -0.58524
 Alpha  occ. eigenvalues --   -0.58241  -0.57842  -0.57486  -0.57224  -0.56793
 Alpha  occ. eigenvalues --   -0.56751  -0.55857  -0.55699  -0.55092  -0.54940
 Alpha  occ. eigenvalues --   -0.54567  -0.54508  -0.54432  -0.54321  -0.53892
 Alpha  occ. eigenvalues --   -0.53677  -0.53586  -0.53032  -0.52850  -0.52812
 Alpha  occ. eigenvalues --   -0.52591  -0.52522  -0.52307  -0.52197  -0.52145
 Alpha  occ. eigenvalues --   -0.51663  -0.51577  -0.51429  -0.51209  -0.50670
 Alpha  occ. eigenvalues --   -0.50565  -0.50336  -0.50198  -0.50063  -0.49956
 Alpha  occ. eigenvalues --   -0.49866  -0.49584  -0.49458  -0.49291  -0.49193
 Alpha  occ. eigenvalues --   -0.49031  -0.48929  -0.48732  -0.48486  -0.48449
 Alpha  occ. eigenvalues --   -0.48286  -0.48189  -0.48115  -0.48086  -0.48047
 Alpha  occ. eigenvalues --   -0.47892  -0.47626  -0.47574  -0.47256  -0.47058
 Alpha  occ. eigenvalues --   -0.46897  -0.46589  -0.46407  -0.46376  -0.46256
 Alpha  occ. eigenvalues --   -0.45867  -0.45744  -0.45666  -0.45571  -0.45520
 Alpha  occ. eigenvalues --   -0.45485  -0.45356  -0.45248  -0.45104  -0.44847
 Alpha  occ. eigenvalues --   -0.44763  -0.44508  -0.44327  -0.44319  -0.44126
 Alpha  occ. eigenvalues --   -0.43904  -0.43464  -0.43361  -0.43343  -0.43301
 Alpha  occ. eigenvalues --   -0.43124  -0.42947  -0.42751  -0.42705  -0.42586
 Alpha  occ. eigenvalues --   -0.42461  -0.42011  -0.41771  -0.41624  -0.41558
 Alpha  occ. eigenvalues --   -0.41393  -0.41369  -0.41305  -0.40936  -0.40872
 Alpha  occ. eigenvalues --   -0.40672  -0.40582  -0.40416  -0.40019  -0.39921
 Alpha  occ. eigenvalues --   -0.39864  -0.39606  -0.39461  -0.39375  -0.38464
 Alpha  occ. eigenvalues --   -0.38452  -0.38153  -0.37959  -0.37639  -0.37272
 Alpha  occ. eigenvalues --   -0.36722  -0.36595  -0.36513  -0.35817  -0.35789
 Alpha  occ. eigenvalues --   -0.35313  -0.35163  -0.34477  -0.33902  -0.33681
 Alpha  occ. eigenvalues --   -0.33161  -0.32929  -0.32257  -0.31967  -0.31827
 Alpha  occ. eigenvalues --   -0.31224  -0.30803  -0.30754  -0.30484  -0.30200
 Alpha  occ. eigenvalues --   -0.29970  -0.29510  -0.28670  -0.23957  -0.23130
 Alpha  occ. eigenvalues --   -0.21255  -0.20827
 Alpha virt. eigenvalues --   -0.08747  -0.08352  -0.01884  -0.00583  -0.00509
 Alpha virt. eigenvalues --    0.00854   0.01827   0.02726   0.03047   0.03202
 Alpha virt. eigenvalues --    0.05210   0.05279   0.05679   0.05908   0.05954

 Mulliken charges:
               1
     1  Mg   0.836009
     2  C    0.070975
     3  C   -0.081770
     4  C   -0.070763
     5  C   -0.086968
     6  N   -0.211009
     7  C   -0.067820
     8  C    0.007479
     9  C   -0.072157
    10  C   -0.021906
    11  C    0.046492
    12  C    0.024232
    13  C   -0.073812
    14  H    0.025175
    15  N   -0.362017
    16  C    0.171691
    17  C   -0.116241
    18  C   -0.037441
    19  C    0.149784
    20  C    0.098456
    21  C    0.037010
    22  O   -0.200415
    23  C    0.053774
    24  N   -0.349513
    25  C    0.001434
    26  C   -0.011896
    27  C   -0.015513
    28  C    0.093812
    29  C    0.058983
    30  C   -0.001248
    31  C    0.011514
    32  N   -0.371713
    33  C    0.119161
    34  C   -0.185926
    35  C   -0.004271
    36  C    0.106393
    37  C    0.135238
    38  C    0.042645
    39  O   -0.197666
    40  C   -0.052497
    41  C    0.168367
    42  O   -0.237994
    43  O   -0.279356
    44  C    0.188001
    45  H   -0.019485
    46  H   -0.008551
    47  H   -0.037530
    48  H    0.034778
    49  H    0.021435
    50  H    0.029538
    51  H    0.017069
    52  H    0.014971
    53  H    0.013588
    54  H    0.023114
    55  H    0.049782
    56  H    0.026860
    57  H    0.033288
    58  H    0.011147
    59  H    0.025032
    60  H    0.019981
    61  H    0.028156
    62  H    0.034787
    63  H    0.028963
    64  H    0.006297
    65  H    0.037276
    66  H    0.003019
    67  H    0.013039
    68  H    0.009934
    69  H    0.008274
    70  H    0.010826
    71  H    0.022457
    72  H    0.006393
    73  H    0.029004
    74  H    0.042372
    75  H   -0.002131
    76  H    0.053121
    77  H    0.035398
    78  H    0.033453
    79  H    0.034295
    80  Mg   0.836406
    81  C    0.051993
    82  C   -0.052791
    83  C   -0.056443
    84  C   -0.071110
    85  N   -0.258952
    86  C   -0.046528
    87  C   -0.044827
    88  C   -0.066210
    89  C    0.027039
    90  C    0.071566
    91  C    0.041913
    92  C   -0.040008
    93  H    0.003508
    94  N   -0.275603
    95  C    0.108665
    96  C   -0.140404
    97  C   -0.039968
    98  C    0.073937
    99  C    0.126728
   100  C   -0.002124
   101  O   -0.217978
   102  C    0.046634
   103  N   -0.278826
   104  C    0.029665
   105  C   -0.031903
   106  C    0.008419
   107  C    0.043741
   108  C    0.083189
   109  C   -0.013246
   110  C    0.008779
   111  N   -0.384939
   112  C    0.074938
   113  C   -0.171131
   114  C    0.116939
   115  C    0.092675
   116  C    0.126162
   117  C   -0.052608
   118  O   -0.181847
   119  C    0.016322
   120  C    0.190813
   121  O   -0.252984
   122  O   -0.325458
   123  C    0.186063
   124  H   -0.036156
   125  H   -0.010179
   126  H   -0.038298
   127  H    0.020194
   128  H    0.017307
   129  H    0.008284
   130  H    0.027321
   131  H    0.016670
   132  H   -0.017999
   133  H    0.032327
   134  H    0.027767
   135  H    0.030521
   136  H    0.008200
   137  H    0.014847
   138  H    0.038114
   139  H    0.032998
   140  H    0.046585
   141  H    0.023509
   142  H    0.009102
   143  H    0.008259
   144  H    0.013807
   145  H    0.017295
   146  H    0.029911
   147  H    0.003467
   148  H    0.003150
   149  H    0.014283
   150  H    0.015106
   151  H    0.021987
   152  H    0.001374
   153  H    0.034724
   154  H    0.064087
   155  H    0.025067
   156  H    0.032342
   157  H    0.056756
   158  H    0.020397
 Sum of Mulliken charges =  -0.00000

 Dipole moment (field-independent basis, Debye):
    X=             -4.1944    Y=             -3.2731    Z=             -1.9681  Tot=              5.6727
 Quadrupole moment (field-independent basis, Debye-Ang):
   XX=           -469.8048   YY=           -470.6904   ZZ=           -528.1685
   XY=              1.1425   XZ=            -16.8967   YZ=             -1.5214

 Normal termination of Gaussian 16 at Thu Sep  2 23:09:42 2021.
