 Gaussian 16, Revision A.03,
 Gaussian 16:  ES64L-G16RevA.03 25-Dec-2016

 -----------------------------------------------------
 #p cam-b3lyp/Def2SVP td=(nstates=5) density=(current)
 -----------------------------------------------------

 --------------------------------
 TDDFT excited states in gaussian
 --------------------------------
 Symbolic Z-matrix:
 Charge =  0 Multiplicity = 1

                         Standard orientation:
 ---------------------------------------------------------------------
 Center     Atomic      Atomic             Coordinates (Angstroms)
 Number     Number       Type             X           Y           Z
 ---------------------------------------------------------------------
      1         12           0       -0.784163    0.096537    0.220105
      2          6           0        2.732722    0.132101    0.105098
      3          6           0       -0.625574   -3.360365   -0.119409
      4          6           0       -4.097619    0.145894    0.005297
      5          6           0       -0.780016    3.648000   -0.306753
      6          7           0        0.840022   -1.413441   -0.005351
      7          6           0        2.212110   -1.147474    0.104691
      8          6           0        2.944405   -2.437152    0.426023
      9          6           0        1.935884   -3.569599    0.080831
     10          6           0        0.626448   -2.730148   -0.016842
     11          6           0        2.284619   -4.456718   -1.155349
     12          6           0        3.527458   -2.514013    1.879617
     13          6           0        4.859911   -3.376662    2.002609
     14          1           0        5.384992   -4.064990    0.739872
     15          7           0       -2.121631   -1.365227    0.109519
     16          6           0       -1.874680   -2.726227    0.056212
     17          6           0       -3.100977   -3.467964    0.117430
     18          6           0       -4.136192   -2.483351    0.025472
     19          6           0       -3.468899   -1.195007    0.082919
     20          6           0       -3.171607   -5.025368    0.090848
     21          6           0       -5.611072   -2.684979   -0.098727
     22          8           0       -6.386672   -1.726425   -0.328064
     23          6           0       -6.428106   -4.010086   -0.065773
     24          7           0       -2.237060    1.618981   -0.374258
     25          6           0       -3.561354    1.396635   -0.275801
     26          6           0       -4.339473    2.736247   -0.301017
     27          6           0       -3.296556    3.853024   -0.423085
     28          6           0       -1.980445    2.963914   -0.311574
     29          6           0       -5.461428    2.711988   -1.293785
     30          6           0       -3.362007    4.994354    0.614420
     31          6           0       -3.219131    4.554661    2.092405
     32          7           0        0.651440    1.644702   -0.117182
     33          6           0        0.491755    2.988403   -0.144568
     34          6           0        1.827194    3.571493   -0.024951
     35          6           0        2.780519    2.523152    0.105812
     36          6           0        2.015349    1.336847   -0.006456
     37          6           0        2.141384    5.060692    0.091115
     38          6           0        4.164317    2.208427    0.265470
     39          8           0        5.171269    2.877278    0.482387
     40          6           0        4.204544    0.545213    0.206054
     41          6           0        5.184343    0.108620   -0.866802
     42          8           0        4.917193    0.085479   -2.052257
     43          8           0        6.356183   -0.344959   -0.305083
     44          6           0        7.547397   -0.446356   -1.141910
     45          1           0       -0.455300   -4.438645   -0.099343
     46          1           0       -5.188031    0.100287    0.033754
     47          1           0       -0.865018    4.736087   -0.333267
     48          1           0        3.809731   -2.532385   -0.229744
     49          1           0        1.868610   -4.211353    0.958838
     50          1           0        1.395882   -4.348709   -1.776199
     51          1           0        2.330695   -5.509169   -0.872906
     52          1           0        3.154425   -4.215591   -1.766366
     53          1           0        2.842164   -3.022582    2.557016
     54          1           0        3.665362   -1.499620    2.251695
     55          1           0        4.636094   -4.226567    2.647519
     56          1           0        5.627056   -2.726323    2.422198
     57          1           0       -4.032424   -5.303776   -0.518310
     58          1           0       -3.331923   -5.454495    1.079339
     59          1           0       -2.333151   -5.625175   -0.262844
     60          1           0       -6.224994   -4.564098    0.851133
     61          1           0       -6.258469   -4.627274   -0.948004
     62          1           0       -7.488241   -3.878109    0.147287
     63          1           0       -4.909044    2.756059    0.627233
     64          1           0       -3.320160    4.137587   -1.475612
     65          1           0       -6.435561    2.561669   -0.828040
     66          1           0       -5.266248    1.957562   -2.056089
     67          1           0       -5.551011    3.621210   -1.889293
     68          1           0       -4.366813    5.394464    0.477332
     69          1           0       -2.624654    5.761563    0.376342
     70          1           0       -2.338897    5.080461    2.461746
     71          1           0       -3.077458    3.473891    2.085754
     72          1           0       -4.113665    4.709226    2.695945
     73          1           0        2.892284    5.272645    0.851719
     74          1           0        1.281103    5.622897    0.453221
     75          1           0        2.384003    5.432965   -0.904577
     76          1           0        4.626757    0.255825    1.168729
     77          1           0        7.215073   -0.829240   -2.107184
     78          1           0        8.313902   -1.124799   -0.767200
     79          1           0        7.978335    0.554784   -1.155021
 ---------------------------------------------------------------------

 SCF Done:  E(RCAM-B3LYP) =  -2034.91201514     A.U. after   17 cycles

 Excitation energies and oscillator strengths:

 Excited State   1:      Singlet-A      1.6591 eV  747.30 nm  f=0.4026  <S**2>=0.000
     155 ->158         0.16738
     156 ->157         0.68826
     155 <-158         0.10537
 This state for optimization and/or second-order correction.
 Total Energy, E(TD-HF/TD-DFT) =  -2034.85104451
 Copying the excited state density for this state as the 1-particle RhoCI density.

 Excited State   2:      Singlet-A      2.1919 eV  565.66 nm  f=0.1548  <S**2>=0.000
     155 ->157         0.65717
     156 ->158        -0.24510

 Excited State   3:      Singlet-A      3.2792 eV  378.09 nm  f=0.0027  <S**2>=0.000
     153 ->157         0.53600
     153 ->158         0.13277
     153 ->159        -0.31830
     153 ->161         0.20225

 Excited State   4:      Singlet-A      3.3084 eV  374.75 nm  f=0.0006  <S**2>=0.000
     151 ->157         0.11057
     152 ->157        -0.11303
     154 ->157         0.66763

 Excited State   5:      Singlet-A      3.5003 eV  354.21 nm  f=0.0217  <S**2>=0.000
     150 ->157         0.14130
     151 ->157        -0.22120
     151 ->159         0.10279
     152 ->157         0.55652
     156 ->158         0.27070

 The electronic state is 1-A.
 Alpha  occ. eigenvalues --  -46.88900 -19.24248 -19.19350 -19.19249 -19.18355
 Alpha  occ. eigenvalues --  -14.42542 -14.41424 -14.40265 -14.39370 -10.39109
 Alpha  occ. eigenvalues --  -10.35580 -10.35469 -10.31533 -10.31405 -10.30929
 Alpha  occ. eigenvalues --  -10.30791 -10.30723 -10.30461 -10.30344 -10.29844
 Alpha  occ. eigenvalues --  -10.29508 -10.29283 -10.29030 -10.28235 -10.28193
 Alpha  occ. eigenvalues --  -10.28146 -10.27968 -10.27937 -10.27844 -10.27515
 Alpha  occ. eigenvalues --  -10.27511 -10.27467 -10.27448 -10.26877 -10.26718
 Alpha  occ. eigenvalues --  -10.26583 -10.26325 -10.26250 -10.26064 -10.25609
 Alpha  occ. eigenvalues --  -10.25592 -10.25285 -10.24899  -3.17471  -1.92341
 Alpha  occ. eigenvalues --   -1.91927  -1.91785  -1.15439  -1.09440  -1.08405
 Alpha  occ. eigenvalues --   -1.07446  -1.04321  -1.03460  -1.03208  -1.02107
 Alpha  occ. eigenvalues --   -0.92180  -0.89202  -0.88543  -0.88140  -0.87361
 Alpha  occ. eigenvalues --   -0.86793  -0.85308  -0.83811  -0.83330  -0.82179
 Alpha  occ. eigenvalues --   -0.81058  -0.80620  -0.80032  -0.78701  -0.76943
 Alpha  occ. eigenvalues --   -0.76765  -0.75830  -0.74979  -0.72535  -0.71077
 Alpha  occ. eigenvalues --   -0.69918  -0.69129  -0.68327  -0.67519  -0.65211
 Alpha  occ. eigenvalues --   -0.64906  -0.64145  -0.64126  -0.61627  -0.60900
 Alpha  occ. eigenvalues --   -0.59482  -0.58787  -0.58065  -0.57412  -0.56946
 Alpha  occ. eigenvalues --   -0.55892  -0.55756  -0.54916  -0.54737  -0.53937
 Alpha  occ. eigenvalues --   -0.53468  -0.53043  -0.52770  -0.52538  -0.52342
 Alpha  occ. eigenvalues --   -0.51981  -0.51313  -0.51019  -0.50714  -0.50010
 Alpha  occ. eigenvalues --   -0.49509  -0.49274  -0.49198  -0.49021  -0.48760
 Alpha  occ. eigenvalues --   -0.48598  -0.48181  -0.47867  -0.47745  -0.47409
 Alpha  occ. eigenvalues --   -0.46676  -0.46369  -0.46287  -0.45824  -0.45456
 Alpha  occ. eigenvalues --   -0.45196  -0.44712  -0.44543  -0.44232  -0.44070
 Alpha  occ. eigenvalues --   -0.43991  -0.43396  -0.43128  -0.43036  -0.42632
 Alpha  occ. eigenvalues --   -0.42407  -0.41917  -0.41840  -0.41595  -0.41524
 Alpha  occ. eigenvalues --   -0.40727  -0.40598  -0.40092  -0.39626  -0.39236
 Alpha  occ. eigenvalues --   -0.38673  -0.37796  -0.37627  -0.36815  -0.36304
 Alpha  occ. eigenvalues --   -0.35960  -0.34005  -0.33736  -0.33052  -0.31461
 Alpha  occ. eigenvalues --   -0.30786  -0.30730  -0.30288  -0.29484  -0.24115
 Alpha  occ. eigenvalues --   -0.21376
 Alpha virt. eigenvalues --   -0.09237  -0.01403  -0.00043   0.01365   0.02174
 Alpha virt. eigenvalues --    0.05215   0.05394   0.06081   0.07323   0.07824
 Alpha virt. eigenvalues --    0.08504   0.09069   0.09426   0.09593   0.10642

 Mulliken charges:
               1
     1  Mg   0.822639
     2  C    0.016930
     3  C   -0.065413
     4  C   -0.062022
     5  C   -0.067166
     6  N   -0.283398
     7  C   -0.024816
     8  C   -0.002482
     9  C   -0.050369
    10  C   -0.001225
    11  C    0.075080
    12  C    0.034930
    13  C   -0.077314
    14  H    0.021987
    15  N   -0.406753
    16  C    0.182761
    17  C   -0.130222
    18  C    0.001189
    19  C    0.113436
    20  C    0.102264
    21  C   -0.008309
    22  O   -0.248135
    23  C    0.052032
    24  N   -0.280524
    25  C    0.062150
    26  C   -0.080467
    27  C    0.023922
    28  C    0.006398
    29  C    0.069666
    30  C    0.031262
    31  C    0.008753
    32  N   -0.345946
    33  C    0.140740
    34  C   -0.183893
    35  C    0.047441
    36  C    0.102733
    37  C    0.113905
    38  C    0.039027
    39  O   -0.173495
    40  C   -0.066983
    41  C    0.208087
    42  O   -0.208068
    43  O   -0.347497
    44  C    0.171939
    45  H   -0.030358
    46  H   -0.006372
    47  H   -0.029239
    48  H    0.012986
    49  H    0.010397
    50  H    0.012482
    51  H    0.014227
    52  H    0.036922
    53  H    0.007852
    54  H    0.016936
    55  H    0.033457
    56  H    0.047855
    57  H    0.014481
    58  H    0.025245
    59  H    0.021054
    60  H    0.008001
    61  H    0.050898
    62  H    0.020950
    63  H    0.013984
    64  H    0.013524
    65  H    0.022530
    66  H    0.021405
    67  H   -0.000253
    68  H    0.008606
    69  H    0.016260
    70  H    0.024718
    71  H    0.020527
    72  H    0.020751
    73  H    0.036726
    74  H   -0.000704
    75  H    0.038068
    76  H    0.035461
    77  H    0.043496
    78  H    0.035772
    79  H    0.046580
 Sum of Mulliken charges =  -0.00000

 Dipole moment (field-independent basis, Debye):
    X=             -0.6664    Y=             -3.1827    Z=              3.1144  Tot=              4.5026
 Quadrupole moment (field-independent basis, Debye-Ang):
   XX=           -270.9596   YY=           -223.2573   ZZ=           -259.8566
   XY=            -22.9543   XZ=             -1.8608   YZ=             -2.6356

 Normal termination of Gaussian 16 at Fri Oct  8 13:18:50 2021.
