 Gaussian 16, Revision A.03,
 Gaussian 16:  ES64L-G16RevA.03 25-Dec-2016

 ----------------------------------------------------------
 #p cam-b3lyp/Def2SVP td=(nstates=5) density=(transition=1)
 ----------------------------------------------------------

 --------------------------------
 TDDFT excited states in gaussian
 --------------------------------
 Symbolic Z-matrix:
 Charge =  0 Multiplicity = 1

                         Standard orientation:
 ---------------------------------------------------------------------
 Center     Atomic      Atomic             Coordinates (Angstroms)
 Number     Number       Type             X           Y           Z
 ---------------------------------------------------------------------
      1         12           0       24.620529   -0.868421    0.167631
      2          6           0       26.385283    2.153938   -0.582836
      3          6           0       24.000956    0.436561    3.258944
      4          6           0       23.454773   -3.695376    1.007846
      5          6           0       26.317663   -2.346031   -2.493584
      6          7           0       25.173793    1.061380    1.100588
      7          6           0       25.800223    2.157896    0.685365
      8          6           0       25.711595    3.340263    1.696072
      9          6           0       25.459648    2.509785    3.033543
     10          6           0       24.806889    1.276562    2.434383
     11          6           0       26.744010    2.090764    3.741594
     12          6           0       24.514941    4.300683    1.384075
     13          6           0       24.549420    5.646216    2.114626
     14          1           0       24.059194    6.830153    1.425191
     15          7           0       23.437843   -1.372047    1.667786
     16          6           0       23.299180   -0.716310    2.845100
     17          6           0       22.304768   -1.484383    3.624773
     18          6           0       22.018290   -2.743235    2.882267
     19          6           0       22.990868   -2.665115    1.822377
     20          6           0       21.698495   -0.987769    4.901314
     21          6           0       21.032595   -3.847317    3.100304
     22          8           0       21.106480   -4.958817    2.472863
     23          6           0       20.017200   -3.624538    4.145476
     24          7           0       25.007889   -2.814141   -0.481801
     25          6           0       24.322196   -3.853792    0.005984
     26          6           0       24.566755   -5.095391   -0.799350
     27          6           0       25.378770   -4.630278   -2.093203
     28          6           0       25.538518   -3.129822   -1.744804
     29          6           0       25.339400   -6.213958   -0.086722
     30          6           0       24.781080   -5.007787   -3.471852
     31          6           0       23.489747   -4.253080   -3.695403
     32          7           0       25.958109   -0.196241   -1.404023
     33          6           0       26.563604   -0.987014   -2.391307
     34          6           0       27.464877   -0.106660   -3.157304
     35          6           0       27.332717    1.139550   -2.547927
     36          6           0       26.427476    1.037845   -1.453173
     37          6           0       28.311477   -0.508994   -4.227738
     38          6           0       27.764458    2.527874   -2.551633
     39          8           0       28.451560    3.220315   -3.303902
     40          6           0       27.261896    3.212489   -1.204577
     41          6           0       26.625911    4.525478   -1.571855
     42          8           0       25.566292    4.561099   -2.230114
     43          8           0       27.227655    5.515633   -0.895069
     44          6           0       26.624652    6.842545   -1.191458
     45          1           0       23.947559    0.642553    4.329765
     46          1           0       22.992442   -4.666933    1.194303
     47          1           0       26.815487   -2.717916   -3.390984
     48          1           0       26.625027    3.927954    1.789269
     49          1           0       24.766322    3.017859    3.703529
     50          1           0       27.623625    2.321437    3.140771
     51          1           0       26.656351    1.014379    3.890601
     52          1           0       26.796824    2.528010    4.738992
     53          1           0       23.600278    3.884001    1.805772
     54          1           0       24.429978    4.475182    0.310922
     55          1           0       25.529826    5.837337    2.551874
     56          1           0       23.877695    5.587160    2.971071
     57          1           0       22.225374   -0.113395    5.281333
     58          1           0       21.868941   -1.756386    5.654896
     59          1           0       20.629122   -0.800800    4.802241
     60          1           0       20.515018   -3.452179    5.099949
     61          1           0       19.344997   -4.480595    4.099006
     62          1           0       19.469082   -2.710263    3.916094
     63          1           0       23.627601   -5.550359   -1.111473
     64          1           0       26.385487   -5.048197   -2.116402
     65          1           0       24.805289   -7.163939   -0.055633
     66          1           0       25.582126   -5.868732    0.917865
     67          1           0       26.330666   -6.414833   -0.492254
     68          1           0       24.541281   -6.070079   -3.503116
     69          1           0       25.451439   -4.794469   -4.304538
     70          1           0       22.755386   -4.868095   -3.176459
     71          1           0       23.264634   -4.191561   -4.760649
     72          1           0       23.506653   -3.280588   -3.203002
     73          1           0       28.215864    0.257362   -4.996845
     74          1           0       28.028882   -1.490076   -4.608817
     75          1           0       29.279472   -0.518498   -3.726987
     76          1           0       28.140310    3.345345   -0.573815
     77          1           0       27.429894    7.491180   -1.536552
     78          1           0       26.081540    7.143229   -0.295342
     79          1           0       25.946813    6.884214   -2.044767
     80         12           0      -25.508945   -0.457860   -0.170957
     81          6           0      -23.797897    2.571659   -0.697546
     82          6           0      -25.994402    0.545245    3.122780
     83          6           0      -26.824238   -3.460397    0.360408
     84          6           0      -24.184929   -1.679004   -3.276803
     85          7           0      -24.945844    1.314129    1.058600
     86          6           0      -24.348953    2.483172    0.566122
     87          6           0      -24.606309    3.620153    1.537626
     88          6           0      -25.048837    2.928737    2.858543
     89          6           0      -25.356499    1.501307    2.313905
     90          6           0      -24.049972    3.013921    4.055100
     91          6           0      -25.602734    4.713161    1.016797
     92          6           0      -25.311927    6.177198    1.570649
     93          1           0      -24.161141    6.349597    2.565626
     94          7           0      -26.382994   -1.252657    1.423452
     95          6           0      -26.558715   -0.664987    2.664386
     96          6           0      -27.352360   -1.503346    3.515860
     97          6           0      -27.504228   -2.729877    2.793262
     98          6           0      -26.932919   -2.493325    1.479466
     99          6           0      -27.743973   -1.127366    4.977530
    100          6           0      -28.120101   -4.013023    3.246676
    101          8           0      -28.042440   -5.057281    2.556408
    102          6           0      -28.846056   -4.335505    4.585905
    103          7           0      -25.289555   -2.398843   -1.154048
    104          6           0      -26.032305   -3.458258   -0.781427
    105          6           0      -26.036908   -4.535794   -1.894782
    106          6           0      -25.182820   -3.989591   -3.044548
    107          6           0      -24.896137   -2.536691   -2.459745
    108          6           0      -25.705285   -5.894872   -1.358225
    109          6           0      -25.820156   -3.975993   -4.450590
    110          6           0      -27.127225   -3.155189   -4.577206
    111          7           0      -24.185806    0.225709   -1.705092
    112          6           0      -23.905502   -0.311522   -2.915296
    113          6           0      -23.255704    0.737815   -3.699104
    114          6           0      -23.190016    1.925812   -2.918530
    115          6           0      -23.734030    1.552963   -1.665357
    116          6           0      -22.846296    0.629493   -5.165580
    117          6           0      -22.772714    3.291320   -2.892403
    118          8           0      -22.334921    4.065380   -3.739478
    119          6           0      -23.111643    3.782321   -1.338224
    120          6           0      -21.854140    4.354134   -0.711043
    121          8           0      -20.967559    3.670150   -0.238446
    122          8           0      -21.911519    5.728512   -0.663497
    123          6           0      -20.677260    6.480131   -0.460452
    124          1           0      -26.198489    1.012567    4.088204
    125          1           0      -27.357075   -4.392522    0.558184
    126          1           0      -23.934031   -2.076853   -4.262006
    127          1           0      -23.674053    4.153924    1.721680
    128          1           0      -25.988078    3.392423    3.158698
    129          1           0      -23.897689    1.964476    4.304999
    130          1           0      -24.528815    3.465908    4.924564
    131          1           0      -23.071422    3.472059    3.911592
    132          1           0      -26.619543    4.519340    1.356903
    133          1           0      -25.609233    4.685437   -0.072074
    134          1           0      -26.174233    6.473768    2.167990
    135          1           0      -25.161420    6.824317    0.706882
    136          1           0      -27.683772   -2.036633    5.576864
    137          1           0      -28.767987   -0.763920    5.056690
    138          1           0      -27.206189   -0.355672    5.528123
    139          1           0      -29.673729   -3.644983    4.750342
    140          1           0      -28.165425   -4.348786    5.437136
    141          1           0      -29.479429   -5.221112    4.550744
    142          1           0      -27.085882   -4.683609   -2.148272
    143          1           0      -24.223378   -4.497373   -2.939796
    144          1           0      -26.584862   -6.526553   -1.232632
    145          1           0      -25.149271   -5.800095   -0.425366
    146          1           0      -25.013617   -6.464320   -1.980049
    147          1           0      -26.062969   -5.025039   -4.621072
    148          1           0      -25.091958   -3.641817   -5.190208
    149          1           0      -26.912716   -2.392407   -5.325431
    150          1           0      -27.322112   -2.722516   -3.595885
    151          1           0      -28.013566   -3.751751   -4.793664
    152          1           0      -23.102487    1.519797   -5.739181
    153          1           0      -23.410458   -0.147280   -5.680967
    154          1           0      -21.792535    0.351808   -5.202098
    155          1           0      -23.813614    4.606449   -1.467852
    156          1           0      -20.097027    5.927276    0.278787
    157          1           0      -20.814697    7.491774   -0.078471
    158          1           0      -20.223857    6.564898   -1.448077
 ---------------------------------------------------------------------

 SCF Done:  E(RCAM-B3LYP) =  -4069.82052855     A.U. after   18 cycles

 Excitation energies and oscillator strengths:

 Excited State   1:      Singlet-A      1.6591 eV  747.30 nm  f=0.4002  <S**2>=0.000
     309 -> 316       -0.16731
     311 -> 313        0.68827
     309 <- 316       -0.10534
 This state for optimization and/or second-order correction.
 Total Energy, E(TD-HF/TD-DFT) =  -4069.75955806
 Copying the excited state density for this state as the 1-particle RhoCI density.

 Excited State   2:      Singlet-A      1.6799 eV  738.06 nm  f=0.3903  <S**2>=0.000
     310 -> 315       -0.17556
     312 -> 314        0.68569
     310 <- 315       -0.10513

 Excited State   3:      Singlet-A      2.1918 eV  565.66 nm  f=0.1311  <S**2>=0.000
     309 -> 313        0.65424
     311 -> 316        0.24410

 Excited State   4:      Singlet-A      2.1926 eV  565.48 nm  f=0.1219  <S**2>=0.000
     310 -> 314        0.63787
     312 -> 315        0.27709

 Excited State   5:      Singlet-A      3.0392 eV  407.95 nm  f=0.0000  <S**2>=0.000
     312 -> 313        0.70711

 The electronic state is 1-A.
 Alpha  occ. eigenvalues --  -46.88902 -46.87758 -19.26247 -19.24250 -19.19352
 Alpha  occ. eigenvalues --  -19.19251 -19.18982 -19.18775 -19.18357 -19.18132
 Alpha  occ. eigenvalues --  -14.42544 -14.42412 -14.41426 -14.41412 -14.40267
 Alpha  occ. eigenvalues --  -14.39372 -14.39364 -14.38549 -10.39111 -10.39042
 Alpha  occ. eigenvalues --  -10.35581 -10.35471 -10.35409 -10.34352 -10.31642
 Alpha  occ. eigenvalues --  -10.31535 -10.31407 -10.31367 -10.30930 -10.30870
 Alpha  occ. eigenvalues --  -10.30793 -10.30724 -10.30532 -10.30469 -10.30462
 Alpha  occ. eigenvalues --  -10.30345 -10.30169 -10.29883 -10.29846 -10.29592
 Alpha  occ. eigenvalues --  -10.29510 -10.29286 -10.29216 -10.29032 -10.28711
 Alpha  occ. eigenvalues --  -10.28499 -10.28327 -10.28237 -10.28195 -10.28148
 Alpha  occ. eigenvalues --  -10.28079 -10.27970 -10.27939 -10.27846 -10.27755
 Alpha  occ. eigenvalues --  -10.27689 -10.27546 -10.27517 -10.27513 -10.27470
 Alpha  occ. eigenvalues --  -10.27463 -10.27449 -10.27442 -10.27412 -10.27365
 Alpha  occ. eigenvalues --  -10.27121 -10.26878 -10.26718 -10.26665 -10.26585
 Alpha  occ. eigenvalues --  -10.26369 -10.26327 -10.26253 -10.26198 -10.26146
 Alpha  occ. eigenvalues --  -10.26065 -10.25981 -10.25807 -10.25609 -10.25592
 Alpha  occ. eigenvalues --  -10.25399 -10.25287 -10.24901 -10.24795 -10.24750
 Alpha  occ. eigenvalues --  -10.24647  -3.17473  -3.16501  -1.92343  -1.91928
 Alpha  occ. eigenvalues --   -1.91786  -1.91383  -1.90969  -1.90811  -1.16595
 Alpha  occ. eigenvalues --   -1.15441  -1.09441  -1.08590  -1.08407  -1.07449
 Alpha  occ. eigenvalues --   -1.07177  -1.06604  -1.04543  -1.04323  -1.03722
 Alpha  occ. eigenvalues --   -1.03462  -1.03210  -1.03196  -1.02373  -1.02109
 Alpha  occ. eigenvalues --   -0.92181  -0.91934  -0.89482  -0.89203  -0.89150
 Alpha  occ. eigenvalues --   -0.88545  -0.88249  -0.88142  -0.87833  -0.87635
 Alpha  occ. eigenvalues --   -0.87362  -0.87235  -0.86795  -0.85309  -0.84944
 Alpha  occ. eigenvalues --   -0.83899  -0.83812  -0.83331  -0.82928  -0.82610
 Alpha  occ. eigenvalues --   -0.82180  -0.81548  -0.81060  -0.80622  -0.80558
 Alpha  occ. eigenvalues --   -0.80034  -0.78759  -0.78703  -0.77180  -0.76945
 Alpha  occ. eigenvalues --   -0.76896  -0.76767  -0.75886  -0.75832  -0.74981
 Alpha  occ. eigenvalues --   -0.74861  -0.72736  -0.72536  -0.71635  -0.71079
 Alpha  occ. eigenvalues --   -0.69920  -0.69869  -0.69131  -0.68835  -0.68329
 Alpha  occ. eigenvalues --   -0.67603  -0.67521  -0.67181  -0.65248  -0.65213
 Alpha  occ. eigenvalues --   -0.64909  -0.64816  -0.64583  -0.64231  -0.64146
 Alpha  occ. eigenvalues --   -0.64128  -0.62260  -0.61629  -0.60902  -0.60403
 Alpha  occ. eigenvalues --   -0.59766  -0.59484  -0.58949  -0.58789  -0.58466
 Alpha  occ. eigenvalues --   -0.58067  -0.57547  -0.57414  -0.57271  -0.56948
 Alpha  occ. eigenvalues --   -0.56272  -0.55941  -0.55893  -0.55757  -0.55482
 Alpha  occ. eigenvalues --   -0.55302  -0.54917  -0.54738  -0.54486  -0.53939
 Alpha  occ. eigenvalues --   -0.53857  -0.53470  -0.53260  -0.53183  -0.53044
 Alpha  occ. eigenvalues --   -0.52876  -0.52771  -0.52717  -0.52540  -0.52400
 Alpha  occ. eigenvalues --   -0.52344  -0.51983  -0.51878  -0.51578  -0.51315
 Alpha  occ. eigenvalues --   -0.51158  -0.51020  -0.50716  -0.50533  -0.50012
 Alpha  occ. eigenvalues --   -0.49993  -0.49880  -0.49511  -0.49476  -0.49275
 Alpha  occ. eigenvalues --   -0.49199  -0.49177  -0.49058  -0.49022  -0.48762
 Alpha  occ. eigenvalues --   -0.48600  -0.48555  -0.48423  -0.48407  -0.48183
 Alpha  occ. eigenvalues --   -0.47869  -0.47747  -0.47657  -0.47411  -0.47259
 Alpha  occ. eigenvalues --   -0.46759  -0.46677  -0.46517  -0.46371  -0.46321
 Alpha  occ. eigenvalues --   -0.46289  -0.46125  -0.45826  -0.45785  -0.45458
 Alpha  occ. eigenvalues --   -0.45198  -0.45164  -0.44714  -0.44544  -0.44540
 Alpha  occ. eigenvalues --   -0.44468  -0.44234  -0.44106  -0.44071  -0.44050
 Alpha  occ. eigenvalues --   -0.43993  -0.43981  -0.43457  -0.43397  -0.43348
 Alpha  occ. eigenvalues --   -0.43130  -0.43038  -0.42989  -0.42661  -0.42633
 Alpha  occ. eigenvalues --   -0.42617  -0.42409  -0.41971  -0.41919  -0.41842
 Alpha  occ. eigenvalues --   -0.41666  -0.41596  -0.41526  -0.41495  -0.41103
 Alpha  occ. eigenvalues --   -0.40831  -0.40784  -0.40729  -0.40600  -0.40533
 Alpha  occ. eigenvalues --   -0.40195  -0.40094  -0.39627  -0.39403  -0.39238
 Alpha  occ. eigenvalues --   -0.38674  -0.38431  -0.37798  -0.37709  -0.37629
 Alpha  occ. eigenvalues --   -0.37282  -0.37225  -0.36817  -0.36675  -0.36305
 Alpha  occ. eigenvalues --   -0.36155  -0.35962  -0.34248  -0.34007  -0.33737
 Alpha  occ. eigenvalues --   -0.33732  -0.33148  -0.33054  -0.31463  -0.31305
 Alpha  occ. eigenvalues --   -0.30997  -0.30788  -0.30732  -0.30290  -0.29992
 Alpha  occ. eigenvalues --   -0.29485  -0.29411  -0.29284  -0.24117  -0.24042
 Alpha  occ. eigenvalues --   -0.21378  -0.21090
 Alpha virt. eigenvalues --   -0.09239  -0.08736  -0.01712  -0.01405  -0.00045
 Alpha virt. eigenvalues --   -0.00019   0.01364   0.02172   0.02238   0.03162
 Alpha virt. eigenvalues --    0.04756   0.05136   0.05212   0.05391   0.06079

 Mulliken charges:
               1
     1  Mg  11.999974
     2  C    6.000051
     3  C    5.999982
     4  C    5.999932
     5  C    6.000026
     6  N    7.000068
     7  C    5.999908
     8  C    6.000012
     9  C    5.999990
    10  C    6.000037
    11  C    5.999987
    12  C    6.000015
    13  C    6.000012
    14  H    0.999965
    15  N    6.999988
    16  C    6.000123
    17  C    6.000083
    18  C    6.000048
    19  C    6.000106
    20  C    5.999965
    21  C    6.000025
    22  O    8.000099
    23  C    5.999987
    24  N    6.999953
    25  C    6.000101
    26  C    5.999974
    27  C    6.000032
    28  C    5.999940
    29  C    5.999986
    30  C    6.000017
    31  C    6.000004
    32  N    7.000019
    33  C    5.999843
    34  C    5.999929
    35  C    5.999945
    36  C    5.999860
    37  C    6.000038
    38  C    5.999971
    39  O    7.999901
    40  C    6.000002
    41  C    5.999986
    42  O    7.999966
    43  O    8.000006
    44  C    6.000014
    45  H    1.000040
    46  H    1.000024
    47  H    0.999980
    48  H    1.000015
    49  H    0.999998
    50  H    1.000060
    51  H    1.000001
    52  H    1.000034
    53  H    0.999942
    54  H    0.999994
    55  H    1.000023
    56  H    0.999979
    57  H    1.000076
    58  H    1.000092
    59  H    1.000047
    60  H    1.000046
    61  H    1.000047
    62  H    0.999989
    63  H    0.999983
    64  H    1.000005
    65  H    1.000013
    66  H    1.000005
    67  H    1.000051
    68  H    0.999979
    69  H    1.000008
    70  H    0.999957
    71  H    0.999964
    72  H    1.000001
    73  H    0.999933
    74  H    0.999940
    75  H    0.999965
    76  H    0.999996
    77  H    0.999999
    78  H    0.999984
    79  H    0.999965
    80  Mg  12.000540
    81  C    5.973980
    82  C    6.005585
    83  C    6.023286
    84  C    5.990408
    85  N    6.988925
    86  C    6.037491
    87  C    5.990258
    88  C    6.012056
    89  C    5.974823
    90  C    5.998178
    91  C    5.996998
    92  C    5.999232
    93  H    1.005480
    94  N    7.007387
    95  C    5.959919
    96  C    5.974621
    97  C    5.986600
    98  C    5.966039
    99  C    6.003566
   100  C    5.991966
   101  O    7.967242
   102  C    6.004493
   103  N    7.008466
   104  C    5.965670
   105  C    6.005232
   106  C    5.991357
   107  C    6.021824
   108  C    6.002528
   109  C    5.995850
   110  C    5.994502
   111  N    6.995155
   112  C    6.037303
   113  C    6.038582
   114  C    5.998651
   115  C    6.041902
   116  C    5.996268
   117  C    6.012295
   118  O    8.026287
   119  C    6.005704
   120  C    6.003030
   121  O    8.005592
   122  O    8.001764
   123  C    5.997965
   124  H    0.985923
   125  H    0.996282
   126  H    1.010431
   127  H    0.999050
   128  H    0.996981
   129  H    1.005041
   130  H    0.997068
   131  H    0.986389
   132  H    1.012618
   133  H    0.992060
   134  H    1.005611
   135  H    0.996813
   136  H    0.983721
   137  H    0.978500
   138  H    0.979908
   139  H    0.991739
   140  H    0.990890
   141  H    0.985510
   142  H    1.000407
   143  H    1.004354
   144  H    1.002014
   145  H    1.003924
   146  H    0.990014
   147  H    1.009661
   148  H    0.995284
   149  H    0.994556
   150  H    1.007339
   151  H    1.008253
   152  H    1.019782
   153  H    1.021698
   154  H    1.023403
   155  H    1.008890
   156  H    1.004811
   157  H    1.006048
   158  H    1.000025
 Sum of Mulliken charges = 624.00000

 Dipole moment (field-independent basis, Debye):
    X=              5.4199    Y=              4.3642    Z=             -8.8764  Tot=             11.2789
 Quadrupole moment (field-independent basis, Debye-Ang):
   XX=           -275.3265   YY=             -1.5323   ZZ=              0.5294
   XY=           -112.8467   XZ=            226.2747   YZ=              4.4690

 Normal termination of Gaussian 16 at Wed Sep 22 10:45:43 2021.
