 Gaussian 16, Revision A.03,
 Gaussian 16:  ES64L-G16RevA.03 25-Dec-2016

 -----------------------------------
 #p cam-b3lyp/Def2SVP td=(nstates=5)
 -----------------------------------

 --------------------------------
 TDDFT excited states in gaussian
 --------------------------------
 Symbolic Z-matrix:
 Charge =  0 Multiplicity = 1

                         Standard orientation:
 ---------------------------------------------------------------------
 Center     Atomic      Atomic             Coordinates (Angstroms)
 Number     Number       Type             X           Y           Z
 ---------------------------------------------------------------------
      1         12           0       26.038036    0.378372    0.523814
      2          6           0       24.554612   -1.863429   -1.677020
      3          6           0       25.923667    2.682420   -2.066158
      4          6           0       27.938254    2.419071    2.470855
      5          6           0       26.209251   -2.121200    2.906821
      6          7           0       25.367735    0.379772   -1.644114
      7          6           0       24.746803   -0.646626   -2.339502
      8          6           0       24.455128   -0.305740   -3.853634
      9          6           0       25.225889    1.065897   -3.972879
     10          6           0       25.573880    1.404788   -2.476583
     11          6           0       26.495663    1.187903   -4.820400
     12          6           0       22.940183   -0.264321   -4.125399
     13          6           0       22.353947   -1.402249   -4.918875
     14          1           0       21.224581   -1.051536   -5.903811
     15          7           0       26.673276    2.345443    0.363396
     16          6           0       26.440252    3.095399   -0.746984
     17          6           0       27.066758    4.403907   -0.475522
     18          6           0       27.734464    4.337973    0.757364
     19          6           0       27.479254    3.048535    1.271230
     20          6           0       26.841098    5.553401   -1.371696
     21          6           0       28.592392    5.356789    1.448678
     22          8           0       29.046697    5.206401    2.616839
     23          6           0       29.012250    6.584450    0.849486
     24          7           0       26.854774    0.216291    2.400386
     25          6           0       27.574932    1.194542    3.014343
     26          6           0       28.068864    0.813904    4.354417
     27          6           0       27.471870   -0.626662    4.544664
     28          6           0       26.877043   -0.868637    3.208458
     29          6           0       29.573763    0.852415    4.752322
     30          6           0       26.500596   -0.809570    5.813368
     31          6           0       24.983180   -0.459599    5.780096
     32          7           0       25.556134   -1.594373    0.651618
     33          6           0       25.644738   -2.476705    1.689585
     34          6           0       24.964944   -3.657286    1.377625
     35          6           0       24.596532   -3.462097   -0.009080
     36          6           0       24.958316   -2.182001   -0.378752
     37          6           0       24.680701   -4.848504    2.290663
     38          6           0       23.852385   -4.085504   -1.065535
     39          8           0       23.201368   -5.105795   -1.163145
     40          6           0       24.007951   -3.124047   -2.295586
     41          6           0       24.927517   -3.719787   -3.285108
     42          8           0       26.062198   -3.295016   -3.595465
     43          8           0       24.466930   -4.847088   -3.870014
     44          6           0       25.190049   -5.417601   -5.057411
     45          1           0       25.942897    3.381565   -2.904018
     46          1           0       28.579860    3.011308    3.126923
     47          1           0       26.071391   -2.900974    3.659417
     48          1           0       25.063543   -0.903036   -4.533535
     49          1           0       24.485921    1.783697   -4.326739
     50          1           0       27.364756    1.328638   -4.177333
     51          1           0       26.425141    2.147140   -5.331106
     52          1           0       26.679755    0.366222   -5.513397
     53          1           0       22.787444    0.629649   -4.731175
     54          1           0       22.430035   -0.101912   -3.175941
     55          1           0       21.953833   -2.123723   -4.206010
     56          1           0       23.067340   -1.989658   -5.497077
     57          1           0       26.324299    6.287938   -0.755408
     58          1           0       26.279888    5.415143   -2.296735
     59          1           0       27.800471    5.974012   -1.672903
     60          1           0       29.326257    6.316527   -0.158992
     61          1           0       29.693363    7.123409    1.506787
     62          1           0       28.161979    7.239122    0.658150
     63          1           0       27.528550    1.548761    4.950482
     64          1           0       28.286647   -1.343637    4.638469
     65          1           0       29.775824    1.601742    5.517736
     66          1           0       30.199224    1.126330    3.902017
     67          1           0       29.961970   -0.114162    5.073249
     68          1           0       26.943239   -0.122802    6.535151
     69          1           0       26.718288   -1.843955    6.079798
     70          1           0       24.578084   -0.229030    4.795124
     71          1           0       24.639739    0.254913    6.528715
     72          1           0       24.507409   -1.371186    6.139304
     73          1           0       25.066834   -5.780475    1.876502
     74          1           0       23.598879   -4.971094    2.340356
     75          1           0       25.006165   -4.716676    3.322889
     76          1           0       23.054711   -3.119427   -2.824459
     77          1           0       24.393078   -6.085364   -5.384869
     78          1           0       26.119588   -5.937041   -4.826847
     79          1           0       25.410742   -4.622252   -5.769994
     80         12           0      -26.184156   -0.748409   -0.488690
     81          6           0      -24.801418    2.516177   -0.658905
     82          6           0      -23.013420   -1.881678    0.421949
     83          6           0      -27.696523   -3.385219    0.774688
     84          6           0      -29.418024    0.836523   -1.147519
     85          7           0      -24.151104    0.310013    0.087728
     86          6           0      -23.812653    1.555733   -0.327900
     87          6           0      -22.306232    1.722621   -0.240134
     88          6           0      -21.762361    0.313950   -0.479035
     89          6           0      -23.034618   -0.494534    0.096045
     90          6           0      -21.481933   -0.126706   -1.916924
     91          6           0      -21.926288    2.421766    1.137428
     92          6           0      -20.923805    3.494441    0.966177
     93          1           0      -19.797350    3.592190    2.013323
     94          7           0      -25.478615   -2.447835    0.539196
     95          6           0      -24.111782   -2.762721    0.740708
     96          6           0      -24.081944   -4.060692    1.366447
     97          6           0      -25.393848   -4.601705    1.421601
     98          6           0      -26.284270   -3.489699    0.932254
     99          6           0      -22.759786   -4.682781    1.804442
    100          6           0      -25.776232   -5.911081    1.989819
    101          8           0      -24.900893   -6.631111    2.454003
    102          6           0      -27.158589   -6.451322    2.156481
    103          7           0      -28.358813   -1.142996   -0.143678
    104          6           0      -28.624677   -2.416742    0.207968
    105          6           0      -30.132558   -2.707368    0.099913
    106          6           0      -30.711699   -1.394003   -0.674583
    107          6           0      -29.439451   -0.508313   -0.712831
    108          6           0      -30.490440   -4.127198   -0.532207
    109          6           0      -31.957002   -0.720317   -0.017729
    110          6           0      -31.714627    0.537036    0.885140
    111          7           0      -26.963410    1.169062   -0.829156
    112          6           0      -28.276076    1.623593   -1.142477
    113          6           0      -28.190308    3.081842   -1.589610
    114          6           0      -26.866030    3.411665   -1.349325
    115          6           0      -26.175958    2.224242   -0.913479
    116          6           0      -29.243875    4.073119   -2.120263
    117          6           0      -25.902830    4.461761   -1.450035
    118          8           0      -26.011744    5.604444   -1.897815
    119          6           0      -24.650279    3.912567   -0.866303
    120          6           0      -24.538167    4.661743    0.481199
    121          8           0      -25.151716    4.422701    1.519171
    122          8           0      -23.637607    5.745290    0.284738
    123          6           0      -23.455741    6.659413    1.338134
    124          1           0      -22.032181   -2.318298    0.620063
    125          1           0      -28.084711   -4.365871    1.056920
    126          1           0      -30.305764    1.363629   -1.501288
    127          1           0      -21.889312    2.312098   -1.056572
    128          1           0      -20.843999   -0.013552    0.006906
    129          1           0      -21.378470    0.700650   -2.618384
    130          1           0      -22.136784   -0.943317   -2.221912
    131          1           0      -20.482918   -0.556091   -1.832975
    132          1           0      -21.481269    1.674291    1.794282
    133          1           0      -22.784477    2.727834    1.735797
    134          1           0      -21.554864    4.382418    0.957258
    135          1           0      -20.446918    3.363266   -0.005033
    136          1           0      -22.426820   -5.482178    1.142763
    137          1           0      -22.849929   -4.996950    2.843256
    138          1           0      -21.966884   -3.934870    1.788779
    139          1           0      -27.564230   -6.657616    1.165722
    140          1           0      -27.856866   -5.813422    2.699707
    141          1           0      -27.147245   -7.466705    2.550810
    142          1           0      -30.464679   -2.649026    1.136223
    143          1           0      -30.901435   -1.661832   -1.713442
    144          1           0      -29.668375   -4.831513   -0.405484
    145          1           0      -30.883416   -4.171520   -1.548629
    146          1           0      -31.416791   -4.384112   -0.016044
    147          1           0      -32.555510   -1.425820    0.558029
    148          1           0      -32.520243   -0.388743   -0.889700
    149          1           0      -32.547940    0.344440    1.561265
    150          1           0      -31.834106    1.523180    0.435893
    151          1           0      -30.757970    0.399527    1.389541
    152          1           0      -28.966534    4.448413   -3.104702
    153          1           0      -29.013314    4.882808   -1.428572
    154          1           0      -30.225179    3.629657   -1.952899
    155          1           0      -23.804519    4.189118   -1.495936
    156          1           0      -22.763042    7.473136    1.119792
    157          1           0      -23.058101    6.102657    2.185728
    158          1           0      -24.449901    7.062500    1.533255
 ---------------------------------------------------------------------

 SCF Done:  E(RCAM-B3LYP) =  -4069.76806781     A.U. after   17 cycles

 Excitation energies and oscillator strengths:

 Excited State   1:      Singlet-A      1.6842 eV  736.15 nm  f=0.3472  <S**2>=0.000
     309 -> 315        0.19724
     312 -> 314        0.68015
     309 <- 315        0.11212
 This state for optimization and/or second-order correction.
 Total Energy, E(TD-HF/TD-DFT) =  -4069.70617338
 Copying the excited state density for this state as the 1-particle RhoCI density.

 Excited State   2:      Singlet-A      1.7035 eV  727.83 nm  f=0.3939  <S**2>=0.000
     310 -> 316        0.17722
     311 -> 313        0.68469
     310 <- 316        0.10753

 Excited State   3:      Singlet-A      2.1915 eV  565.74 nm  f=0.0564  <S**2>=0.000
     309 -> 314        0.61452
     312 -> 315       -0.33943

 Excited State   4:      Singlet-A      2.2075 eV  561.65 nm  f=0.1416  <S**2>=0.000
     310 -> 313        0.65096
     311 -> 316       -0.26117

 Excited State   5:      Singlet-A      3.1858 eV  389.18 nm  f=0.0000  <S**2>=0.000
     312 -> 313        0.70710

 The electronic state is 1-A.
 Alpha  occ. eigenvalues --  -46.91314 -46.87527 -19.24725 -19.24064 -19.21416
 Alpha  occ. eigenvalues --  -19.18926 -19.18259 -19.18223 -19.17950 -19.17585
 Alpha  occ. eigenvalues --  -14.42420 -14.42000 -14.41956 -14.41858 -14.40256
 Alpha  occ. eigenvalues --  -14.39774 -14.39530 -14.38357 -10.40607 -10.38538
 Alpha  occ. eigenvalues --  -10.34575 -10.34516 -10.34177 -10.34138 -10.32013
 Alpha  occ. eigenvalues --  -10.31843 -10.31440 -10.31416 -10.31320 -10.31068
 Alpha  occ. eigenvalues --  -10.30987 -10.30956 -10.30844 -10.30802 -10.30591
 Alpha  occ. eigenvalues --  -10.30465 -10.30121 -10.30094 -10.30022 -10.29480
 Alpha  occ. eigenvalues --  -10.29405 -10.28904 -10.28793 -10.28554 -10.28533
 Alpha  occ. eigenvalues --  -10.28426 -10.28386 -10.28363 -10.28291 -10.28216
 Alpha  occ. eigenvalues --  -10.28159 -10.28147 -10.27921 -10.27836 -10.27729
 Alpha  occ. eigenvalues --  -10.27677 -10.27662 -10.27619 -10.27568 -10.27375
 Alpha  occ. eigenvalues --  -10.27368 -10.27254 -10.27250 -10.27177 -10.27140
 Alpha  occ. eigenvalues --  -10.27119 -10.27107 -10.27089 -10.26905 -10.26880
 Alpha  occ. eigenvalues --  -10.26793 -10.26746 -10.26694 -10.26375 -10.26312
 Alpha  occ. eigenvalues --  -10.26248 -10.25998 -10.25910 -10.25887 -10.25782
 Alpha  occ. eigenvalues --  -10.25716 -10.25680 -10.25664 -10.25284 -10.24990
 Alpha  occ. eigenvalues --  -10.24608  -3.19514  -3.16243  -1.94355  -1.94021
 Alpha  occ. eigenvalues --   -1.93769  -1.91153  -1.90702  -1.90547  -1.15834
 Alpha  occ. eigenvalues --   -1.15133  -1.09614  -1.09524  -1.09369  -1.08665
 Alpha  occ. eigenvalues --   -1.07948  -1.05129  -1.04837  -1.04214  -1.04083
 Alpha  occ. eigenvalues --   -1.03462  -1.03236  -1.02850  -1.02225  -1.01288
 Alpha  occ. eigenvalues --   -0.94392  -0.93080  -0.89184  -0.89034  -0.88734
 Alpha  occ. eigenvalues --   -0.88445  -0.88295  -0.87813  -0.87573  -0.87279
 Alpha  occ. eigenvalues --   -0.87005  -0.86861  -0.86095  -0.85584  -0.84791
 Alpha  occ. eigenvalues --   -0.84376  -0.83674  -0.83643  -0.82804  -0.82715
 Alpha  occ. eigenvalues --   -0.82459  -0.81654  -0.80984  -0.80869  -0.80542
 Alpha  occ. eigenvalues --   -0.80285  -0.78552  -0.78049  -0.77506  -0.77283
 Alpha  occ. eigenvalues --   -0.76890  -0.76865  -0.76207  -0.76016  -0.75292
 Alpha  occ. eigenvalues --   -0.75218  -0.73109  -0.72759  -0.71852  -0.71331
 Alpha  occ. eigenvalues --   -0.70101  -0.69929  -0.68772  -0.68725  -0.67999
 Alpha  occ. eigenvalues --   -0.67330  -0.67097  -0.66880  -0.65355  -0.65196
 Alpha  occ. eigenvalues --   -0.65084  -0.64981  -0.64724  -0.64608  -0.64556
 Alpha  occ. eigenvalues --   -0.64363  -0.62225  -0.61488  -0.59957  -0.59943
 Alpha  occ. eigenvalues --   -0.59780  -0.59641  -0.59283  -0.59145  -0.58913
 Alpha  occ. eigenvalues --   -0.58590  -0.58272  -0.57792  -0.57301  -0.57047
 Alpha  occ. eigenvalues --   -0.56212  -0.56165  -0.55970  -0.55651  -0.55633
 Alpha  occ. eigenvalues --   -0.54960  -0.54892  -0.54570  -0.54439  -0.53825
 Alpha  occ. eigenvalues --   -0.53689  -0.53403  -0.53244  -0.53045  -0.52907
 Alpha  occ. eigenvalues --   -0.52653  -0.52524  -0.52435  -0.52191  -0.52071
 Alpha  occ. eigenvalues --   -0.51973  -0.51882  -0.51680  -0.51402  -0.51316
 Alpha  occ. eigenvalues --   -0.51068  -0.50835  -0.50564  -0.50348  -0.50194
 Alpha  occ. eigenvalues --   -0.50161  -0.49979  -0.49759  -0.49634  -0.49423
 Alpha  occ. eigenvalues --   -0.49414  -0.49238  -0.48960  -0.48937  -0.48801
 Alpha  occ. eigenvalues --   -0.48488  -0.48474  -0.48275  -0.48183  -0.47925
 Alpha  occ. eigenvalues --   -0.47769  -0.47762  -0.47481  -0.47224  -0.47178
 Alpha  occ. eigenvalues --   -0.46860  -0.46750  -0.46492  -0.46246  -0.46104
 Alpha  occ. eigenvalues --   -0.45987  -0.45956  -0.45912  -0.45879  -0.45702
 Alpha  occ. eigenvalues --   -0.45446  -0.45398  -0.45312  -0.45261  -0.45168
 Alpha  occ. eigenvalues --   -0.45156  -0.44799  -0.44580  -0.44459  -0.44246
 Alpha  occ. eigenvalues --   -0.44148  -0.43977  -0.43814  -0.43804  -0.43789
 Alpha  occ. eigenvalues --   -0.43486  -0.43412  -0.43316  -0.43013  -0.42890
 Alpha  occ. eigenvalues --   -0.42755  -0.42450  -0.42341  -0.42051  -0.41611
 Alpha  occ. eigenvalues --   -0.41597  -0.41479  -0.41308  -0.41122  -0.41022
 Alpha  occ. eigenvalues --   -0.40987  -0.40790  -0.40437  -0.40329  -0.40095
 Alpha  occ. eigenvalues --   -0.39976  -0.39700  -0.39182  -0.38921  -0.38570
 Alpha  occ. eigenvalues --   -0.38278  -0.38200  -0.37935  -0.37815  -0.37647
 Alpha  occ. eigenvalues --   -0.36908  -0.36527  -0.36500  -0.36385  -0.36337
 Alpha  occ. eigenvalues --   -0.35782  -0.35600  -0.35228  -0.34303  -0.34228
 Alpha  occ. eigenvalues --   -0.33357  -0.33185  -0.32878  -0.31475  -0.30990
 Alpha  occ. eigenvalues --   -0.30820  -0.30610  -0.30578  -0.30225  -0.30030
 Alpha  occ. eigenvalues --   -0.29891  -0.29489  -0.29315  -0.24060  -0.23637
 Alpha  occ. eigenvalues --   -0.21106  -0.21048
 Alpha virt. eigenvalues --   -0.08686  -0.08541  -0.02626  -0.01305  -0.00615
 Alpha virt. eigenvalues --    0.00123   0.00689   0.02159   0.02366   0.03571
 Alpha virt. eigenvalues --    0.04695   0.05048   0.05155   0.05645   0.05778

 Mulliken charges:
               1
     1  Mg   0.841978
     2  C   -0.018362
     3  C   -0.053908
     4  C   -0.067796
     5  C   -0.096660
     6  N   -0.267817
     7  C   -0.058749
     8  C   -0.002110
     9  C   -0.086431
    10  C    0.002195
    11  C    0.086092
    12  C    0.098644
    13  C   -0.086476
    14  H    0.020462
    15  N   -0.397002
    16  C    0.159466
    17  C   -0.172382
    18  C    0.028779
    19  C    0.105199
    20  C    0.105046
    21  C   -0.012478
    22  O   -0.250252
    23  C    0.087504
    24  N   -0.298738
    25  C    0.055464
    26  C   -0.041435
    27  C   -0.007424
    28  C    0.040361
    29  C    0.076556
    30  C    0.015290
    31  C    0.012078
    32  N   -0.356435
    33  C    0.119029
    34  C   -0.160400
    35  C   -0.009444
    36  C    0.183587
    37  C    0.132499
    38  C    0.018589
    39  O   -0.153169
    40  C   -0.052011
    41  C    0.191734
    42  O   -0.263445
    43  O   -0.324264
    44  C    0.186504
    45  H   -0.034023
    46  H   -0.005134
    47  H   -0.038777
    48  H    0.013768
    49  H    0.000834
    50  H    0.026210
    51  H    0.010486
    52  H    0.029932
    53  H    0.011957
    54  H    0.021644
    55  H    0.043719
    56  H    0.030160
    57  H    0.034868
    58  H    0.019923
    59  H    0.013931
    60  H    0.022513
    61  H    0.040321
    62  H    0.021396
    63  H    0.020248
    64  H    0.009411
    65  H    0.022365
    66  H    0.017759
    67  H    0.015182
    68  H    0.010528
    69  H    0.016455
    70  H    0.036088
    71  H    0.017598
    72  H    0.007444
    73  H    0.037967
    74  H    0.031042
    75  H    0.003132
    76  H    0.027407
    77  H    0.047669
    78  H    0.049091
    79  H    0.037014
    80  Mg   0.808519
    81  C    0.026508
    82  C   -0.060736
    83  C   -0.021874
    84  C   -0.054823
    85  N   -0.238521
    86  C   -0.066689
    87  C   -0.007310
    88  C   -0.085903
    89  C    0.025294
    90  C    0.085418
    91  C    0.072658
    92  C   -0.063554
    93  H    0.018166
    94  N   -0.411441
    95  C    0.127344
    96  C   -0.147936
    97  C    0.024199
    98  C    0.084038
    99  C    0.141738
   100  C   -0.053935
   101  O   -0.216874
   102  C    0.078835
   103  N   -0.260310
   104  C    0.038674
   105  C   -0.046171
   106  C    0.025422
   107  C   -0.014239
   108  C    0.052462
   109  C    0.002693
   110  C    0.007467
   111  N   -0.333219
   112  C    0.096742
   113  C   -0.206570
   114  C    0.019542
   115  C    0.125921
   116  C    0.134634
   117  C    0.005914
   118  O   -0.180160
   119  C    0.016405
   120  C    0.215317
   121  O   -0.202555
   122  O   -0.345888
   123  C    0.186834
   124  H   -0.020640
   125  H   -0.066433
   126  H   -0.026121
   127  H   -0.009646
   128  H    0.002558
   129  H    0.020030
   130  H    0.025898
   131  H    0.005834
   132  H    0.007759
   133  H    0.031960
   134  H    0.024938
   135  H    0.024296
   136  H    0.034558
   137  H    0.037894
   138  H   -0.012198
   139  H    0.019232
   140  H    0.050494
   141  H    0.019677
   142  H    0.023826
   143  H    0.010336
   144  H    0.032478
   145  H    0.011781
   146  H    0.010047
   147  H    0.015636
   148  H    0.005368
   149  H    0.012268
   150  H    0.025456
   151  H    0.040070
   152  H    0.049507
   153  H    0.045725
   154  H    0.017030
   155  H    0.029887
   156  H    0.038704
   157  H    0.024812
   158  H    0.034943
 Sum of Mulliken charges =  -0.00000

 Dipole moment (field-independent basis, Debye):
    X=             -1.8886    Y=              1.6203    Z=             -4.2590  Tot=              4.9326
 Quadrupole moment (field-independent basis, Debye-Ang):
   XX=           -383.2335   YY=           -549.6220   ZZ=           -488.9917
   XY=             99.5112   XZ=             55.5254   YZ=              0.5959

 Normal termination of Gaussian 16 at Tue Sep 14 22:36:13 2021.
