 Gaussian 16, Revision A.03,
 Gaussian 16:  ES64L-G16RevA.03 25-Dec-2016

 -----------------------------------
 #p cam-b3lyp/Def2SVP td=(nstates=5)
 -----------------------------------

 --------------------------------
 TDDFT excited states in gaussian
 --------------------------------
 Symbolic Z-matrix:
 Charge =  0 Multiplicity = 1

                         Standard orientation:
 ---------------------------------------------------------------------
 Center     Atomic      Atomic             Coordinates (Angstroms)
 Number     Number       Type             X           Y           Z
 ---------------------------------------------------------------------
      1         12           0       11.907826   -0.102224    0.498957
      2          6           0        8.648681    0.224093   -0.565661
      3          6           0       12.875428    2.141804   -2.108027
      4          6           0       15.064314   -0.634814    1.217012
      5          6           0       10.931035   -2.416432    2.918433
      6          7           0       10.812345    1.014163   -1.103290
      7          6           0        9.493917    1.018857   -1.320779
      8          6           0        9.172309    2.043959   -2.456740
      9          6           0       10.598471    2.519968   -2.995931
     10          6           0       11.535937    1.789739   -2.014938
     11          6           0       11.001806    2.054182   -4.381754
     12          6           0        8.224584    3.182074   -2.049107
     13          6           0        7.071798    3.321365   -3.029095
     14          1           0        6.361060    4.667621   -3.230500
     15          7           0       13.702538    0.720399   -0.291410
     16          6           0       13.906714    1.631516   -1.287265
     17          6           0       15.254562    1.953341   -1.444242
     18          6           0       15.972253    1.068333   -0.566168
     19          6           0       14.904877    0.330529    0.194036
     20          6           0       15.775013    2.995644   -2.423327
     21          6           0       17.472101    0.858636   -0.436420
     22          8           0       17.880233   -0.084710    0.268475
     23          6           0       18.442365    1.656359   -1.208153
     24          7           0       12.803919   -1.306653    1.870958
     25          6           0       14.170522   -1.337850    2.058582
     26          6           0       14.656566   -2.342913    3.167909
     27          6           0       13.259443   -2.661343    3.852988
     28          6           0       12.259292   -2.117260    2.816556
     29          6           0       15.440944   -3.663659    2.799383
     30          6           0       13.043140   -2.238356    5.376682
     31          6           0       12.760808   -0.777870    5.611150
     32          7           0       10.233441   -1.050416    1.010178
     33          6           0        9.931122   -1.969163    1.997165
     34          6           0        8.565573   -2.302152    2.016490
     35          6           0        8.041594   -1.432417    1.053156
     36          6           0        9.085078   -0.670375    0.451390
     37          6           0        7.998939   -3.233841    3.001290
     38          6           0        6.810881   -1.171694    0.411425
     39          8           0        5.736505   -1.752692    0.577510
     40          6           0        7.110598   -0.030988   -0.694891
     41          6           0        6.713727   -0.522324   -2.002675
     42          8           0        7.296969   -1.338550   -2.678841
     43          8           0        5.526734   -0.032957   -2.339401
     44          6           0        4.899832   -0.493108   -3.541509
     45          1           0       13.166646    2.787073   -2.938943
     46          1           0       16.060512   -0.915335    1.564443
     47          1           0       10.668820   -3.146325    3.687231
     48          1           0        8.725109    1.376153   -3.192358
     49          1           0       10.525859    3.605349   -3.073573
     50          1           0       10.222604    1.518432   -4.924724
     51          1           0       11.828595    1.347534   -4.315061
     52          1           0       11.440892    2.883602   -4.936983
     53          1           0        8.699872    4.155459   -1.926510
     54          1           0        7.843235    2.950739   -1.054820
     55          1           0        6.271329    2.693645   -2.635862
     56          1           0        7.455918    2.983340   -3.991351
     57          1           0       14.968207    3.606868   -2.827896
     58          1           0       16.164879    2.484162   -3.303654
     59          1           0       16.608178    3.553280   -1.997199
     60          1           0       19.398430    1.137106   -1.283589
     61          1           0       18.628209    2.565988   -0.636227
     62          1           0       18.059283    1.855104   -2.208785
     63          1           0       15.195824   -1.842216    3.972658
     64          1           0       13.162893   -3.742003    3.949936
     65          1           0       15.564647   -3.683236    1.717320
     66          1           0       14.776254   -4.517054    2.939332
     67          1           0       16.392753   -3.856335    3.295239
     68          1           0       13.993635   -2.426085    5.875503
     69          1           0       12.317611   -2.851800    5.909544
     70          1           0       12.118738   -0.719327    6.489331
     71          1           0       12.348375   -0.150670    4.821815
     72          1           0       13.724429   -0.308569    5.809436
     73          1           0        8.461209   -3.299873    3.985873
     74          1           0        7.755168   -4.229794    2.633459
     75          1           0        7.003542   -2.809898    3.131344
     76          1           0        6.515357    0.844622   -0.436580
     77          1           0        5.179185    0.104435   -4.410021
     78          1           0        3.827087   -0.352518   -3.410312
     79          1           0        5.178517   -1.529807   -3.731034
     80         12           0      -11.630997   -0.363183   -0.438332
     81          6           0      -10.825703    2.632276    1.133971
     82          6           0       -8.636426   -0.131463   -2.171114
     83          6           0      -11.996005   -3.440370   -1.588505
     84          6           0      -14.326689   -0.730914    1.700954
     85          7           0       -9.862172    0.982152   -0.397968
     86          6           0       -9.818111    2.215632    0.218863
     87          6           0       -8.620790    3.025193   -0.182808
     88          6           0       -8.159933    2.277338   -1.510820
     89          6           0       -8.879605    0.943665   -1.360338
     90          6           0       -8.215741    2.983867   -2.947760
     91          6           0       -7.503243    3.202285    0.946679
     92          6           0       -7.307724    2.036915    1.961630
     93          1           0       -5.865241    1.734055    2.288923
     94          7           0      -10.421699   -1.674580   -1.617044
     95          6           0       -9.211955   -1.372392   -2.254554
     96          6           0       -8.679215   -2.515338   -2.944120
     97          6           0       -9.647720   -3.532930   -2.772114
     98          6           0      -10.746594   -2.945189   -1.949321
     99          6           0       -7.470180   -2.363574   -3.868587
    100          6           0       -9.480827   -4.931440   -3.408862
    101          8           0       -8.454818   -5.257937   -4.014228
    102          6           0      -10.639392   -5.830833   -3.299524
    103          7           0      -12.924549   -1.873799    0.125752
    104          6           0      -13.033366   -2.965220   -0.719492
    105          6           0      -14.264238   -3.845864   -0.411062
    106          6           0      -14.829732   -3.024102    0.819023
    107          6           0      -13.971433   -1.843773    0.933718
    108          6           0      -15.286091   -4.081354   -1.478208
    109          6           0      -14.783604   -3.851606    2.201607
    110          6           0      -16.085914   -3.731702    2.949332
    111          7           0      -12.585175    0.798806    1.004438
    112          6           0      -13.681650    0.510571    1.795744
    113          6           0      -13.947775    1.638027    2.718150
    114          6           0      -12.830247    2.512867    2.484509
    115          6           0      -12.065511    1.944612    1.459051
    116          6           0      -14.901065    1.754681    3.837293
    117          6           0      -12.104647    3.732894    2.897795
    118          8           0      -12.339611    4.492726    3.808748
    119          6           0      -10.818414    3.875074    2.021883
    120          6           0      -10.809835    5.168884    1.338147
    121          8           0      -10.015971    6.105917    1.426243
    122          8           0      -12.080001    5.314393    0.721120
    123          6           0      -12.259238    6.544479   -0.079549
    124          1           0       -7.829639    0.100385   -2.870274
    125          1           0      -12.324405   -4.375947   -2.045743
    126          1           0      -15.238584   -0.910089    2.273326
    127          1           0       -8.916487    4.050063   -0.406824
    128          1           0       -7.107764    2.106445   -1.281757
    129          1           0       -8.498487    4.036407   -2.948410
    130          1           0       -8.949831    2.546344   -3.624234
    131          1           0       -7.206175    3.047445   -3.354688
    132          1           0       -7.641153    4.143760    1.477363
    133          1           0       -6.564607    3.362602    0.416298
    134          1           0       -7.801552    1.131294    1.608050
    135          1           0       -7.778063    2.292392    2.910763
    136          1           0       -6.850258   -3.258353   -3.933154
    137          1           0       -6.793705   -1.617981   -3.451589
    138          1           0       -7.878991   -2.137517   -4.853691
    139          1           0      -11.435275   -5.448172   -3.937767
    140          1           0      -10.943867   -5.913765   -2.255731
    141          1           0      -10.286849   -6.789394   -3.680173
    142          1           0      -13.898229   -4.766892    0.043240
    143          1           0      -15.778966   -2.652612    0.433003
    144          1           0      -16.139216   -4.536849   -0.975145
    145          1           0      -14.890643   -4.859763   -2.130772
    146          1           0      -15.507402   -3.153573   -2.007123
    147          1           0      -13.930724   -3.466342    2.760268
    148          1           0      -14.502314   -4.903732    2.141548
    149          1           0      -15.903709   -3.132456    3.841089
    150          1           0      -16.380378   -4.668636    3.423308
    151          1           0      -16.805543   -3.174031    2.350315
    152          1           0      -15.553953    0.895371    3.997410
    153          1           0      -15.558984    2.584440    3.581294
    154          1           0      -14.210281    1.756425    4.680211
    155          1           0       -9.996143    3.795536    2.732584
    156          1           0      -12.730287    6.156439   -0.983403
    157          1           0      -11.404489    7.152229   -0.376574
    158          1           0      -13.077129    7.069476    0.414291
 ---------------------------------------------------------------------

 SCF Done:  E(RCAM-B3LYP) =  -4069.82519187     A.U. after   18 cycles

 Excitation energies and oscillator strengths:

 Excited State   1:      Singlet-A      1.7061 eV  726.71 nm  f=0.4969  <S**2>=0.000
     309 -> 316        0.16869
     311 -> 313        0.67163
     312 -> 314        0.14315
     309 <- 316        0.10302
 This state for optimization and/or second-order correction.
 Total Energy, E(TD-HF/TD-DFT) =  -4069.76249370
 Copying the excited state density for this state as the 1-particle RhoCI density.

 Excited State   2:      Singlet-A      1.7186 eV  721.43 nm  f=0.2996  <S**2>=0.000
     310 -> 315        0.17788
     311 -> 313       -0.14334
     312 -> 314        0.66845
     310 <- 315        0.10270

 Excited State   3:      Singlet-A      2.2043 eV  562.47 nm  f=0.0890  <S**2>=0.000
     310 -> 314        0.62895
     312 -> 315       -0.30474

 Excited State   4:      Singlet-A      2.2216 eV  558.08 nm  f=0.1598  <S**2>=0.000
     309 -> 313        0.65248
     311 -> 316       -0.25384

 Excited State   5:      Singlet-A      2.8835 eV  429.98 nm  f=0.0000  <S**2>=0.000
     312 -> 313        0.70701

 The electronic state is 1-A.
 Alpha  occ. eigenvalues --  -46.89024 -46.87639 -19.24780 -19.24280 -19.20472
 Alpha  occ. eigenvalues --  -19.18933 -19.18747 -19.18576 -19.18539 -19.18199
 Alpha  occ. eigenvalues --  -14.42253 -14.42153 -14.42126 -14.42120 -14.39668
 Alpha  occ. eigenvalues --  -14.39561 -14.39105 -14.38916 -10.39666 -10.38254
 Alpha  occ. eigenvalues --  -10.35044 -10.35015 -10.34827 -10.34458 -10.31546
 Alpha  occ. eigenvalues --  -10.31454 -10.31245 -10.31173 -10.31139 -10.31113
 Alpha  occ. eigenvalues --  -10.31099 -10.30690 -10.30600 -10.30553 -10.30112
 Alpha  occ. eigenvalues --  -10.30110 -10.29997 -10.29336 -10.29272 -10.29007
 Alpha  occ. eigenvalues --  -10.28942 -10.28877 -10.28596 -10.28509 -10.28488
 Alpha  occ. eigenvalues --  -10.28457 -10.28332 -10.28310 -10.28265 -10.28236
 Alpha  occ. eigenvalues --  -10.28229 -10.28218 -10.28120 -10.28076 -10.28002
 Alpha  occ. eigenvalues --  -10.27919 -10.27657 -10.27622 -10.27599 -10.27542
 Alpha  occ. eigenvalues --  -10.27452 -10.27247 -10.27214 -10.27144 -10.27090
 Alpha  occ. eigenvalues --  -10.27057 -10.27055 -10.26900 -10.26806 -10.26752
 Alpha  occ. eigenvalues --  -10.26649 -10.26562 -10.26269 -10.26229 -10.26147
 Alpha  occ. eigenvalues --  -10.26139 -10.26123 -10.25973 -10.25935 -10.25864
 Alpha  occ. eigenvalues --  -10.25689 -10.25687 -10.25521 -10.25307 -10.24931
 Alpha  occ. eigenvalues --  -10.24591  -3.17550  -3.16424  -1.92434  -1.92021
 Alpha  occ. eigenvalues --   -1.91843  -1.91321  -1.90895  -1.90728  -1.17885
 Alpha  occ. eigenvalues --   -1.14754  -1.10288  -1.09280  -1.08801  -1.08461
 Alpha  occ. eigenvalues --   -1.07749  -1.06836  -1.04993  -1.04547  -1.03655
 Alpha  occ. eigenvalues --   -1.03636  -1.03286  -1.03103  -1.02501  -1.02261
 Alpha  occ. eigenvalues --   -0.92386  -0.92041  -0.89582  -0.89320  -0.89142
 Alpha  occ. eigenvalues --   -0.88729  -0.88299  -0.87901  -0.87606  -0.87585
 Alpha  occ. eigenvalues --   -0.87469  -0.86801  -0.86739  -0.86100  -0.84752
 Alpha  occ. eigenvalues --   -0.84550  -0.84380  -0.83818  -0.82905  -0.82639
 Alpha  occ. eigenvalues --   -0.82359  -0.82299  -0.81135  -0.80766  -0.80548
 Alpha  occ. eigenvalues --   -0.80071  -0.78296  -0.78248  -0.77420  -0.77286
 Alpha  occ. eigenvalues --   -0.76848  -0.76760  -0.76148  -0.75937  -0.75668
 Alpha  occ. eigenvalues --   -0.75240  -0.73403  -0.72565  -0.72060  -0.71407
 Alpha  occ. eigenvalues --   -0.69605  -0.69336  -0.69290  -0.68792  -0.68007
 Alpha  occ. eigenvalues --   -0.67753  -0.67103  -0.66742  -0.66338  -0.65350
 Alpha  occ. eigenvalues --   -0.64874  -0.64818  -0.64559  -0.64430  -0.64338
 Alpha  occ. eigenvalues --   -0.63917  -0.62474  -0.62297  -0.60382  -0.60199
 Alpha  occ. eigenvalues --   -0.59957  -0.59297  -0.58947  -0.58864  -0.58468
 Alpha  occ. eigenvalues --   -0.58302  -0.58207  -0.57636  -0.57449  -0.57175
 Alpha  occ. eigenvalues --   -0.56480  -0.56244  -0.56158  -0.55750  -0.55267
 Alpha  occ. eigenvalues --   -0.55048  -0.55025  -0.54626  -0.54525  -0.54314
 Alpha  occ. eigenvalues --   -0.53824  -0.53491  -0.53121  -0.52831  -0.52730
 Alpha  occ. eigenvalues --   -0.52628  -0.52554  -0.52463  -0.52306  -0.52101
 Alpha  occ. eigenvalues --   -0.52091  -0.51904  -0.51679  -0.51538  -0.51280
 Alpha  occ. eigenvalues --   -0.51037  -0.50770  -0.50387  -0.50258  -0.50248
 Alpha  occ. eigenvalues --   -0.50191  -0.49918  -0.49620  -0.49557  -0.49477
 Alpha  occ. eigenvalues --   -0.49426  -0.49213  -0.49187  -0.49098  -0.48916
 Alpha  occ. eigenvalues --   -0.48742  -0.48491  -0.48350  -0.48228  -0.48100
 Alpha  occ. eigenvalues --   -0.48094  -0.47730  -0.47657  -0.47286  -0.47173
 Alpha  occ. eigenvalues --   -0.46841  -0.46833  -0.46456  -0.46421  -0.46327
 Alpha  occ. eigenvalues --   -0.46186  -0.46130  -0.45978  -0.45649  -0.45496
 Alpha  occ. eigenvalues --   -0.45379  -0.45303  -0.45106  -0.45042  -0.44918
 Alpha  occ. eigenvalues --   -0.44893  -0.44883  -0.44614  -0.44569  -0.44541
 Alpha  occ. eigenvalues --   -0.44327  -0.43852  -0.43850  -0.43591  -0.43446
 Alpha  occ. eigenvalues --   -0.43344  -0.43193  -0.43144  -0.43032  -0.42668
 Alpha  occ. eigenvalues --   -0.42634  -0.42480  -0.42402  -0.42050  -0.41949
 Alpha  occ. eigenvalues --   -0.41878  -0.41625  -0.41605  -0.41540  -0.41465
 Alpha  occ. eigenvalues --   -0.41279  -0.41137  -0.41070  -0.40944  -0.40441
 Alpha  occ. eigenvalues --   -0.40370  -0.39918  -0.39154  -0.39018  -0.38838
 Alpha  occ. eigenvalues --   -0.38425  -0.38157  -0.37892  -0.37692  -0.37351
 Alpha  occ. eigenvalues --   -0.37151  -0.36817  -0.36491  -0.36461  -0.36310
 Alpha  occ. eigenvalues --   -0.36139  -0.35593  -0.35076  -0.34728  -0.34189
 Alpha  occ. eigenvalues --   -0.33835  -0.33240  -0.33086  -0.31402  -0.31190
 Alpha  occ. eigenvalues --   -0.31114  -0.30743  -0.30739  -0.30482  -0.30013
 Alpha  occ. eigenvalues --   -0.29874  -0.29721  -0.29578  -0.24079  -0.24016
 Alpha  occ. eigenvalues --   -0.21435  -0.21134
 Alpha virt. eigenvalues --   -0.09054  -0.08584  -0.02166  -0.01383   0.00531
 Alpha virt. eigenvalues --    0.00714   0.01790   0.02525   0.02608   0.03212
 Alpha virt. eigenvalues --    0.04154   0.05035   0.05681   0.05712   0.06065

 Mulliken charges:
               1
     1  Mg   0.849808
     2  C   -0.032458
     3  C   -0.104352
     4  C   -0.040434
     5  C   -0.102929
     6  N   -0.276984
     7  C   -0.073623
     8  C    0.019978
     9  C   -0.112919
    10  C    0.098331
    11  C    0.051578
    12  C    0.081276
    13  C   -0.091504
    14  H    0.011297
    15  N   -0.341445
    16  C    0.146737
    17  C   -0.163406
    18  C   -0.029849
    19  C    0.148840
    20  C    0.116793
    21  C   -0.008376
    22  O   -0.229908
    23  C    0.068424
    24  N   -0.320751
    25  C    0.008030
    26  C   -0.016742
    27  C   -0.037886
    28  C    0.071439
    29  C    0.076346
    30  C    0.018575
    31  C   -0.003781
    32  N   -0.375171
    33  C    0.118523
    34  C   -0.127341
    35  C    0.017246
    36  C    0.159556
    37  C    0.116672
    38  C    0.021874
    39  O   -0.183477
    40  C   -0.013711
    41  C    0.166805
    42  O   -0.220782
    43  O   -0.295167
    44  C    0.174956
    45  H   -0.024928
    46  H   -0.006035
    47  H   -0.029530
    48  H    0.009685
    49  H    0.016788
    50  H    0.020784
    51  H    0.019459
    52  H    0.013123
    53  H    0.015442
    54  H    0.005840
    55  H    0.041368
    56  H    0.035553
    57  H    0.018775
    58  H    0.033936
    59  H    0.033270
    60  H    0.029197
    61  H    0.043606
    62  H    0.024102
    63  H    0.010377
    64  H    0.001449
    65  H    0.018240
    66  H    0.006736
    67  H    0.034594
    68  H    0.004075
    69  H    0.008801
    70  H    0.014813
    71  H    0.027032
    72  H    0.007587
    73  H    0.024916
    74  H    0.031081
    75  H    0.022113
    76  H    0.035946
    77  H    0.024752
    78  H    0.036980
    79  H    0.049983
    80  Mg   0.819818
    81  C   -0.024997
    82  C   -0.097365
    83  C   -0.086985
    84  C   -0.094255
    85  N   -0.283852
    86  C   -0.029986
    87  C   -0.040828
    88  C    0.001882
    89  C    0.001028
    90  C    0.064173
    91  C    0.029208
    92  C   -0.076704
    93  H    0.024243
    94  N   -0.359668
    95  C    0.166978
    96  C   -0.136275
    97  C   -0.064241
    98  C    0.185013
    99  C    0.126584
   100  C    0.000454
   101  O   -0.204283
   102  C    0.054744
   103  N   -0.295298
   104  C   -0.001572
   105  C   -0.034006
   106  C   -0.063418
   107  C    0.012387
   108  C    0.107197
   109  C    0.036497
   110  C    0.030447
   111  N   -0.342665
   112  C    0.151435
   113  C   -0.189729
   114  C   -0.004900
   115  C    0.088686
   116  C    0.130652
   117  C    0.030216
   118  O   -0.149380
   119  C    0.028531
   120  C    0.222583
   121  O   -0.208410
   122  O   -0.379708
   123  C    0.180235
   124  H   -0.029615
   125  H   -0.042369
   126  H   -0.044128
   127  H    0.010297
   128  H    0.006710
   129  H    0.011026
   130  H    0.026662
   131  H    0.022135
   132  H    0.028468
   133  H    0.010572
   134  H    0.047609
   135  H    0.030444
   136  H    0.036242
   137  H    0.016557
   138  H    0.040894
   139  H    0.048551
   140  H    0.045039
   141  H    0.024389
   142  H    0.004726
   143  H    0.007934
   144  H    0.019694
   145  H    0.014475
   146  H    0.025023
   147  H    0.015755
   148  H    0.007071
   149  H    0.005796
   150  H    0.014833
   151  H    0.023276
   152  H   -0.003675
   153  H    0.043533
   154  H    0.053168
   155  H    0.038703
   156  H    0.018882
   157  H    0.058542
   158  H    0.038310
 Sum of Mulliken charges =  -0.00000

 Dipole moment (field-independent basis, Debye):
    X=             -1.3706    Y=              0.8500    Z=             -3.0166  Tot=              3.4206
 Quadrupole moment (field-independent basis, Debye-Ang):
   XX=           -374.1553   YY=           -521.2700   ZZ=           -498.7796
   XY=             90.0702   XZ=             38.6920   YZ=            -59.8516

 Normal termination of Gaussian 16 at Wed Sep 15 16:04:03 2021.
