 Gaussian 16, Revision A.03,
 Gaussian 16:  ES64L-G16RevA.03 25-Dec-2016

 ----------------------------------------------------------
 #p cam-b3lyp/Def2SVP td=(nstates=5) density=(transition=1)
 ----------------------------------------------------------

 --------------------------------
 TDDFT excited states in gaussian
 --------------------------------
 Symbolic Z-matrix:
 Charge =  0 Multiplicity = 1

                         Standard orientation:
 ---------------------------------------------------------------------
 Center     Atomic      Atomic             Coordinates (Angstroms)
 Number     Number       Type             X           Y           Z
 ---------------------------------------------------------------------
      1         12           0      -21.718266    0.122014   -0.656912
      2          6           0      -18.225290   -0.352767    0.362561
      3          6           0      -22.043367   -3.272920   -0.066642
      4          6           0      -24.860858    0.636676   -0.486314
      5          6           0      -20.944910    3.630905   -0.693952
      6          7           0      -20.222710   -1.615431    0.237166
      7          6           0      -18.883223   -1.577250    0.557441
      8          6           0      -18.446350   -2.972753    1.135785
      9          6           0      -19.578998   -3.930990    0.728236
     10          6           0      -20.677471   -2.895730    0.274951
     11          6           0      -19.311825   -4.966380   -0.442009
     12          6           0      -18.130368   -2.948051    2.670527
     13          6           0      -16.950881   -3.778935    3.127969
     14          1           0      -17.276568   -5.148945    3.801440
     15          7           0      -23.239993   -1.126803   -0.451712
     16          6           0      -23.216492   -2.489446   -0.328509
     17          6           0      -24.607660   -3.013031   -0.249114
     18          6           0      -25.424780   -1.856804   -0.347675
     19          6           0      -24.512051   -0.717051   -0.390429
     20          6           0      -25.039570   -4.470927   -0.021720
     21          6           0      -26.942021   -1.743988   -0.173366
     22          8           0      -27.570015   -2.789754   -0.031573
     23          6           0      -27.669931   -0.536999   -0.196094
     24          7           0      -22.741775    1.950655   -0.329172
     25          6           0      -24.096312    1.833007   -0.569794
     26          6           0      -24.697720    3.286134   -0.696442
     27          6           0      -23.460347    4.220695   -0.445578
     28          6           0      -22.302504    3.205278   -0.598002
     29          6           0      -25.443905    3.593029   -2.023864
     30          6           0      -23.391672    5.054398    0.897013
     31          6           0      -24.212957    6.352454    0.985324
     32          7           0      -19.984466    1.458520   -0.313964
     33          6           0      -19.827360    2.817599   -0.498887
     34          6           0      -18.444622    3.217734   -0.400198
     35          6           0      -17.767337    1.983579   -0.073812
     36          6           0      -18.716009    0.907729    0.036651
     37          6           0      -17.966365    4.631336   -0.526597
     38          6           0      -16.520599    1.457452    0.262555
     39          8           0      -15.456569    2.007467    0.512527
     40          6           0      -16.753840   -0.022108    0.684708
     41          6           0      -15.830087   -0.819991   -0.205705
     42          8           0      -15.062155   -1.688264    0.216162
     43          8           0      -16.013918   -0.622520   -1.633370
     44          6           0      -15.364409   -1.663314   -2.428612
     45          1           0      -22.158621   -4.353018    0.040926
     46          1           0      -25.898097    0.949004   -0.624272
     47          1           0      -20.855008    4.711690   -0.820853
     48          1           0      -17.609145   -3.343995    0.542989
     49          1           0      -20.006988   -4.442557    1.590333
     50          1           0      -19.213446   -5.928105    0.061043
     51          1           0      -18.360444   -4.767348   -0.934474
     52          1           0      -20.052916   -4.975739   -1.241190
     53          1           0      -18.907572   -3.379330    3.301961
     54          1           0      -17.907589   -1.931309    2.994823
     55          1           0      -16.331672   -3.133055    3.750506
     56          1           0      -16.360270   -4.022839    2.244338
     57          1           0      -25.904542   -4.700656   -0.644502
     58          1           0      -25.228721   -4.521338    1.050496
     59          1           0      -24.259648   -5.163361   -0.335582
     60          1           0      -27.607872   -0.125619   -1.204079
     61          1           0      -27.390694    0.181535    0.574576
     62          1           0      -28.653984   -0.888256    0.116209
     63          1           0      -25.425149    3.528348    0.077611
     64          1           0      -23.311644    4.912910   -1.273974
     65          1           0      -24.930825    4.458069   -2.444276
     66          1           0      -26.475074    3.850220   -1.783710
     67          1           0      -25.340432    2.667709   -2.591909
     68          1           0      -22.332068    5.295762    0.987282
     69          1           0      -23.773923    4.473516    1.736653
     70          1           0      -24.612293    6.405392   -0.027915
     71          1           0      -23.564451    7.224880    1.077269
     72          1           0      -25.015470    6.383831    1.721871
     73          1           0      -18.515872    5.188019    0.231376
     74          1           0      -18.257501    5.106955   -1.462976
     75          1           0      -16.926122    4.756267   -0.225714
     76          1           0      -16.403916   -0.114885    1.712655
     77          1           0      -16.022246   -1.562142   -3.292644
     78          1           0      -15.287863   -2.606981   -1.888530
     79          1           0      -14.396960   -1.259175   -2.726886
     80         12           0       20.904497    0.786289   -0.494826
     81          6           0       20.514523   -2.823810   -0.211897
     82          6           0       17.796251    1.084140    0.933344
     83          6           0       21.787061    3.816789    0.609512
     84          6           0       23.900567    0.298095   -2.021774
     85          7           0       19.420704   -0.745791    0.452855
     86          6           0       19.450262   -2.184853    0.374389
     87          6           0       18.102029   -2.746369    0.834545
     88          6           0       17.148364   -1.515368    0.832190
     89          6           0       18.131886   -0.268540    0.722649
     90          6           0       16.105847   -1.513024   -0.383886
     91          6           0       18.099777   -3.607724    2.063540
     92          6           0       19.336237   -3.533327    2.990212
     93          1           0       19.529038   -4.264897    4.331139
     94          7           0       19.861886    2.327142    0.515184
     95          6           0       18.590613    2.233912    1.037060
     96          6           0       18.210389    3.577138    1.575472
     97          6           0       19.406099    4.290883    1.571326
     98          6           0       20.458028    3.499012    0.938110
     99          6           0       16.836428    3.836458    2.083555
    100          6           0       19.582423    5.716094    2.171623
    101          8           0       18.634669    6.206933    2.758925
    102          6           0       20.872492    6.466123    2.211736
    103          7           0       22.693193    1.790492   -0.579466
    104          6           0       22.723712    3.118085   -0.154070
    105          6           0       24.040053    3.789042   -0.546434
    106          6           0       24.611525    2.811193   -1.636157
    107          6           0       23.688917    1.604943   -1.447244
    108          6           0       24.002236    5.255321   -1.048716
    109          6           0       26.131923    2.469191   -1.524401
    110          6           0       27.081253    3.139886   -2.619510
    111          7           0       21.995300   -0.893107   -1.108473
    112          6           0       23.193131   -0.914136   -1.807992
    113          6           0       23.471086   -2.266628   -2.224731
    114          6           0       22.489802   -3.001279   -1.545364
    115          6           0       21.610599   -2.093787   -0.904475
    116          6           0       24.704153   -2.669219   -3.052068
    117          6           0       21.958226   -4.309465   -1.314530
    118          8           0       22.407741   -5.364517   -1.805663
    119          6           0       20.559580   -4.280815   -0.552872
    120          6           0       20.731489   -5.231723    0.563530
    121          8           0       21.675519   -5.273541    1.359498
    122          8           0       19.593527   -5.965920    0.622447
    123          6           0       19.604572   -7.132386    1.559955
    124          1           0       16.815419    1.176941    1.403307
    125          1           0       22.055754    4.813998    0.964978
    126          1           0       24.805955    0.185248   -2.621152
    127          1           0       17.898769   -3.353508   -0.047628
    128          1           0       16.667317   -1.347738    1.795989
    129          1           0       15.146606   -1.651875    0.113212
    130          1           0       16.370730   -2.300460   -1.089902
    131          1           0       16.161520   -0.512074   -0.813266
    132          1           0       17.877426   -4.618257    1.721264
    133          1           0       17.206973   -3.236869    2.568111
    134          1           0       19.461601   -2.469648    3.195076
    135          1           0       20.217023   -3.882056    2.450669
    136          1           0       16.935598    3.954262    3.162229
    137          1           0       16.209620    2.986534    1.815355
    138          1           0       16.423245    4.709661    1.577465
    139          1           0       21.685874    6.060075    2.811893
    140          1           0       20.775922    7.443048    2.684527
    141          1           0       21.067886    6.577589    1.145293
    142          1           0       24.522649    3.713310    0.428660
    143          1           0       24.359659    3.285758   -2.584811
    144          1           0       24.280765    5.983771   -0.286540
    145          1           0       22.982236    5.518168   -1.327103
    146          1           0       24.629975    5.310805   -1.938749
    147          1           0       26.352742    1.401447   -1.530974
    148          1           0       26.397018    2.788721   -0.516492
    149          1           0       27.923176    3.470799   -2.011946
    150          1           0       26.641484    3.979212   -3.158457
    151          1           0       27.270026    2.379931   -3.376917
    152          1           0       24.573135   -3.545611   -3.687174
    153          1           0       25.408691   -2.912855   -2.257591
    154          1           0       24.937661   -1.893678   -3.781198
    155          1           0       19.767676   -4.568192   -1.246101
    156          1           0       18.636670   -7.633334    1.520995
    157          1           0       19.767005   -6.810221    2.588685
    158          1           0       20.415969   -7.736453    1.156389
 ---------------------------------------------------------------------

 SCF Done:  E(RCAM-B3LYP) =  -4069.72460604     A.U. after   19 cycles

 Excitation energies and oscillator strengths:

 Excited State   1:      Singlet-A      1.6563 eV  748.56 nm  f=0.3591  <S**2>=0.000
     310 -> 316       -0.15659
     312 -> 314        0.69068
     310 <- 316       -0.10156
 This state for optimization and/or second-order correction.
 Total Energy, E(TD-HF/TD-DFT) =  -4069.66373841
 Copying the excited state density for this state as the 1-particle RhoCI density.

 Excited State   2:      Singlet-A      1.7224 eV  719.82 nm  f=0.3536  <S**2>=0.000
     309 -> 315        0.19688
     311 -> 313        0.67933
     309 <- 315        0.11035

 Excited State   3:      Singlet-A      2.2417 eV  553.08 nm  f=0.0692  <S**2>=0.000
     309 -> 313        0.61607
     311 -> 315       -0.33056

 Excited State   4:      Singlet-A      2.2760 eV  544.75 nm  f=0.0763  <S**2>=0.000
     310 -> 314        0.61914
     312 -> 316        0.32530

 Excited State   5:      Singlet-A      3.0220 eV  410.28 nm  f=0.0000  <S**2>=0.000
     312 -> 313        0.70710

 The electronic state is 1-A.
 Alpha  occ. eigenvalues --  -46.90783 -46.89272 -19.25329 -19.23737 -19.20110
 Alpha  occ. eigenvalues --  -19.19390 -19.19043 -19.18809 -19.17889 -19.17042
 Alpha  occ. eigenvalues --  -14.42735 -14.42437 -14.42036 -14.41513 -14.40831
 Alpha  occ. eigenvalues --  -14.39693 -14.39160 -14.38709 -10.39411 -10.39103
 Alpha  occ. eigenvalues --  -10.35469 -10.34953 -10.33528 -10.33502 -10.32332
 Alpha  occ. eigenvalues --  -10.32096 -10.31906 -10.31901 -10.31622 -10.31608
 Alpha  occ. eigenvalues --  -10.31548 -10.31387 -10.31030 -10.30973 -10.30843
 Alpha  occ. eigenvalues --  -10.30804 -10.30779 -10.30467 -10.29675 -10.29416
 Alpha  occ. eigenvalues --  -10.29259 -10.28975 -10.28935 -10.28934 -10.28855
 Alpha  occ. eigenvalues --  -10.28803 -10.28679 -10.28547 -10.28487 -10.28445
 Alpha  occ. eigenvalues --  -10.28422 -10.28363 -10.28345 -10.28343 -10.28236
 Alpha  occ. eigenvalues --  -10.28082 -10.27845 -10.27825 -10.27640 -10.27600
 Alpha  occ. eigenvalues --  -10.27577 -10.27522 -10.27482 -10.27361 -10.27267
 Alpha  occ. eigenvalues --  -10.27204 -10.27139 -10.27088 -10.26999 -10.26893
 Alpha  occ. eigenvalues --  -10.26873 -10.26868 -10.26853 -10.26825 -10.26755
 Alpha  occ. eigenvalues --  -10.26676 -10.26666 -10.26366 -10.26257 -10.26221
 Alpha  occ. eigenvalues --  -10.26204 -10.26003 -10.25906 -10.25863 -10.25256
 Alpha  occ. eigenvalues --  -10.23944  -3.19193  -3.17760  -1.94039  -1.93701
 Alpha  occ. eigenvalues --   -1.93459  -1.92633  -1.92237  -1.92042  -1.16049
 Alpha  occ. eigenvalues --   -1.13967  -1.10652  -1.10478  -1.09004  -1.07448
 Alpha  occ. eigenvalues --   -1.06646  -1.06370  -1.05053  -1.04806  -1.03990
 Alpha  occ. eigenvalues --   -1.03389  -1.03364  -1.02789  -1.01105  -1.00317
 Alpha  occ. eigenvalues --   -0.92910  -0.91903  -0.89316  -0.89027  -0.88966
 Alpha  occ. eigenvalues --   -0.88940  -0.88573  -0.88531  -0.87015  -0.86951
 Alpha  occ. eigenvalues --   -0.86789  -0.86615  -0.86052  -0.85954  -0.85044
 Alpha  occ. eigenvalues --   -0.84341  -0.83893  -0.83719  -0.83668  -0.82697
 Alpha  occ. eigenvalues --   -0.82555  -0.82319  -0.81176  -0.80933  -0.80134
 Alpha  occ. eigenvalues --   -0.79905  -0.78279  -0.77988  -0.77726  -0.77382
 Alpha  occ. eigenvalues --   -0.77066  -0.76456  -0.75966  -0.75854  -0.75297
 Alpha  occ. eigenvalues --   -0.75213  -0.72998  -0.72864  -0.71948  -0.71647
 Alpha  occ. eigenvalues --   -0.69608  -0.69167  -0.68977  -0.68623  -0.67739
 Alpha  occ. eigenvalues --   -0.67574  -0.67037  -0.66877  -0.66155  -0.65595
 Alpha  occ. eigenvalues --   -0.65401  -0.65333  -0.65074  -0.64631  -0.64052
 Alpha  occ. eigenvalues --   -0.63507  -0.62086  -0.61931  -0.60409  -0.59837
 Alpha  occ. eigenvalues --   -0.59592  -0.59294  -0.59085  -0.59012  -0.58946
 Alpha  occ. eigenvalues --   -0.57991  -0.57465  -0.57189  -0.57164  -0.57024
 Alpha  occ. eigenvalues --   -0.56789  -0.56738  -0.56248  -0.55632  -0.55142
 Alpha  occ. eigenvalues --   -0.54811  -0.54536  -0.54357  -0.54206  -0.53967
 Alpha  occ. eigenvalues --   -0.53809  -0.53633  -0.53576  -0.53423  -0.53325
 Alpha  occ. eigenvalues --   -0.52916  -0.52828  -0.52516  -0.52510  -0.52259
 Alpha  occ. eigenvalues --   -0.52016  -0.51801  -0.51767  -0.51464  -0.51345
 Alpha  occ. eigenvalues --   -0.51173  -0.51047  -0.51009  -0.50646  -0.50618
 Alpha  occ. eigenvalues --   -0.49943  -0.49916  -0.49885  -0.49631  -0.49542
 Alpha  occ. eigenvalues --   -0.49498  -0.49149  -0.48979  -0.48913  -0.48741
 Alpha  occ. eigenvalues --   -0.48665  -0.48415  -0.48313  -0.48186  -0.48080
 Alpha  occ. eigenvalues --   -0.47987  -0.47763  -0.47722  -0.47571  -0.47301
 Alpha  occ. eigenvalues --   -0.47118  -0.46873  -0.46759  -0.46758  -0.46551
 Alpha  occ. eigenvalues --   -0.46513  -0.46203  -0.46169  -0.45928  -0.45680
 Alpha  occ. eigenvalues --   -0.45426  -0.45393  -0.45152  -0.44995  -0.44918
 Alpha  occ. eigenvalues --   -0.44712  -0.44498  -0.44412  -0.44357  -0.44141
 Alpha  occ. eigenvalues --   -0.43953  -0.43910  -0.43828  -0.43617  -0.43445
 Alpha  occ. eigenvalues --   -0.43383  -0.43215  -0.42788  -0.42698  -0.42587
 Alpha  occ. eigenvalues --   -0.42524  -0.42478  -0.42332  -0.42245  -0.42090
 Alpha  occ. eigenvalues --   -0.42086  -0.41959  -0.41891  -0.41713  -0.41515
 Alpha  occ. eigenvalues --   -0.41374  -0.41041  -0.40730  -0.40290  -0.40237
 Alpha  occ. eigenvalues --   -0.39985  -0.39887  -0.39333  -0.39315  -0.39052
 Alpha  occ. eigenvalues --   -0.38883  -0.38469  -0.37887  -0.37548  -0.37372
 Alpha  occ. eigenvalues --   -0.37190  -0.37062  -0.36546  -0.36361  -0.36310
 Alpha  occ. eigenvalues --   -0.35803  -0.35391  -0.34504  -0.34345  -0.33883
 Alpha  occ. eigenvalues --   -0.33790  -0.33221  -0.32658  -0.31773  -0.31492
 Alpha  occ. eigenvalues --   -0.31422  -0.31137  -0.31063  -0.30179  -0.30070
 Alpha  occ. eigenvalues --   -0.29399  -0.29200  -0.28765  -0.24491  -0.24420
 Alpha  occ. eigenvalues --   -0.21480  -0.20721
 Alpha virt. eigenvalues --   -0.08811  -0.08551  -0.02724  -0.01759  -0.00387
 Alpha virt. eigenvalues --    0.00561   0.00960   0.01505   0.02146   0.02531
 Alpha virt. eigenvalues --    0.04357   0.04795   0.04919   0.05442   0.05459

 Mulliken charges:
               1
     1  Mg  11.999989
     2  C    6.000196
     3  C    5.999969
     4  C    5.999677
     5  C    6.000155
     6  N    7.000071
     7  C    5.999712
     8  C    6.000023
     9  C    5.999966
    10  C    6.000257
    11  C    5.999905
    12  C    6.000030
    13  C    6.000015
    14  H    0.999967
    15  N    6.999915
    16  C    6.000373
    17  C    6.000247
    18  C    6.000034
    19  C    6.000432
    20  C    5.999951
    21  C    6.000149
    22  O    8.000215
    23  C    5.999926
    24  N    6.999993
    25  C    6.000398
    26  C    5.999889
    27  C    6.000046
    28  C    5.999727
    29  C    5.999983
    30  C    6.000036
    31  C    5.999987
    32  N    7.000013
    33  C    5.999677
    34  C    5.999655
    35  C    6.000039
    36  C    5.999592
    37  C    6.000075
    38  C    5.999771
    39  O    7.999596
    40  C    6.000056
    41  C    5.999948
    42  O    7.999871
    43  O    8.000039
    44  C    6.000025
    45  H    1.000163
    46  H    1.000107
    47  H    0.999885
    48  H    0.999995
    49  H    1.000023
    50  H    1.000097
    51  H    1.000127
    52  H    1.000014
    53  H    0.999932
    54  H    1.000037
    55  H    0.999955
    56  H    0.999996
    57  H    1.000204
    58  H    1.000199
    59  H    1.000188
    60  H    1.000094
    61  H    1.000093
    62  H    1.000160
    63  H    1.000068
    64  H    1.000026
    65  H    1.000106
    66  H    1.000047
    67  H    0.999992
    68  H    1.000026
    69  H    0.999915
    70  H    0.999980
    71  H    0.999980
    72  H    0.999968
    73  H    0.999766
    74  H    0.999778
    75  H    0.999758
    76  H    0.999865
    77  H    1.000001
    78  H    0.999958
    79  H    0.999907
    80  Mg  11.999746
    81  C    6.034258
    82  C    6.005280
    83  C    5.958524
    84  C    5.995000
    85  N    7.026359
    86  C    5.970427
    87  C    6.004344
    88  C    5.997942
    89  C    6.010729
    90  C    5.997537
    91  C    6.001360
    92  C    6.006869
    93  H    0.997769
    94  N    6.986666
    95  C    6.038787
    96  C    6.028327
    97  C    5.999794
    98  C    6.056791
    99  C    5.993350
   100  C    6.011974
   101  O    8.015043
   102  C    5.997688
   103  N    6.988361
   104  C    6.048582
   105  C    5.986413
   106  C    6.012866
   107  C    5.968732
   108  C    6.000702
   109  C    6.007127
   110  C    5.998213
   111  N    7.001939
   112  C    5.963305
   113  C    5.975258
   114  C    5.997579
   115  C    5.958591
   116  C    6.000258
   117  C    5.985399
   118  O    7.965628
   119  C    5.991241
   120  C    5.995853
   121  O    7.999018
   122  O    7.997740
   123  C    6.000273
   124  H    1.015003
   125  H    1.004175
   126  H    0.981806
   127  H    1.005281
   128  H    0.999463
   129  H    1.005669
   130  H    1.015455
   131  H    0.996939
   132  H    1.002921
   133  H    0.991346
   134  H    0.988916
   135  H    1.007325
   136  H    1.019742
   137  H    1.015906
   138  H    1.020347
   139  H    1.010749
   140  H    1.011556
   141  H    1.007693
   142  H    1.001828
   143  H    0.993018
   144  H    0.997511
   145  H    0.995081
   146  H    1.010112
   147  H    1.006385
   148  H    0.990039
   149  H    0.994680
   150  H    0.993738
   151  H    1.002938
   152  H    0.982709
   153  H    0.982405
   154  H    0.985188
   155  H    0.994194
   156  H    0.995123
   157  H    0.995718
   158  H    1.001400
 Sum of Mulliken charges = 624.00000

 Dipole moment (field-independent basis, Debye):
    X=             -6.5624    Y=              7.1772    Z=              4.4456  Tot=             10.6930
 Quadrupole moment (field-independent basis, Debye-Ang):
   XX=           -265.1780   YY=              6.4083   ZZ=             -3.1911
   XY=            148.8739   XZ=             96.7162   YZ=              3.7415

 Normal termination of Gaussian 16 at Thu Sep 23 02:20:48 2021.
