 Gaussian 16, Revision A.03,
 Gaussian 16:  ES64L-G16RevA.03 25-Dec-2016

 ----------------------------------------------------------
 #p cam-b3lyp/Def2SVP td=(nstates=5) density=(transition=1)
 ----------------------------------------------------------

 --------------------------------
 TDDFT excited states in gaussian
 --------------------------------
 Symbolic Z-matrix:
 Charge =  0 Multiplicity = 1

                         Standard orientation:
 ---------------------------------------------------------------------
 Center     Atomic      Atomic             Coordinates (Angstroms)
 Number     Number       Type             X           Y           Z
 ---------------------------------------------------------------------
      1         12           0      -28.177208   -0.194650   -0.408608
      2          6           0      -25.061175    0.937990    0.574763
      3          6           0      -27.592686   -3.163599    1.445171
      4          6           0      -31.442122   -1.138084   -0.847284
      5          6           0      -28.920782    2.877188   -1.801417
      6          7           0      -26.449191   -1.026554    0.739529
      7          6           0      -25.316442   -0.320645    1.086427
      8          6           0      -24.417027   -1.043085    2.158236
      9          6           0      -25.035885   -2.519441    2.118872
     10          6           0      -26.455250   -2.298894    1.351117
     11          6           0      -24.197547   -3.690013    1.477504
     12          6           0      -24.454111   -0.450048    3.522729
     13          6           0      -23.195251    0.101749    4.163803
     14          1           0      -23.142513    0.051458    5.699201
     15          7           0      -29.336073   -1.974283    0.140060
     16          6           0      -28.839069   -3.077103    0.859890
     17          6           0      -29.843621   -4.089409    0.939599
     18          6           0      -31.065721   -3.441011    0.395750
     19          6           0      -30.671168   -2.100657   -0.138063
     20          6           0      -29.679961   -5.404333    1.708960
     21          6           0      -32.427281   -4.157406    0.416038
     22          8           0      -32.676449   -5.267642    0.876923
     23          6           0      -33.631124   -3.326345    0.145100
     24          7           0      -30.065992    0.838339   -1.083335
     25          6           0      -31.185778    0.141560   -1.320444
     26          6           0      -32.273130    1.164848   -1.644933
     27          6           0      -31.495019    2.499182   -2.061478
     28          6           0      -30.018038    2.062571   -1.651848
     29          6           0      -33.112453    0.669716   -2.875684
     30          6           0      -31.905518    3.885396   -1.414611
     31          6           0      -32.502737    4.991870   -2.271151
     32          7           0      -27.160305    1.581986   -0.667796
     33          6           0      -27.573424    2.761931   -1.294325
     34          6           0      -26.548518    3.754915   -1.188154
     35          6           0      -25.509496    3.108244   -0.450036
     36          6           0      -25.960792    1.751043   -0.215521
     37          6           0      -26.555919    5.161290   -1.698824
     38          6           0      -24.210882    3.211610    0.075434
     39          8           0      -23.463608    4.168640    0.039681
     40          6           0      -23.891677    1.861030    0.826133
     41          6           0      -22.532112    1.432384    0.462117
     42          8           0      -21.568916    1.540291    1.212607
     43          8           0      -22.518966    0.931323   -0.831043
     44          6           0      -21.169155    0.521323   -1.279292
     45          1           0      -27.512187   -4.131145    1.944134
     46          1           0      -32.437599   -1.553360   -1.020002
     47          1           0      -29.190075    3.853771   -2.208814
     48          1           0      -23.386780   -1.071822    1.805166
     49          1           0      -25.311089   -2.764660    3.145283
     50          1           0      -23.178349   -3.323087    1.356668
     51          1           0      -24.581020   -4.054297    0.524340
     52          1           0      -24.257171   -4.533929    2.163769
     53          1           0      -24.757563   -1.252658    4.196604
     54          1           0      -25.151583    0.386598    3.545197
     55          1           0      -23.144627    1.164716    3.929730
     56          1           0      -22.289466   -0.420409    3.856417
     57          1           0      -28.782447   -5.613765    2.290516
     58          1           0      -29.865745   -6.143820    0.930412
     59          1           0      -30.607418   -5.473982    2.276457
     60          1           0      -33.991246   -3.215504   -0.876804
     61          1           0      -33.574998   -2.349957    0.626602
     62          1           0      -34.463898   -3.845844    0.620593
     63          1           0      -32.940814    1.354650   -0.804224
     64          1           0      -31.451379    2.584661   -3.146681
     65          1           0      -34.161704    0.750146   -2.591634
     66          1           0      -32.895398   -0.343641   -3.215814
     67          1           0      -32.949149    1.264477   -3.774696
     68          1           0      -30.984591    4.238053   -0.950777
     69          1           0      -32.687037    3.638979   -0.694519
     70          1           0      -32.288260    5.913642   -1.729789
     71          1           0      -33.585812    4.870353   -2.298842
     72          1           0      -32.139193    5.153482   -3.285401
     73          1           0      -25.590581    5.584224   -1.419475
     74          1           0      -27.413028    5.662294   -1.249892
     75          1           0      -26.637958    5.262441   -2.781166
     76          1           0      -23.869345    2.153542    1.876456
     77          1           0      -20.662034    1.360145   -1.755941
     78          1           0      -21.318673   -0.358842   -1.904597
     79          1           0      -20.559169    0.160806   -0.451501
     80         12           0       27.952867    0.451898   -0.385830
     81          6           0       25.898548   -2.240775   -0.074230
     82          6           0       25.259692    2.519469    0.604344
     83          6           0       30.174511    2.837855    0.339219
     84          6           0       30.759511   -1.772305   -0.853052
     85          7           0       25.869927    0.131677    0.153048
     86          6           0       25.212787   -0.977128    0.239301
     87          6           0       23.664829   -0.770980    0.401964
     88          6           0       23.460863    0.789901    0.323100
     89          6           0       24.962204    1.240716    0.324388
     90          6           0       22.518717    1.298369   -0.768988
     91          6           0       23.080970   -1.498157    1.753715
     92          6           0       24.037410   -1.782046    2.900620
     93          1           0       23.506125   -2.035120    4.311491
     94          7           0       27.731394    2.405504    0.377507
     95          6           0       26.574210    3.093641    0.652791
     96          6           0       26.887950    4.366593    1.139155
     97          6           0       28.329854    4.500941    1.121442
     98          6           0       28.831401    3.190673    0.629612
     99          6           0       25.798452    5.389596    1.403482
    100          6           0       29.085709    5.768176    1.560323
    101          8           0       28.408164    6.741756    1.959663
    102          6           0       30.510131    5.936853    1.556211
    103          7           0       30.230799    0.485477   -0.115068
    104          6           0       30.800847    1.652375   -0.011897
    105          6           0       32.343262    1.595030   -0.202794
    106          6           0       32.536326    0.126178   -0.638891
    107          6           0       31.085442   -0.501122   -0.570515
    108          6           0       32.875618    2.540177   -1.218669
    109          6           0       33.616241   -0.650100    0.252533
    110          6           0       34.969590   -1.039410   -0.472718
    111          7           0       28.326717   -1.566505   -0.575654
    112          6           0       29.469229   -2.346379   -0.794422
    113          6           0       29.054501   -3.779782   -0.902750
    114          6           0       27.689711   -3.747567   -0.583043
    115          6           0       27.288175   -2.397385   -0.357951
    116          6           0       29.862243   -4.949319   -1.192321
    117          6           0       26.618417   -4.609152   -0.372655
    118          8           0       26.476074   -5.837907   -0.455940
    119          6           0       25.392582   -3.684038   -0.127746
    120          6           0       24.315219   -4.023196   -1.185167
    121          8           0       23.149624   -4.321767   -0.988215
    122          8           0       24.807310   -3.952802   -2.470543
    123          6           0       23.893273   -4.290643   -3.568108
    124          1           0       24.383562    3.064718    0.961049
    125          1           0       30.934929    3.618649    0.403801
    126          1           0       31.587548   -2.412600   -1.163877
    127          1           0       23.212796   -1.137127   -0.520216
    128          1           0       23.084754    1.203023    1.259550
    129          1           0       23.082575    1.881865   -1.496531
    130          1           0       21.743039    1.954221   -0.371969
    131          1           0       21.939506    0.534366   -1.287637
    132          1           0       22.619442   -2.389931    1.328993
    133          1           0       22.323371   -0.931980    2.295981
    134          1           0       24.675803   -0.898971    2.907901
    135          1           0       24.655722   -2.610859    2.555393
    136          1           0       25.828199    6.356599    0.900692
    137          1           0       25.704784    5.525593    2.481156
    138          1           0       24.837567    4.962674    1.116834
    139          1           0       31.028225    5.868775    0.599796
    140          1           0       30.990246    5.114232    2.085244
    141          1           0       30.848085    6.818917    2.099239
    142          1           0       32.984011    1.816558    0.650609
    143          1           0       32.782306    0.019601   -1.695480
    144          1           0       33.386020    3.413799   -0.813537
    145          1           0       32.060290    3.037933   -1.744845
    146          1           0       33.547033    2.019500   -1.901260
    147          1           0       33.187941   -1.612897    0.534537
    148          1           0       33.979905   -0.087318    1.111193
    149          1           0       35.813352   -0.782306    0.166413
    150          1           0       35.081947   -0.388845   -1.340133
    151          1           0       34.928787   -2.124084   -0.574009
    152          1           0       30.651796   -4.575496   -1.844632
    153          1           0       29.276141   -5.699526   -1.724356
    154          1           0       30.148559   -5.367151   -0.227612
    155          1           0       24.798539   -3.978222    0.737204
    156          1           0       24.489246   -4.608628   -4.423773
    157          1           0       23.264276   -3.499684   -3.976253
    158          1           0       23.143432   -5.036547   -3.302909
 ---------------------------------------------------------------------

 SCF Done:  E(RCAM-B3LYP) =  -4069.76427337     A.U. after   19 cycles

 Excitation energies and oscillator strengths:

 Excited State   1:      Singlet-A      1.7059 eV  726.79 nm  f=0.4167  <S**2>=0.000
     309 -> 316       -0.16080
     312 -> 314        0.68859
     309 <- 316       -0.10269
 This state for optimization and/or second-order correction.
 Total Energy, E(TD-HF/TD-DFT) =  -4069.70158254
 Copying the excited state density for this state as the 1-particle RhoCI density.

 Excited State   2:      Singlet-A      1.7132 eV  723.71 nm  f=0.3967  <S**2>=0.000
     310 -> 315        0.17418
     311 -> 313        0.68617
     310 <- 315        0.10488

 Excited State   3:      Singlet-A      2.1719 eV  570.86 nm  f=0.1601  <S**2>=0.000
     310 -> 313        0.65198
     311 -> 315       -0.25356

 Excited State   4:      Singlet-A      2.2508 eV  550.84 nm  f=0.1194  <S**2>=0.000
     309 -> 314        0.64223
     312 -> 316        0.27237

 Excited State   5:      Singlet-A      3.0798 eV  402.57 nm  f=0.0000  <S**2>=0.000
     312 -> 313        0.70710

 The electronic state is 1-A.
 Alpha  occ. eigenvalues --  -46.90501 -46.90325 -19.25141 -19.24907 -19.20123
 Alpha  occ. eigenvalues --  -19.19846 -19.19128 -19.18980 -19.18320 -19.17432
 Alpha  occ. eigenvalues --  -14.43506 -14.43209 -14.42011 -14.41936 -14.40550
 Alpha  occ. eigenvalues --  -14.40067 -14.39891 -14.39833 -10.39731 -10.39144
 Alpha  occ. eigenvalues --  -10.35293 -10.34727 -10.34269 -10.34208 -10.33126
 Alpha  occ. eigenvalues --  -10.33013 -10.32092 -10.31783 -10.31702 -10.31689
 Alpha  occ. eigenvalues --  -10.31531 -10.31517 -10.31279 -10.30844 -10.30763
 Alpha  occ. eigenvalues --  -10.30750 -10.30658 -10.30437 -10.30389 -10.30145
 Alpha  occ. eigenvalues --  -10.29851 -10.29646 -10.29441 -10.29313 -10.29276
 Alpha  occ. eigenvalues --  -10.29111 -10.29037 -10.28817 -10.28726 -10.28691
 Alpha  occ. eigenvalues --  -10.28535 -10.28481 -10.28455 -10.28431 -10.28309
 Alpha  occ. eigenvalues --  -10.28305 -10.28284 -10.28279 -10.28215 -10.27914
 Alpha  occ. eigenvalues --  -10.27734 -10.27573 -10.27480 -10.27352 -10.27187
 Alpha  occ. eigenvalues --  -10.27104 -10.27079 -10.27050 -10.27047 -10.27002
 Alpha  occ. eigenvalues --  -10.26917 -10.26849 -10.26844 -10.26717 -10.26413
 Alpha  occ. eigenvalues --  -10.26264 -10.26195 -10.26168 -10.26069 -10.26018
 Alpha  occ. eigenvalues --  -10.25916 -10.25661 -10.25623 -10.25432 -10.24928
 Alpha  occ. eigenvalues --  -10.24920  -3.18732  -3.18712  -1.93640  -1.93610
 Alpha  occ. eigenvalues --   -1.93221  -1.93143  -1.93014  -1.92999  -1.16151
 Alpha  occ. eigenvalues --   -1.15555  -1.10076  -1.09787  -1.09066  -1.07626
 Alpha  occ. eigenvalues --   -1.07498  -1.07363  -1.05046  -1.04837  -1.04521
 Alpha  occ. eigenvalues --   -1.04075  -1.03653  -1.02589  -1.02261  -1.01755
 Alpha  occ. eigenvalues --   -0.93011  -0.92605  -0.89682  -0.89521  -0.89442
 Alpha  occ. eigenvalues --   -0.89398  -0.88999  -0.88335  -0.88212  -0.87811
 Alpha  occ. eigenvalues --   -0.87713  -0.87192  -0.85836  -0.85307  -0.84659
 Alpha  occ. eigenvalues --   -0.84534  -0.84206  -0.83862  -0.82962  -0.82914
 Alpha  occ. eigenvalues --   -0.82522  -0.82247  -0.81473  -0.80907  -0.80770
 Alpha  occ. eigenvalues --   -0.80281  -0.78493  -0.77854  -0.77407  -0.77205
 Alpha  occ. eigenvalues --   -0.77006  -0.76977  -0.76368  -0.76239  -0.75545
 Alpha  occ. eigenvalues --   -0.75292  -0.73522  -0.73412  -0.72302  -0.71966
 Alpha  occ. eigenvalues --   -0.69577  -0.69413  -0.69013  -0.68935  -0.68420
 Alpha  occ. eigenvalues --   -0.68011  -0.67150  -0.66851  -0.66048  -0.65667
 Alpha  occ. eigenvalues --   -0.65652  -0.65491  -0.65268  -0.64881  -0.64828
 Alpha  occ. eigenvalues --   -0.64556  -0.63348  -0.63025  -0.60913  -0.60270
 Alpha  occ. eigenvalues --   -0.59969  -0.59768  -0.59477  -0.59086  -0.58957
 Alpha  occ. eigenvalues --   -0.58534  -0.58035  -0.57811  -0.57265  -0.57005
 Alpha  occ. eigenvalues --   -0.56571  -0.56341  -0.55993  -0.55628  -0.55614
 Alpha  occ. eigenvalues --   -0.55465  -0.54828  -0.54825  -0.54557  -0.53878
 Alpha  occ. eigenvalues --   -0.53864  -0.53540  -0.53519  -0.53264  -0.53252
 Alpha  occ. eigenvalues --   -0.52889  -0.52845  -0.52802  -0.52608  -0.52500
 Alpha  occ. eigenvalues --   -0.52240  -0.52112  -0.51864  -0.51500  -0.51345
 Alpha  occ. eigenvalues --   -0.51261  -0.50952  -0.50947  -0.50697  -0.50395
 Alpha  occ. eigenvalues --   -0.50276  -0.50228  -0.49912  -0.49730  -0.49576
 Alpha  occ. eigenvalues --   -0.49512  -0.49236  -0.49162  -0.49006  -0.48889
 Alpha  occ. eigenvalues --   -0.48831  -0.48664  -0.48564  -0.48327  -0.48304
 Alpha  occ. eigenvalues --   -0.47966  -0.47814  -0.47665  -0.47418  -0.47194
 Alpha  occ. eigenvalues --   -0.47190  -0.47029  -0.46847  -0.46763  -0.46723
 Alpha  occ. eigenvalues --   -0.46600  -0.46195  -0.46144  -0.46008  -0.45893
 Alpha  occ. eigenvalues --   -0.45853  -0.45733  -0.45703  -0.45327  -0.45259
 Alpha  occ. eigenvalues --   -0.45204  -0.45020  -0.44876  -0.44689  -0.44607
 Alpha  occ. eigenvalues --   -0.44540  -0.44463  -0.44136  -0.43831  -0.43742
 Alpha  occ. eigenvalues --   -0.43650  -0.43598  -0.42996  -0.42773  -0.42701
 Alpha  occ. eigenvalues --   -0.42675  -0.42443  -0.42260  -0.42245  -0.42081
 Alpha  occ. eigenvalues --   -0.42013  -0.41611  -0.41517  -0.41495  -0.41291
 Alpha  occ. eigenvalues --   -0.40960  -0.40860  -0.40723  -0.40501  -0.39993
 Alpha  occ. eigenvalues --   -0.39983  -0.39843  -0.39727  -0.39480  -0.39078
 Alpha  occ. eigenvalues --   -0.38726  -0.38365  -0.38044  -0.37852  -0.37831
 Alpha  occ. eigenvalues --   -0.37426  -0.37230  -0.36867  -0.36799  -0.36531
 Alpha  occ. eigenvalues --   -0.36402  -0.35910  -0.34818  -0.34505  -0.34333
 Alpha  occ. eigenvalues --   -0.34304  -0.34047  -0.33349  -0.31778  -0.31614
 Alpha  occ. eigenvalues --   -0.31238  -0.31085  -0.30925  -0.30543  -0.30206
 Alpha  occ. eigenvalues --   -0.30179  -0.29597  -0.29025  -0.24944  -0.24630
 Alpha  occ. eigenvalues --   -0.22169  -0.21671
 Alpha virt. eigenvalues --   -0.09741  -0.09529  -0.02353  -0.01901  -0.00032
 Alpha virt. eigenvalues --    0.00006   0.00622   0.02200   0.02208   0.02323
 Alpha virt. eigenvalues --    0.04494   0.05006   0.05254   0.05256   0.05432

 Mulliken charges:
               1
     1  Mg  12.000041
     2  C    6.000739
     3  C    5.999795
     4  C    5.999052
     5  C    6.000110
     6  N    7.000351
     7  C    5.999166
     8  C    6.000245
     9  C    5.999883
    10  C    6.000769
    11  C    5.999875
    12  C    5.999978
    13  C    6.000037
    14  H    0.999898
    15  N    6.999618
    16  C    6.001059
    17  C    6.000464
    18  C    6.000203
    19  C    6.001169
    20  C    5.999913
    21  C    6.000297
    22  O    8.000468
    23  C    5.999828
    24  N    6.999821
    25  C    6.000974
    26  C    5.999750
    27  C    6.000104
    28  C    5.999380
    29  C    5.999943
    30  C    6.000108
    31  C    6.000034
    32  N    7.000148
    33  C    5.999010
    34  C    5.999428
    35  C    5.999902
    36  C    5.999123
    37  C    6.000047
    38  C    5.999594
    39  O    7.999215
    40  C    5.999851
    41  C    5.999896
    42  O    7.999823
    43  O    8.000049
    44  C    6.000084
    45  H    1.000341
    46  H    0.999994
    47  H    0.999649
    48  H    1.000068
    49  H    1.000068
    50  H    1.000372
    51  H    1.000027
    52  H    1.000080
    53  H    0.999791
    54  H    1.000115
    55  H    1.000151
    56  H    0.999980
    57  H    1.000434
    58  H    1.000437
    59  H    1.000368
    60  H    1.000329
    61  H    1.000236
    62  H    1.000266
    63  H    1.000043
    64  H    0.999975
    65  H    1.000005
    66  H    0.999890
    67  H    1.000168
    68  H    1.000166
    69  H    0.999724
    70  H    0.999964
    71  H    0.999815
    72  H    0.999988
    73  H    0.999682
    74  H    0.999543
    75  H    0.999505
    76  H    0.999860
    77  H    0.999986
    78  H    0.999862
    79  H    0.999876
    80  Mg  12.001779
    81  C    5.987833
    82  C    5.957842
    83  C    6.004937
    84  C    6.037502
    85  N    6.977278
    86  C    5.977197
    87  C    6.006016
    88  C    5.987201
    89  C    6.049591
    90  C    6.000763
    91  C    6.001516
    92  C    6.008932
    93  H    0.988350
    94  N    6.998266
    95  C    6.057332
    96  C    6.007968
    97  C    6.022864
    98  C    6.032158
    99  C    5.991938
   100  C    6.012857
   101  O    8.026734
   102  C    5.991082
   103  N    7.024348
   104  C    6.012811
   105  C    5.990099
   106  C    6.006702
   107  C    5.958749
   108  C    5.998134
   109  C    6.000253
   110  C    6.000328
   111  N    7.001601
   112  C    5.942946
   113  C    5.979430
   114  C    5.986859
   115  C    5.980167
   116  C    6.002786
   117  C    5.983317
   118  O    7.963578
   119  C    6.006798
   120  C    5.994642
   121  O    7.987401
   122  O    8.004607
   123  C    6.005125
   124  H    1.005317
   125  H    1.015910
   126  H    0.996131
   127  H    0.999226
   128  H    0.999768
   129  H    0.997635
   130  H    0.999993
   131  H    1.011412
   132  H    1.002920
   133  H    0.989850
   134  H    0.988282
   135  H    1.012017
   136  H    1.017747
   137  H    1.019728
   138  H    1.022170
   139  H    1.012155
   140  H    1.010402
   141  H    1.015706
   142  H    1.003788
   143  H    1.001353
   144  H    0.999107
   145  H    0.995970
   146  H    1.013132
   147  H    1.006677
   148  H    0.991711
   149  H    0.996712
   150  H    0.995717
   151  H    1.004347
   152  H    0.982478
   153  H    0.986387
   154  H    0.980404
   155  H    0.986306
   156  H    0.995886
   157  H    0.990082
   158  H    0.994956
 Sum of Mulliken charges = 624.00000

 Dipole moment (field-independent basis, Debye):
    X=              0.6959    Y=             11.1137    Z=              2.1997  Tot=             11.3507
 Quadrupole moment (field-independent basis, Debye-Ang):
   XX=             48.7822   YY=              7.8314   ZZ=             -0.5164
   XY=            321.8978   XZ=             58.9350   YZ=              3.3220

 Normal termination of Gaussian 16 at Thu Sep 23 02:47:14 2021.
