 Gaussian 16, Revision A.03,
 Gaussian 16:  ES64L-G16RevA.03 25-Dec-2016

 ----------------------------------------------------------
 #p cam-b3lyp/Def2SVP td=(nstates=5) density=(transition=1)
 ----------------------------------------------------------

 --------------------------------
 TDDFT excited states in gaussian
 --------------------------------
 Symbolic Z-matrix:
 Charge =  0 Multiplicity = 1

                         Standard orientation:
 ---------------------------------------------------------------------
 Center     Atomic      Atomic             Coordinates (Angstroms)
 Number     Number       Type             X           Y           Z
 ---------------------------------------------------------------------
      1         12           0       20.128871   -0.836665   -0.153693
      2          6           0       22.008480    2.234047   -0.155618
      3          6           0       17.756432    0.809948    1.666758
      4          6           0       18.532414   -3.775577    0.102403
      5          6           0       22.825023   -2.374071   -1.538722
      6          7           0       19.903792    1.394242    0.640063
      7          6           0       20.800485    2.404133    0.443861
      8          6           0       20.163118    3.653301    0.922067
      9          6           0       18.859174    3.201208    1.636008
     10          6           0       18.787540    1.671771    1.374924
     11          6           0       18.900933    3.499874    3.168494
     12          6           0       19.927543    4.714664   -0.123288
     13          6           0       19.500577    6.106143    0.315377
     14          1           0       20.252625    7.239212   -0.245433
     15          7           0       18.357962   -1.368940    0.650605
     16          6           0       17.537841   -0.548050    1.472996
     17          6           0       16.320075   -1.328722    1.761457
     18          6           0       16.608712   -2.638329    1.386596
     19          6           0       17.927286   -2.650000    0.727520
     20          6           0       15.153951   -0.716665    2.509146
     21          6           0       15.739626   -3.909450    1.500007
     22          8           0       16.171794   -5.066830    1.343724
     23          6           0       14.306273   -3.712833    1.783177
     24          7           0       20.620358   -2.851152   -0.589119
     25          6           0       19.842025   -3.902113   -0.431674
     26          6           0       20.506763   -5.234858   -0.873238
     27          6           0       21.742424   -4.705575   -1.604472
     28          6           0       21.710051   -3.232176   -1.268660
     29          6           0       20.865046   -6.135077    0.357051
     30          6           0       21.813321   -4.952729   -3.094529
     31          6           0       23.175702   -5.396172   -3.656570
     32          7           0       21.969651   -0.187086   -0.805803
     33          6           0       22.964390   -0.957445   -1.367326
     34          6           0       24.136735   -0.122875   -1.769020
     35          6           0       23.733898    1.096116   -1.262008
     36          6           0       22.475321    1.023430   -0.652914
     37          6           0       25.307437   -0.504151   -2.617009
     38          6           0       24.180064    2.475573   -1.133535
     39          8           0       25.212177    2.971560   -1.571080
     40          6           0       23.084094    3.291472   -0.410342
     41          6           0       23.739287    3.997209    0.661191
     42          8           0       24.125387    3.518365    1.754698
     43          8           0       23.745396    5.335548    0.409642
     44          6           0       24.107658    6.241377    1.477790
     45          1           0       16.950576    1.343623    2.174429
     46          1           0       18.098049   -4.751740    0.327302
     47          1           0       23.700011   -2.990525   -1.754259
     48          1           0       20.876085    4.017195    1.660744
     49          1           0       17.973764    3.697528    1.238370
     50          1           0       18.108594    4.027317    3.700566
     51          1           0       19.801990    4.099775    3.295245
     52          1           0       19.143515    2.644477    3.799582
     53          1           0       19.108069    4.439032   -0.787272
     54          1           0       20.709445    4.719706   -0.882193
     55          1           0       19.585169    6.211694    1.395914
     56          1           0       18.535530    6.271004   -0.163092
     57          1           0       14.761880   -1.338306    3.313826
     58          1           0       14.311407   -0.446762    1.872777
     59          1           0       15.387376    0.199009    3.052988
     60          1           0       13.911663   -2.987143    1.071869
     61          1           0       14.326076   -3.293497    2.788491
     62          1           0       13.818720   -4.662526    1.566103
     63          1           0       19.797502   -5.716378   -1.547297
     64          1           0       22.705819   -5.047680   -1.227483
     65          1           0       21.942980   -6.222445    0.489902
     66          1           0       20.509280   -7.155912    0.217566
     67          1           0       20.426276   -5.631110    1.218346
     68          1           0       21.480410   -4.086166   -3.664905
     69          1           0       20.949505   -5.585765   -3.294874
     70          1           0       22.967708   -5.988386   -4.547173
     71          1           0       23.813095   -5.870108   -2.909464
     72          1           0       23.628567   -4.431761   -3.885661
     73          1           0       25.233463   -0.180002   -3.655231
     74          1           0       25.451851   -1.569701   -2.440836
     75          1           0       26.222223   -0.144973   -2.143933
     76          1           0       22.823238    4.077331   -1.119145
     77          1           0       24.242281    5.767176    2.450323
     78          1           0       23.413493    7.080131    1.522296
     79          1           0       25.056995    6.741608    1.284621
     80         12           0      -21.096499   -0.485424   -0.005752
     81          6           0      -20.245736    2.783307   -0.907831
     82          6           0      -20.574145    0.405205    3.286763
     83          6           0      -21.222383   -3.782371    0.869096
     84          6           0      -20.935338   -1.370279   -3.350007
     85          7           0      -20.578227    1.388187    0.998142
     86          6           0      -20.495614    2.607129    0.449808
     87          6           0      -20.495592    3.765536    1.458016
     88          6           0      -20.411382    2.986158    2.826185
     89          6           0      -20.628712    1.433737    2.381348
     90          6           0      -19.131361    3.173688    3.668843
     91          6           0      -21.693608    4.708654    1.345718
     92          6           0      -21.396982    6.131842    1.852302
     93          1           0      -20.006867    6.452764    2.419302
     94          7           0      -21.037988   -1.548976    1.811812
     95          6           0      -20.877076   -0.985978    3.098867
     96          6           0      -20.963433   -2.052693    4.075947
     97          6           0      -21.089142   -3.311726    3.378558
     98          6           0      -21.158798   -2.925617    1.970116
     99          6           0      -21.001720   -1.752712    5.549181
    100          6           0      -21.301714   -4.789083    3.939431
    101          8           0      -21.535659   -5.745358    3.240931
    102          6           0      -21.178401   -4.961235    5.437835
    103          7           0      -20.985971   -2.300359   -1.069736
    104          6           0      -21.097756   -3.539665   -0.510527
    105          6           0      -21.116311   -4.682395   -1.591507
    106          6           0      -21.093630   -3.868584   -2.884320
    107          6           0      -20.993447   -2.434550   -2.399424
    108          6           0      -20.093178   -5.887627   -1.538378
    109          6           0      -22.368045   -4.116590   -3.724958
    110          6           0      -23.656241   -3.339129   -3.374944
    111          7           0      -20.829708    0.474098   -1.848569
    112          6           0      -20.788480   -0.006193   -3.131842
    113          6           0      -20.571773    1.043885   -4.069767
    114          6           0      -20.334925    2.218933   -3.223974
    115          6           0      -20.478013    1.804267   -1.957301
    116          6           0      -20.528603    1.048618   -5.533652
    117          6           0      -19.910710    3.612011   -3.205017
    118          8           0      -19.734842    4.401439   -4.139194
    119          6           0      -19.834044    4.064956   -1.717211
    120          6           0      -18.504288    4.559711   -1.375755
    121          8           0      -17.516082    3.872099   -1.141488
    122          8           0      -18.463920    5.916507   -1.577719
    123          6           0      -17.161604    6.597636   -1.712308
    124          1           0      -20.364680    0.771077    4.294301
    125          1           0      -21.447089   -4.816414    1.138641
    126          1           0      -20.979940   -1.628014   -4.410178
    127          1           0      -19.562752    4.327820    1.422854
    128          1           0      -21.285020    3.130522    3.460802
    129          1           0      -19.569664    3.461242    4.624347
    130          1           0      -18.517123    3.977208    3.263132
    131          1           0      -18.552846    2.250197    3.695930
    132          1           0      -22.570441    4.320234    1.862378
    133          1           0      -22.005424    4.796977    0.304666
    134          1           0      -22.167067    6.233970    2.617199
    135          1           0      -21.669545    6.890506    1.117262
    136          1           0      -20.755811   -0.694300    5.635928
    137          1           0      -20.273187   -2.383407    6.059101
    138          1           0      -21.972681   -1.959093    6.001946
    139          1           0      -20.173013   -4.939569    5.859598
    140          1           0      -21.696410   -5.881359    5.708255
    141          1           0      -21.759446   -4.115827    5.806144
    142          1           0      -22.091980   -5.127005   -1.396634
    143          1           0      -20.203385   -4.183024   -3.427817
    144          1           0      -19.593547   -6.102620   -2.482231
    145          1           0      -20.651097   -6.792103   -1.298080
    146          1           0      -19.398556   -5.694336   -0.720377
    147          1           0      -22.546275   -5.189505   -3.663937
    148          1           0      -22.066335   -3.900863   -4.750335
    149          1           0      -24.452056   -4.077614   -3.468591
    150          1           0      -23.883122   -2.539451   -4.079652
    151          1           0      -23.631703   -2.840934   -2.406410
    152          1           0      -21.057840    1.937371   -5.875569
    153          1           0      -20.950510    0.169408   -6.020661
    154          1           0      -19.513172    1.252310   -5.874002
    155          1           0      -20.601922    4.834320   -1.637714
    156          1           0      -16.323068    5.914816   -1.571154
    157          1           0      -17.102256    7.354240   -0.929535
    158          1           0      -17.236036    6.980381   -2.729573
 ---------------------------------------------------------------------

 SCF Done:  E(RCAM-B3LYP) =  -4069.83416405     A.U. after   18 cycles

 Excitation energies and oscillator strengths:

 Excited State   1:      Singlet-A      1.7177 eV  721.80 nm  f=0.4086  <S**2>=0.000
     310 -> 316        0.18152
     311 -> 313        0.68398
     310 <- 316        0.10677
 This state for optimization and/or second-order correction.
 Total Energy, E(TD-HF/TD-DFT) =  -4069.77103935
 Copying the excited state density for this state as the 1-particle RhoCI density.

 Excited State   2:      Singlet-A      1.7540 eV  706.86 nm  f=0.3814  <S**2>=0.000
     309 -> 315       -0.19893
     312 -> 314        0.68125
     309 <- 315       -0.11271

 Excited State   3:      Singlet-A      2.1355 eV  580.59 nm  f=0.1570  <S**2>=0.000
     310 -> 313        0.65932
     311 -> 316       -0.23566

 Excited State   4:      Singlet-A      2.3188 eV  534.70 nm  f=0.0718  <S**2>=0.000
     309 -> 314        0.61706
     312 -> 315        0.33877

 Excited State   5:      Singlet-A      3.0306 eV  409.11 nm  f=0.0000  <S**2>=0.000
     312 -> 313        0.70710

 The electronic state is 1-A.
 Alpha  occ. eigenvalues --  -46.88498 -46.88267 -19.25162 -19.23903 -19.19967
 Alpha  occ. eigenvalues --  -19.19026 -19.19015 -19.18836 -19.18731 -19.18607
 Alpha  occ. eigenvalues --  -14.42304 -14.41916 -14.41904 -14.41101 -14.39763
 Alpha  occ. eigenvalues --  -14.39597 -14.39454 -14.38188 -10.39139 -10.38711
 Alpha  occ. eigenvalues --  -10.36210 -10.35245 -10.35110 -10.34449 -10.31217
 Alpha  occ. eigenvalues --  -10.31198 -10.30909 -10.30904 -10.30748 -10.30734
 Alpha  occ. eigenvalues --  -10.30696 -10.30605 -10.30558 -10.30473 -10.30403
 Alpha  occ. eigenvalues --  -10.30391 -10.30342 -10.30080 -10.29895 -10.29032
 Alpha  occ. eigenvalues --  -10.28899 -10.28877 -10.28600 -10.28598 -10.28399
 Alpha  occ. eigenvalues --  -10.28296 -10.28178 -10.28136 -10.28117 -10.28010
 Alpha  occ. eigenvalues --  -10.27990 -10.27950 -10.27801 -10.27687 -10.27601
 Alpha  occ. eigenvalues --  -10.27599 -10.27594 -10.27533 -10.27445 -10.27324
 Alpha  occ. eigenvalues --  -10.27220 -10.27149 -10.27077 -10.27026 -10.26971
 Alpha  occ. eigenvalues --  -10.26964 -10.26936 -10.26916 -10.26615 -10.26368
 Alpha  occ. eigenvalues --  -10.26345 -10.26282 -10.26214 -10.26089 -10.26006
 Alpha  occ. eigenvalues --  -10.25983 -10.25942 -10.25933 -10.25918 -10.25875
 Alpha  occ. eigenvalues --  -10.25822 -10.25763 -10.25694 -10.25493 -10.24783
 Alpha  occ. eigenvalues --  -10.24603  -3.17104  -3.16793  -1.92013  -1.91693
 Alpha  occ. eigenvalues --   -1.91551  -1.91416  -1.91245  -1.91099  -1.16110
 Alpha  occ. eigenvalues --   -1.15118  -1.11605  -1.09472  -1.09058  -1.08892
 Alpha  occ. eigenvalues --   -1.06673  -1.05956  -1.05765  -1.04576  -1.04474
 Alpha  occ. eigenvalues --   -1.03353  -1.03073  -1.02472  -1.02179  -1.01045
 Alpha  occ. eigenvalues --   -0.93161  -0.92100  -0.90090  -0.89314  -0.89205
 Alpha  occ. eigenvalues --   -0.88833  -0.88474  -0.88164  -0.87586  -0.87120
 Alpha  occ. eigenvalues --   -0.87078  -0.86622  -0.86483  -0.86112  -0.84671
 Alpha  occ. eigenvalues --   -0.84227  -0.84064  -0.83463  -0.82931  -0.82601
 Alpha  occ. eigenvalues --   -0.82363  -0.81989  -0.81240  -0.81026  -0.80876
 Alpha  occ. eigenvalues --   -0.80197  -0.78665  -0.78152  -0.77717  -0.77440
 Alpha  occ. eigenvalues --   -0.77164  -0.76865  -0.76572  -0.75928  -0.75244
 Alpha  occ. eigenvalues --   -0.75038  -0.72987  -0.72457  -0.71952  -0.71118
 Alpha  occ. eigenvalues --   -0.69843  -0.69542  -0.69260  -0.68474  -0.68082
 Alpha  occ. eigenvalues --   -0.67712  -0.66528  -0.66419  -0.66103  -0.65407
 Alpha  occ. eigenvalues --   -0.65106  -0.64791  -0.64727  -0.64556  -0.64468
 Alpha  occ. eigenvalues --   -0.63752  -0.62540  -0.61428  -0.60406  -0.59901
 Alpha  occ. eigenvalues --   -0.59796  -0.59486  -0.59117  -0.59109  -0.58773
 Alpha  occ. eigenvalues --   -0.58392  -0.58343  -0.57693  -0.57608  -0.57436
 Alpha  occ. eigenvalues --   -0.56463  -0.55881  -0.55748  -0.55514  -0.55463
 Alpha  occ. eigenvalues --   -0.55198  -0.54686  -0.54436  -0.54027  -0.53889
 Alpha  occ. eigenvalues --   -0.53733  -0.53483  -0.53374  -0.53165  -0.52964
 Alpha  occ. eigenvalues --   -0.52894  -0.52706  -0.52351  -0.52160  -0.52001
 Alpha  occ. eigenvalues --   -0.51969  -0.51877  -0.51685  -0.51638  -0.51206
 Alpha  occ. eigenvalues --   -0.50829  -0.50786  -0.50663  -0.50482  -0.50290
 Alpha  occ. eigenvalues --   -0.50249  -0.49927  -0.49694  -0.49649  -0.49607
 Alpha  occ. eigenvalues --   -0.49393  -0.49085  -0.49073  -0.49028  -0.48637
 Alpha  occ. eigenvalues --   -0.48569  -0.48379  -0.48338  -0.48258  -0.48153
 Alpha  occ. eigenvalues --   -0.47955  -0.47797  -0.47649  -0.47359  -0.47230
 Alpha  occ. eigenvalues --   -0.47138  -0.47001  -0.46772  -0.46536  -0.46282
 Alpha  occ. eigenvalues --   -0.46227  -0.46150  -0.46039  -0.45851  -0.45672
 Alpha  occ. eigenvalues --   -0.45568  -0.45272  -0.45137  -0.45054  -0.45050
 Alpha  occ. eigenvalues --   -0.44668  -0.44524  -0.44293  -0.43990  -0.43957
 Alpha  occ. eigenvalues --   -0.43858  -0.43704  -0.43667  -0.43431  -0.43413
 Alpha  occ. eigenvalues --   -0.43212  -0.43147  -0.43082  -0.42813  -0.42698
 Alpha  occ. eigenvalues --   -0.42496  -0.42431  -0.42389  -0.42039  -0.41953
 Alpha  occ. eigenvalues --   -0.41749  -0.41678  -0.41560  -0.41524  -0.41231
 Alpha  occ. eigenvalues --   -0.41124  -0.41064  -0.40912  -0.40864  -0.40637
 Alpha  occ. eigenvalues --   -0.40255  -0.40117  -0.39939  -0.39930  -0.38811
 Alpha  occ. eigenvalues --   -0.38540  -0.38415  -0.37908  -0.37866  -0.37714
 Alpha  occ. eigenvalues --   -0.37037  -0.36653  -0.36146  -0.36063  -0.35999
 Alpha  occ. eigenvalues --   -0.35702  -0.35640  -0.34344  -0.33829  -0.33810
 Alpha  occ. eigenvalues --   -0.33530  -0.33300  -0.33004  -0.31627  -0.31561
 Alpha  occ. eigenvalues --   -0.31041  -0.30907  -0.30842  -0.30585  -0.30537
 Alpha  occ. eigenvalues --   -0.30258  -0.29629  -0.28679  -0.24070  -0.23538
 Alpha  occ. eigenvalues --   -0.21342  -0.20908
 Alpha virt. eigenvalues --   -0.08937  -0.08145  -0.01788  -0.01336   0.00578
 Alpha virt. eigenvalues --    0.00753   0.02468   0.02524   0.02588   0.03026
 Alpha virt. eigenvalues --    0.04560   0.05115   0.05305   0.05526   0.05983

 Mulliken charges:
               1
     1  Mg  11.999983
     2  C    6.000203
     3  C    5.999983
     4  C    5.999809
     5  C    5.999968
     6  N    7.000073
     7  C    5.999835
     8  C    6.000029
     9  C    5.999962
    10  C    6.000108
    11  C    5.999946
    12  C    6.000038
    13  C    6.000009
    14  H    0.999977
    15  N    6.999951
    16  C    6.000247
    17  C    6.000116
    18  C    6.000067
    19  C    6.000258
    20  C    5.999923
    21  C    6.000109
    22  O    8.000191
    23  C    5.999981
    24  N    6.999946
    25  C    6.000177
    26  C    5.999983
    27  C    6.000020
    28  C    5.999876
    29  C    5.999986
    30  C    6.000071
    31  C    5.999992
    32  N    6.999976
    33  C    5.999820
    34  C    5.999802
    35  C    6.000050
    36  C    5.999730
    37  C    6.000053
    38  C    5.999849
    39  O    7.999836
    40  C    5.999990
    41  C    5.999988
    42  O    7.999991
    43  O    7.999981
    44  C    6.000012
    45  H    1.000055
    46  H    1.000051
    47  H    0.999950
    48  H    1.000029
    49  H    0.999981
    50  H    1.000029
    51  H    1.000082
    52  H    1.000039
    53  H    0.999919
    54  H    1.000035
    55  H    1.000005
    56  H    0.999935
    57  H    1.000168
    58  H    1.000079
    59  H    1.000113
    60  H    0.999994
    61  H    1.000078
    62  H    1.000116
    63  H    0.999976
    64  H    1.000010
    65  H    1.000078
    66  H    1.000033
    67  H    0.999985
    68  H    0.999952
    69  H    0.999913
    70  H    0.999950
    71  H    1.000005
    72  H    1.000023
    73  H    0.999844
    74  H    0.999917
    75  H    0.999902
    76  H    0.999928
    77  H    1.000002
    78  H    0.999949
    79  H    0.999979
    80  Mg  12.003035
    81  C    5.978746
    82  C    6.020930
    83  C    6.023419
    84  C    5.993693
    85  N    6.993769
    86  C    6.035422
    87  C    5.985267
    88  C    6.002717
    89  C    5.971115
    90  C    6.002970
    91  C    5.997673
    92  C    5.998722
    93  H    1.004722
    94  N    7.005477
    95  C    5.953763
    96  C    5.981572
    97  C    5.978974
    98  C    5.964584
    99  C    6.006233
   100  C    5.985884
   101  O    7.973730
   102  C    6.004589
   103  N    7.007840
   104  C    5.960234
   105  C    6.009915
   106  C    5.988328
   107  C    6.031932
   108  C    5.998492
   109  C    5.994999
   110  C    5.993232
   111  N    6.999231
   112  C    6.030076
   113  C    6.039086
   114  C    6.002194
   115  C    6.025386
   116  C    5.992417
   117  C    6.013415
   118  O    8.026579
   119  C    6.002410
   120  C    6.005239
   121  O    8.006721
   122  O    8.000455
   123  C    5.998186
   124  H    0.989658
   125  H    0.994035
   126  H    1.011036
   127  H    1.001797
   128  H    1.000942
   129  H    0.998676
   130  H    0.987098
   131  H    1.003112
   132  H    1.008908
   133  H    0.992007
   134  H    1.004690
   135  H    0.997675
   136  H    0.981144
   137  H    0.980003
   138  H    0.977816
   139  H    0.989487
   140  H    0.984657
   141  H    0.997953
   142  H    1.001321
   143  H    1.004073
   144  H    0.989515
   145  H    0.999984
   146  H    1.004045
   147  H    1.012462
   148  H    0.996837
   149  H    1.008838
   150  H    0.994393
   151  H    1.007574
   152  H    1.021721
   153  H    1.021592
   154  H    1.026188
   155  H    1.007362
   156  H    1.003514
   157  H    1.006363
   158  H    1.000155
 Sum of Mulliken charges = 624.00000

 Dipole moment (field-independent basis, Debye):
    X=              0.6568    Y=              5.3326    Z=             -9.8277  Tot=             11.2005
 Quadrupole moment (field-independent basis, Debye-Ang):
   XX=            -30.6123   YY=             -5.1111   ZZ=             -0.1225
   XY=           -110.1881   XZ=            205.2955   YZ=              6.4801

 Normal termination of Gaussian 16 at Thu Sep 23 01:01:07 2021.
