 Gaussian 16, Revision A.03,
 Gaussian 16:  ES64L-G16RevA.03 25-Dec-2016

 -----------------------------------
 #p cam-b3lyp/Def2SVP td=(nstates=5)
 -----------------------------------

 --------------------------------
 TDDFT excited states in gaussian
 --------------------------------
 Symbolic Z-matrix:
 Charge =  0 Multiplicity = 1

                         Standard orientation:
 ---------------------------------------------------------------------
 Center     Atomic      Atomic             Coordinates (Angstroms)
 Number     Number       Type             X           Y           Z
 ---------------------------------------------------------------------
      1         12           0      -14.108955    0.631211    0.152660
      2          6           0      -12.784737   -2.115323   -1.584599
      3          6           0      -16.309122   -1.328564    1.714729
      4          6           0      -15.249575    3.293033    1.597413
      5          6           0      -12.429849    2.674267   -2.316186
      6          7           0      -14.530287   -1.472733   -0.042747
      7          6           0      -13.810132   -2.430361   -0.640356
      8          6           0      -14.425967   -3.793941   -0.460830
      9          6           0      -15.791710   -3.456699    0.261511
     10          6           0      -15.541848   -2.022893    0.687378
     11          6           0      -17.121727   -3.628914   -0.541577
     12          6           0      -13.508130   -4.706750    0.502386
     13          6           0      -13.249220   -6.141976   -0.062274
     14          1           0      -12.083972   -6.909124    0.768429
     15          7           0      -15.364240    0.898254    1.612843
     16          6           0      -16.188898   -0.049252    2.195022
     17          6           0      -16.775934    0.521971    3.375765
     18          6           0      -16.471197    1.943220    3.437504
     19          6           0      -15.555750    2.114087    2.244981
     20          6           0      -17.727125   -0.353632    4.241151
     21          6           0      -16.823382    3.097332    4.369119
     22          8           0      -16.382295    4.259054    4.305051
     23          6           0      -17.700505    2.675241    5.494204
     24          7           0      -13.954373    2.642629   -0.449406
     25          6           0      -14.570441    3.533650    0.394266
     26          6           0      -14.462881    4.960783   -0.144155
     27          6           0      -13.323146    4.808054   -1.185346
     28          6           0      -13.253527    3.294024   -1.394081
     29          6           0      -15.878740    5.460849   -0.636522
     30          6           0      -11.917367    5.422126   -0.776360
     31          6           0      -10.968629    5.803687   -1.923926
     32          7           0      -12.823589    0.385993   -1.584564
     33          6           0      -12.258695    1.294472   -2.427513
     34          6           0      -11.364169    0.652673   -3.364644
     35          6           0      -11.506995   -0.697278   -2.994976
     36          6           0      -12.444498   -0.821309   -1.959643
     37          6           0      -10.463440    1.213556   -4.489050
     38          6           0      -11.026949   -2.015552   -3.302679
     39          8           0      -10.123691   -2.429651   -3.981086
     40          6           0      -11.994979   -3.014880   -2.480542
     41          6           0      -11.016511   -3.971493   -1.956551
     42          8           0      -10.286513   -3.879323   -0.937406
     43          8           0      -11.041418   -5.000720   -2.820800
     44          6           0      -10.129117   -6.121635   -2.589911
     45          1           0      -16.969836   -1.974569    2.296864
     46          1           0      -15.571529    4.191922    2.127691
     47          1           0      -11.872157    3.344088   -2.974041
     48          1           0      -14.558588   -4.368034   -1.378272
     49          1           0      -15.979030   -3.979364    1.199696
     50          1           0      -17.525243   -2.634089   -0.730176
     51          1           0      -17.784101   -4.180386    0.125457
     52          1           0      -17.085932   -4.120603   -1.513088
     53          1           0      -13.845225   -4.796947    1.535695
     54          1           0      -12.588606   -4.144108    0.664049
     55          1           0      -12.945515   -6.092562   -1.107739
     56          1           0      -14.088850   -6.831714    0.020219
     57          1           0      -17.124136   -0.855455    4.996654
     58          1           0      -18.097266   -1.240139    3.724709
     59          1           0      -18.664669    0.100034    4.561703
     60          1           0      -17.266031    1.922834    6.151446
     61          1           0      -18.594988    2.339792    4.967930
     62          1           0      -18.030022    3.500281    6.126365
     63          1           0      -14.164026    5.566353    0.711558
     64          1           0      -13.600153    5.333964   -2.098967
     65          1           0      -15.908706    5.494313   -1.725523
     66          1           0      -16.219569    6.449936   -0.331608
     67          1           0      -16.727586    4.807927   -0.432338
     68          1           0      -11.421306    4.578727   -0.295281
     69          1           0      -11.917211    6.277846   -0.100853
     70          1           0      -10.072422    5.182121   -1.939930
     71          1           0      -10.597459    6.826671   -1.989157
     72          1           0      -11.494242    5.521331   -2.835046
     73          1           0      -10.915810    2.160562   -4.783407
     74          1           0      -10.414155    0.524666   -5.333357
     75          1           0       -9.488431    1.394481   -4.036708
     76          1           0      -12.647846   -3.544161   -3.174832
     77          1           0      -10.717499   -6.988935   -2.290928
     78          1           0       -9.309799   -5.856352   -1.922595
     79          1           0       -9.699924   -6.412192   -3.548721
     80         12           0       14.064914    0.613947   -0.038951
     81          6           0       11.849864   -2.045325    0.627412
     82          6           0       16.623784   -1.702952    0.130717
     83          6           0       16.338430    3.107221   -0.557895
     84          6           0       11.526382    2.801373    0.161782
     85          7           0       14.213600   -1.654804    0.306761
     86          6           0       13.175627   -2.571512    0.422776
     87          6           0       13.703703   -3.986894    0.301963
     88          6           0       15.252998   -3.821316    0.510331
     89          6           0       15.362101   -2.329459    0.288535
     90          6           0       15.820713   -4.353707    1.884200
     91          6           0       13.428055   -4.621005   -1.069561
     92          6           0       13.102781   -6.118378   -1.048587
     93          1           0       14.235567   -7.117865   -0.684044
     94          7           0       16.163647    0.691079   -0.281875
     95          6           0       16.972967   -0.381830   -0.125794
     96          6           0       18.328510    0.054830   -0.213710
     97          6           0       18.342377    1.449342   -0.563254
     98          6           0       16.940745    1.803182   -0.424326
     99          6           0       19.485990   -0.884463   -0.017359
    100          6           0       19.489989    2.419603   -0.843967
    101          8           0       19.285056    3.566911   -1.298099
    102          6           0       20.942320    2.089385   -0.518763
    103          7           0       13.934696    2.625105   -0.265451
    104          6           0       15.007893    3.500242   -0.403241
    105          6           0       14.494378    4.903497   -0.402424
    106          6           0       12.931430    4.886882   -0.243748
    107          6           0       12.736915    3.364825   -0.150493
    108          6           0       15.252490    5.873922    0.552589
    109          6           0       12.136085    5.505897   -1.413534
    110          6           0       11.728073    6.972050   -1.171920
    111          7           0       12.130681    0.487522    0.353105
    112          6           0       11.128688    1.456915    0.350712
    113          6           0        9.753942    0.872912    0.571610
    114          6           0       10.062828   -0.489893    0.711213
    115          6           0       11.468800   -0.684555    0.522032
    116          6           0        8.439193    1.629797    0.620137
    117          6           0        9.426321   -1.776081    0.951937
    118          8           0        8.250296   -2.066570    1.174719
    119          6           0       10.587798   -2.844261    0.777676
    120          6           0       10.524830   -3.720373    2.044265
    121          8           0       10.322312   -3.336524    3.177767
    122          8           0       10.571138   -5.059094    1.659928
    123          6           0       10.510794   -5.981281    2.794113
    124          1           0       17.398781   -2.471769    0.111403
    125          1           0       16.973451    3.978061   -0.732213
    126          1           0       10.784164    3.583294    0.333463
    127          1           0       13.340107   -4.673963    1.065658
    128          1           0       15.869056   -4.350292   -0.216876
    129          1           0       15.106125   -4.883705    2.514593
    130          1           0       16.219458   -3.606265    2.569665
    131          1           0       16.604289   -5.092651    1.716568
    132          1           0       14.269881   -4.481248   -1.747329
    133          1           0       12.549689   -4.170980   -1.532649
    134          1           0       12.642469   -6.447701   -1.980021
    135          1           0       12.298463   -6.337935   -0.346778
    136          1           0       19.209512   -1.384127    0.911199
    137          1           0       20.470177   -0.448483    0.153493
    138          1           0       19.595981   -1.643347   -0.791682
    139          1           0       21.037671    1.722573    0.503358
    140          1           0       21.430681    3.051585   -0.672267
    141          1           0       21.323566    1.306522   -1.174401
    142          1           0       14.815881    5.350929   -1.343416
    143          1           0       12.555785    5.306175    0.690516
    144          1           0       15.995052    5.289588    1.096400
    145          1           0       14.543152    6.284803    1.270504
    146          1           0       15.715205    6.596043   -0.120951
    147          1           0       11.317937    4.823982   -1.644261
    148          1           0       12.762903    5.602536   -2.300291
    149          1           0       12.404482    7.428661   -0.449103
    150          1           0       10.750885    7.138888   -0.718362
    151          1           0       11.847822    7.512000   -2.111651
    152          1           0        8.207758    1.936902   -0.399929
    153          1           0        8.440694    2.539355    1.220479
    154          1           0        7.702909    0.914956    0.987201
    155          1           0       10.510860   -3.486564   -0.099407
    156          1           0       11.479054   -6.250137    3.217431
    157          1           0        9.988672   -6.849568    2.392400
    158          1           0        9.974771   -5.682241    3.694850
 ---------------------------------------------------------------------

 SCF Done:  E(RCAM-B3LYP) =  -4069.83446609     A.U. after   17 cycles

 Excitation energies and oscillator strengths:

 Excited State   1:      Singlet-A      1.7010 eV  728.87 nm  f=0.4185  <S**2>=0.000
     310 -> 316       -0.18604
     312 -> 313        0.68209
     310 <- 316       -0.10929
 This state for optimization and/or second-order correction.
 Total Energy, E(TD-HF/TD-DFT) =  -4069.77195401
 Copying the excited state density for this state as the 1-particle RhoCI density.

 Excited State   2:      Singlet-A      1.7273 eV  717.80 nm  f=0.3430  <S**2>=0.000
     309 -> 315        0.19698
     311 -> 314        0.67917
     309 <- 315        0.11034

 Excited State   3:      Singlet-A      2.2323 eV  555.40 nm  f=0.0956  <S**2>=0.000
     310 -> 313        0.63565
     312 -> 316        0.29950

 Excited State   4:      Singlet-A      2.2496 eV  551.15 nm  f=0.0647  <S**2>=0.000
     309 -> 314        0.61693
     311 -> 315       -0.33565

 Excited State   5:      Singlet-A      3.0852 eV  401.87 nm  f=0.0000  <S**2>=0.000
     311 -> 313        0.70706

 The electronic state is 1-A.
 Alpha  occ. eigenvalues --  -46.87573 -46.87506 -19.25677 -19.24788 -19.20325
 Alpha  occ. eigenvalues --  -19.19609 -19.19139 -19.19009 -19.18965 -19.18347
 Alpha  occ. eigenvalues --  -14.42600 -14.42532 -14.41664 -14.41202 -14.39817
 Alpha  occ. eigenvalues --  -14.39407 -14.39392 -14.38339 -10.39599 -10.38489
 Alpha  occ. eigenvalues --  -10.35934 -10.35780 -10.34992 -10.34589 -10.31646
 Alpha  occ. eigenvalues --  -10.31391 -10.31364 -10.31127 -10.30922 -10.30796
 Alpha  occ. eigenvalues --  -10.30723 -10.30668 -10.30650 -10.30539 -10.30253
 Alpha  occ. eigenvalues --  -10.30211 -10.30201 -10.30048 -10.29976 -10.29507
 Alpha  occ. eigenvalues --  -10.29396 -10.29165 -10.29144 -10.29028 -10.28666
 Alpha  occ. eigenvalues --  -10.28660 -10.28656 -10.28638 -10.28554 -10.28477
 Alpha  occ. eigenvalues --  -10.28474 -10.28305 -10.28303 -10.27798 -10.27784
 Alpha  occ. eigenvalues --  -10.27770 -10.27676 -10.27674 -10.27652 -10.27619
 Alpha  occ. eigenvalues --  -10.27545 -10.27473 -10.27295 -10.27229 -10.27132
 Alpha  occ. eigenvalues --  -10.26992 -10.26978 -10.26735 -10.26579 -10.26531
 Alpha  occ. eigenvalues --  -10.26444 -10.26368 -10.26364 -10.26311 -10.26264
 Alpha  occ. eigenvalues --  -10.26193 -10.26006 -10.25934 -10.25915 -10.25817
 Alpha  occ. eigenvalues --  -10.25757 -10.25614 -10.25595 -10.25492 -10.25299
 Alpha  occ. eigenvalues --  -10.24372  -3.16356  -3.16350  -1.91254  -1.91234
 Alpha  occ. eigenvalues --   -1.90817  -1.90787  -1.90700  -1.90664  -1.16215
 Alpha  occ. eigenvalues --   -1.15856  -1.10701  -1.09331  -1.09143  -1.08863
 Alpha  occ. eigenvalues --   -1.08088  -1.05469  -1.05124  -1.04640  -1.04238
 Alpha  occ. eigenvalues --   -1.03592  -1.03527  -1.02998  -1.02346  -1.01383
 Alpha  occ. eigenvalues --   -0.92645  -0.92494  -0.89360  -0.89046  -0.88948
 Alpha  occ. eigenvalues --   -0.88225  -0.88196  -0.87984  -0.87410  -0.87383
 Alpha  occ. eigenvalues --   -0.86941  -0.86908  -0.86197  -0.86067  -0.84467
 Alpha  occ. eigenvalues --   -0.84342  -0.83760  -0.83475  -0.82417  -0.82225
 Alpha  occ. eigenvalues --   -0.82205  -0.81663  -0.81199  -0.80911  -0.80236
 Alpha  occ. eigenvalues --   -0.80011  -0.78381  -0.78156  -0.77394  -0.77256
 Alpha  occ. eigenvalues --   -0.77213  -0.76852  -0.76076  -0.75851  -0.75340
 Alpha  occ. eigenvalues --   -0.74987  -0.72722  -0.72605  -0.72067  -0.71590
 Alpha  occ. eigenvalues --   -0.69313  -0.69184  -0.68745  -0.68733  -0.68110
 Alpha  occ. eigenvalues --   -0.67847  -0.67246  -0.67152  -0.65986  -0.65713
 Alpha  occ. eigenvalues --   -0.65483  -0.65433  -0.64797  -0.64419  -0.64378
 Alpha  occ. eigenvalues --   -0.64086  -0.62497  -0.61694  -0.60300  -0.60173
 Alpha  occ. eigenvalues --   -0.60082  -0.59775  -0.59083  -0.58859  -0.58573
 Alpha  occ. eigenvalues --   -0.58427  -0.57911  -0.57668  -0.57424  -0.57083
 Alpha  occ. eigenvalues --   -0.56259  -0.55950  -0.55857  -0.55379  -0.55377
 Alpha  occ. eigenvalues --   -0.55038  -0.54611  -0.54296  -0.53855  -0.53731
 Alpha  occ. eigenvalues --   -0.53423  -0.53370  -0.53151  -0.53066  -0.52808
 Alpha  occ. eigenvalues --   -0.52707  -0.52494  -0.52491  -0.52157  -0.52080
 Alpha  occ. eigenvalues --   -0.51782  -0.51679  -0.51539  -0.51367  -0.51146
 Alpha  occ. eigenvalues --   -0.50957  -0.50669  -0.50407  -0.50320  -0.50152
 Alpha  occ. eigenvalues --   -0.50105  -0.49970  -0.49961  -0.49725  -0.49355
 Alpha  occ. eigenvalues --   -0.49293  -0.48999  -0.48988  -0.48854  -0.48829
 Alpha  occ. eigenvalues --   -0.48422  -0.48417  -0.48171  -0.48051  -0.48012
 Alpha  occ. eigenvalues --   -0.47959  -0.47549  -0.47357  -0.47330  -0.47196
 Alpha  occ. eigenvalues --   -0.46807  -0.46783  -0.46587  -0.46446  -0.46442
 Alpha  occ. eigenvalues --   -0.46281  -0.46199  -0.45846  -0.45831  -0.45652
 Alpha  occ. eigenvalues --   -0.45456  -0.45440  -0.45085  -0.44849  -0.44817
 Alpha  occ. eigenvalues --   -0.44552  -0.44460  -0.44286  -0.44269  -0.43970
 Alpha  occ. eigenvalues --   -0.43667  -0.43516  -0.43494  -0.43426  -0.43414
 Alpha  occ. eigenvalues --   -0.43109  -0.43032  -0.42940  -0.42813  -0.42796
 Alpha  occ. eigenvalues --   -0.42610  -0.42593  -0.42279  -0.42141  -0.42011
 Alpha  occ. eigenvalues --   -0.41866  -0.41847  -0.41684  -0.41538  -0.41282
 Alpha  occ. eigenvalues --   -0.41159  -0.41123  -0.40981  -0.40755  -0.40520
 Alpha  occ. eigenvalues --   -0.40380  -0.40256  -0.40171  -0.39621  -0.39533
 Alpha  occ. eigenvalues --   -0.38717  -0.38641  -0.38238  -0.37863  -0.37779
 Alpha  occ. eigenvalues --   -0.37318  -0.37186  -0.36934  -0.36797  -0.36562
 Alpha  occ. eigenvalues --   -0.35422  -0.35151  -0.35086  -0.34874  -0.33917
 Alpha  occ. eigenvalues --   -0.33867  -0.32897  -0.32780  -0.31666  -0.31456
 Alpha  occ. eigenvalues --   -0.31254  -0.30901  -0.30857  -0.30478  -0.30473
 Alpha  occ. eigenvalues --   -0.30267  -0.29926  -0.29541  -0.24121  -0.23878
 Alpha  occ. eigenvalues --   -0.21052  -0.21003
 Alpha virt. eigenvalues --   -0.08500  -0.08375  -0.02236  -0.01708  -0.00230
 Alpha virt. eigenvalues --    0.00070   0.01821   0.02471   0.03217   0.03809
 Alpha virt. eigenvalues --    0.04829   0.04861   0.05107   0.05203   0.05677

 Mulliken charges:
               1
     1  Mg   0.852890
     2  C    0.059678
     3  C   -0.070853
     4  C   -0.057505
     5  C   -0.106736
     6  N   -0.271024
     7  C    0.000343
     8  C   -0.067206
     9  C   -0.030259
    10  C    0.007071
    11  C    0.073783
    12  C    0.057160
    13  C   -0.089452
    14  H    0.003978
    15  N   -0.473317
    16  C    0.175991
    17  C   -0.108110
    18  C   -0.095583
    19  C    0.154317
    20  C    0.089111
    21  C    0.047422
    22  O   -0.209050
    23  C    0.040347
    24  N   -0.291843
    25  C    0.056772
    26  C   -0.031462
    27  C   -0.009924
    28  C    0.037035
    29  C    0.062948
    30  C    0.033899
    31  C   -0.009102
    32  N   -0.270830
    33  C    0.124406
    34  C   -0.199688
    35  C    0.032830
    36  C    0.059094
    37  C    0.139582
    38  C    0.025910
    39  O   -0.148307
    40  C   -0.069327
    41  C    0.203366
    42  O   -0.256412
    43  O   -0.319793
    44  C    0.175256
    45  H   -0.039517
    46  H    0.000512
    47  H   -0.042867
    48  H    0.011894
    49  H    0.003416
    50  H    0.020723
    51  H    0.015798
    52  H    0.020490
    53  H    0.007603
    54  H    0.035469
    55  H    0.036286
    56  H    0.033508
    57  H    0.029980
    58  H    0.006159
    59  H    0.032619
    60  H    0.052602
    61  H    0.030669
    62  H    0.020645
    63  H    0.015891
    64  H    0.001317
    65  H   -0.000400
    66  H    0.021463
    67  H    0.019771
    68  H    0.012446
    69  H    0.017896
    70  H    0.013285
    71  H    0.020577
    72  H    0.010170
    73  H    0.013322
    74  H    0.043182
    75  H    0.041553
    76  H    0.043474
    77  H    0.031921
    78  H    0.059618
    79  H    0.031118
    80  Mg   0.856870
    81  C   -0.058726
    82  C   -0.109513
    83  C   -0.071424
    84  C   -0.087059
    85  N   -0.241812
    86  C   -0.014034
    87  C    0.014374
    88  C   -0.051369
    89  C   -0.006737
    90  C    0.052973
    91  C    0.064856
    92  C   -0.070525
    93  H    0.002220
    94  N   -0.342914
    95  C    0.211659
    96  C   -0.159483
    97  C   -0.006442
    98  C    0.104251
    99  C    0.108386
   100  C    0.005809
   101  O   -0.228319
   102  C    0.038038
   103  N   -0.379017
   104  C    0.084219
   105  C   -0.050978
   106  C   -0.001784
   107  C    0.029972
   108  C    0.063132
   109  C    0.045027
   110  C   -0.000560
   111  N   -0.392758
   112  C    0.133067
   113  C   -0.159551
   114  C   -0.023246
   115  C    0.156290
   116  C    0.124943
   117  C    0.083934
   118  O   -0.172471
   119  C   -0.034181
   120  C    0.197932
   121  O   -0.193107
   122  O   -0.339662
   123  C    0.167147
   124  H   -0.033883
   125  H   -0.011077
   126  H   -0.037234
   127  H    0.007797
   128  H    0.014625
   129  H    0.013048
   130  H    0.020390
   131  H    0.012725
   132  H    0.016687
   133  H    0.012098
   134  H    0.024851
   135  H    0.028654
   136  H    0.024947
   137  H    0.003694
   138  H    0.034879
   139  H    0.040244
   140  H    0.037854
   141  H    0.041667
   142  H    0.016513
   143  H    0.017675
   144  H    0.022073
   145  H    0.012436
   146  H    0.021623
   147  H    0.012988
   148  H    0.003364
   149  H    0.004361
   150  H    0.019210
   151  H    0.018410
   152  H    0.027816
   153  H    0.026015
   154  H    0.042564
   155  H    0.042853
   156  H    0.025602
   157  H    0.037323
   158  H    0.047782
 Sum of Mulliken charges =  -0.00000

 Dipole moment (field-independent basis, Debye):
    X=             -1.0080    Y=             -2.1051    Z=             -0.2426  Tot=              2.3465
 Quadrupole moment (field-independent basis, Debye-Ang):
   XX=           -297.1762   YY=           -471.0154   ZZ=           -520.5537
   XY=            -15.4066   XZ=             -5.2279   YZ=            -14.6794

 Normal termination of Gaussian 16 at Wed Sep  1 21:02:51 2021.
