 Gaussian 16, Revision A.03,
 Gaussian 16:  ES64L-G16RevA.03 25-Dec-2016

 -----------------------------------
 #p cam-b3lyp/Def2SVP td=(nstates=5)
 -----------------------------------

 --------------------------------
 TDDFT excited states in gaussian
 --------------------------------
 Symbolic Z-matrix:
 Charge =  0 Multiplicity = 1

                         Standard orientation:
 ---------------------------------------------------------------------
 Center     Atomic      Atomic             Coordinates (Angstroms)
 Number     Number       Type             X           Y           Z
 ---------------------------------------------------------------------
      1         12           0      -23.841947    0.531495    0.236289
      2          6           0      -22.521943   -2.207466   -1.559793
      3          6           0      -22.732809    2.653553   -2.201916
      4          6           0      -24.491220    3.036624    2.279046
      5          6           0      -24.503374   -1.705327    2.909301
      6          7           0      -22.846996    0.205324   -1.723458
      7          6           0      -22.442606   -0.952106   -2.208221
      8          6           0      -22.134739   -0.768548   -3.683322
      9          6           0      -21.769648    0.762389   -3.786830
     10          6           0      -22.483651    1.276255   -2.481333
     11          6           0      -20.212119    0.975947   -3.897490
     12          6           0      -23.359701   -1.062158   -4.587051
     13          6           0      -23.031135   -1.394150   -6.108804
     14          1           0      -21.598383   -1.386413   -6.648545
     15          7           0      -23.834497    2.524570   -0.009224
     16          6           0      -23.405073    3.274735   -1.133939
     17          6           0      -23.676035    4.706525   -0.866231
     18          6           0      -24.120572    4.818864    0.500002
     19          6           0      -24.184209    3.439415    1.029781
     20          6           0      -23.496492    5.786333   -1.874146
     21          6           0      -24.537846    6.050207    1.394764
     22          8           0      -24.991044    5.952144    2.543250
     23          6           0      -24.243618    7.431246    0.884959
     24          7           0      -24.315829    0.661459    2.368708
     25          6           0      -24.587394    1.799366    2.950579
     26          6           0      -25.023189    1.698522    4.385509
     27          6           0      -25.026327    0.146672    4.618015
     28          6           0      -24.680365   -0.365669    3.183800
     29          6           0      -24.170999    2.580466    5.302818
     30          6           0      -26.354245   -0.423039    5.100928
     31          6           0      -26.282783   -1.550547    6.192178
     32          7           0      -23.662354   -1.589804    0.656405
     33          6           0      -24.021711   -2.348726    1.787446
     34          6           0      -23.875755   -3.728904    1.475423
     35          6           0      -23.129725   -3.750922    0.254049
     36          6           0      -23.073697   -2.462803   -0.214655
     37          6           0      -24.443020   -4.871423    2.268079
     38          6           0      -22.525654   -4.539689   -0.846581
     39          8           0      -22.376985   -5.738975   -0.956437
     40          6           0      -21.901462   -3.507962   -1.901905
     41          6           0      -21.934687   -4.078920   -3.281760
     42          8           0      -22.907264   -4.396558   -3.900524
     43          8           0      -20.635472   -4.307900   -3.772125
     44          6           0      -20.473266   -5.436298   -4.713324
     45          1           0      -22.242845    3.398894   -2.832559
     46          1           0      -24.865224    3.780011    2.985261
     47          1           0      -24.789706   -2.373721    3.724081
     48          1           0      -21.393993   -1.545126   -3.873618
     49          1           0      -22.232838    1.227203   -4.657827
     50          1           0      -19.696413    0.016866   -3.862950
     51          1           0      -19.955844    1.452972   -2.951490
     52          1           0      -19.883054    1.474992   -4.809042
     53          1           0      -23.944071   -0.141870   -4.550258
     54          1           0      -23.918167   -1.870337   -4.114891
     55          1           0      -23.633339   -0.683245   -6.676591
     56          1           0      -23.479837   -2.373051   -6.279425
     57          1           0      -23.314980    5.517723   -2.914197
     58          1           0      -22.640851    6.422916   -1.650635
     59          1           0      -24.444213    6.324558   -1.844809
     60          1           0      -25.029058    7.849498    0.255655
     61          1           0      -23.309992    7.226653    0.359509
     62          1           0      -24.048996    8.039783    1.767655
     63          1           0      -26.042397    2.081263    4.333956
     64          1           0      -24.269231   -0.196820    5.321868
     65          1           0      -23.171177    2.782646    4.917424
     66          1           0      -24.043830    2.000077    6.215790
     67          1           0      -24.640802    3.540053    5.519766
     68          1           0      -26.925399   -0.843430    4.273360
     69          1           0      -26.941506    0.460674    5.350030
     70          1           0      -25.256992   -1.877115    6.362231
     71          1           0      -26.844637   -2.378529    5.760403
     72          1           0      -26.715272   -1.359985    7.174941
     73          1           0      -24.152591   -4.665935    3.298495
     74          1           0      -24.056911   -5.852534    1.990995
     75          1           0      -25.532510   -4.843818    2.231131
     76          1           0      -20.826401   -3.451934   -1.734029
     77          1           0      -20.168338   -5.025057   -5.675727
     78          1           0      -21.383044   -6.029860   -4.809774
     79          1           0      -19.675651   -6.046775   -4.290048
     80         12           0       23.556034    0.635607   -0.739351
     81          6           0       22.718589   -2.646923    0.319960
     82          6           0       20.195405    1.468428   -0.315439
     83          6           0       24.551433    3.767635   -0.550336
     84          6           0       27.034234   -0.507029   -0.761284
     85          7           0       21.683040   -0.465527    0.190816
     86          6           0       21.571972   -1.814815    0.269548
     87          6           0       20.108183   -2.190814    0.413786
     88          6           0       19.365200   -1.082683   -0.332701
     89          6           0       20.455417    0.083803   -0.100880
     90          6           0       19.109807   -1.255523   -1.831114
     91          6           0       19.757317   -2.388576    1.952818
     92          6           0       18.949207   -3.602526    2.194089
     93          1           0       17.788648   -3.498388    3.202666
     94          7           0       22.528242    2.447556   -0.418621
     95          6           0       21.118930    2.577596   -0.348446
     96          6           0       20.845602    3.989358   -0.251534
     97          6           0       22.049743    4.726977   -0.402508
     98          6           0       23.133286    3.681414   -0.442505
     99          6           0       19.417029    4.494779   -0.076427
    100          6           0       22.184478    6.197988   -0.363386
    101          8           0       21.179160    6.878416   -0.200656
    102          6           0       23.451158    6.987820   -0.410627
    103          7           0       25.615267    1.492209   -0.567119
    104          6           0       25.654406    2.831304   -0.715640
    105          6           0       27.101407    3.313253   -0.924823
    106          6           0       27.927852    1.925980   -1.154252
    107          6           0       26.816055    0.886103   -0.859145
    108          6           0       27.270068    4.440158   -2.040712
    109          6           0       29.219970    1.762534   -0.294133
    110          6           0       29.122508    0.903271    1.012398
    111          7           0       24.647611   -1.110700   -0.340951
    112          6           0       26.032581   -1.418706   -0.462812
    113          6           0       26.206010   -2.931041   -0.334205
    114          6           0       24.937812   -3.369103    0.012217
    115          6           0       24.043190   -2.240229   -0.025620
    116          6           0       27.433902   -3.853691   -0.457591
    117          6           0       24.160421   -4.529826    0.310516
    118          8           0       24.476011   -5.720788    0.320834
    119          6           0       22.802769   -4.025714    0.648000
    120          6           0       22.725627   -4.234821    2.177680
    121          8           0       23.227331   -3.530803    3.051534
    122          8           0       22.021261   -5.450679    2.399569
    123          6           0       21.919867   -5.930504    3.717836
    124          1           0       19.147122    1.773974   -0.293940
    125          1           0       24.761683    4.833964   -0.654082
    126          1           0       28.014423   -0.968369   -0.893462
    127          1           0       19.841558   -3.100546   -0.123965
    128          1           0       18.377982   -0.760516   -0.003468
    129          1           0       19.182354   -2.287358   -2.173638
    130          1           0       19.645632   -0.509675   -2.418739
    131          1           0       18.052325   -1.001549   -1.912850
    132          1           0       19.159637   -1.539249    2.283939
    133          1           0       20.613673   -2.303022    2.621809
    134          1           0       19.711629   -4.310745    2.516514
    135          1           0       18.519634   -3.920277    1.244154
    136          1           0       19.004507    4.926229   -0.988237
    137          1           0       19.391025    5.178991    0.770416
    138          1           0       18.754490    3.670535    0.188099
    139          1           0       23.880704    6.881340   -1.407050
    140          1           0       24.205689    6.722531    0.330930
    141          1           0       23.255147    8.059291   -0.423139
    142          1           0       27.372740    3.696956    0.058436
    143          1           0       28.137950    1.821464   -2.218159
    144          1           0       26.340949    4.991287   -2.185294
    145          1           0       27.714274    4.173982   -3.000577
    146          1           0       28.110033    5.021908   -1.657857
    147          1           0       29.662397    2.720765   -0.023036
    148          1           0       29.882134    1.234572   -0.979925
    149          1           0       29.870864    1.469180    1.567699
    150          1           0       29.423930   -0.143287    0.963009
    151          1           0       28.126334    1.051978    1.429586
    152          1           0       27.281638   -4.605590   -1.231120
    153          1           0       27.290806   -4.379152    0.486128
    154          1           0       28.320556   -3.220158   -0.467952
    155          1           0       22.052455   -4.653431    0.167137
    156          1           0       21.379196   -6.872383    3.818773
    157          1           0       21.386944   -5.177474    4.297015
    158          1           0       22.950870   -6.058734    4.048736
 ---------------------------------------------------------------------

 SCF Done:  E(RCAM-B3LYP) =  -4069.75257941     A.U. after   19 cycles

 Excitation energies and oscillator strengths:

 Excited State   1:      Singlet-A      1.6842 eV  736.14 nm  f=0.3534  <S**2>=0.000
     309 -> 315        0.19724
     312 -> 313        0.68021
     309 <- 315        0.11212
 This state for optimization and/or second-order correction.
 Total Energy, E(TD-HF/TD-DFT) =  -4069.69068437
 Copying the excited state density for this state as the 1-particle RhoCI density.

 Excited State   2:      Singlet-A      1.7950 eV  690.73 nm  f=0.3735  <S**2>=0.000
     310 -> 316       -0.18880
     311 -> 314        0.68032
     310 <- 316       -0.10304

 Excited State   3:      Singlet-A      2.1693 eV  571.54 nm  f=0.0990  <S**2>=0.000
     310 -> 314        0.64308
     311 -> 316        0.27288

 Excited State   4:      Singlet-A      2.1915 eV  565.74 nm  f=0.0563  <S**2>=0.000
     309 -> 313        0.61457
     312 -> 315       -0.33937

 Excited State   5:      Singlet-A      3.2236 eV  384.61 nm  f=0.0000  <S**2>=0.000
     312 -> 314        0.70710

 The electronic state is 1-A.
 Alpha  occ. eigenvalues --  -46.91317 -46.88530 -19.24724 -19.23258 -19.21417
 Alpha  occ. eigenvalues --  -19.20296 -19.19567 -19.18928 -19.18356 -19.17590
 Alpha  occ. eigenvalues --  -14.42423 -14.41958 -14.41958 -14.41730 -14.40259
 Alpha  occ. eigenvalues --  -14.39777 -14.39734 -14.37994 -10.40608 -10.38539
 Alpha  occ. eigenvalues --  -10.36786 -10.34804 -10.34577 -10.34143 -10.32205
 Alpha  occ. eigenvalues --  -10.31846 -10.31539 -10.31444 -10.31418 -10.31323
 Alpha  occ. eigenvalues --  -10.31066 -10.30990 -10.30875 -10.30847 -10.30805
 Alpha  occ. eigenvalues --  -10.30625 -10.30601 -10.30096 -10.30086 -10.29723
 Alpha  occ. eigenvalues --  -10.29483 -10.29408 -10.29198 -10.28796 -10.28536
 Alpha  occ. eigenvalues --  -10.28428 -10.28388 -10.28215 -10.28201 -10.28179
 Alpha  occ. eigenvalues --  -10.28163 -10.28081 -10.27970 -10.27923 -10.27882
 Alpha  occ. eigenvalues --  -10.27846 -10.27684 -10.27680 -10.27623 -10.27622
 Alpha  occ. eigenvalues --  -10.27616 -10.27583 -10.27571 -10.27378 -10.27370
 Alpha  occ. eigenvalues --  -10.27178 -10.27122 -10.27110 -10.26888 -10.26797
 Alpha  occ. eigenvalues --  -10.26688 -10.26377 -10.26249 -10.26211 -10.26146
 Alpha  occ. eigenvalues --  -10.26068 -10.25969 -10.25863 -10.25855 -10.25787
 Alpha  occ. eigenvalues --  -10.25683 -10.25608 -10.25438 -10.25289 -10.24993
 Alpha  occ. eigenvalues --  -10.24414  -3.19516  -3.16990  -1.94358  -1.94024
 Alpha  occ. eigenvalues --   -1.93772  -1.91903  -1.91447  -1.91287  -1.15834
 Alpha  occ. eigenvalues --   -1.15193  -1.10474  -1.09615  -1.09533  -1.09374
 Alpha  occ. eigenvalues --   -1.08666  -1.06989  -1.05097  -1.04510  -1.04217
 Alpha  occ. eigenvalues --   -1.03465  -1.02852  -1.01684  -1.01291  -1.00960
 Alpha  occ. eigenvalues --   -0.94394  -0.91807  -0.89273  -0.89186  -0.88892
 Alpha  occ. eigenvalues --   -0.88737  -0.87816  -0.87737  -0.87585  -0.87282
 Alpha  occ. eigenvalues --   -0.87226  -0.86864  -0.85587  -0.85431  -0.84794
 Alpha  occ. eigenvalues --   -0.83973  -0.83678  -0.83676  -0.82857  -0.82718
 Alpha  occ. eigenvalues --   -0.81688  -0.81657  -0.80871  -0.80664  -0.80287
 Alpha  occ. eigenvalues --   -0.79857  -0.78590  -0.78051  -0.77286  -0.77179
 Alpha  occ. eigenvalues --   -0.76893  -0.76369  -0.76017  -0.75390  -0.75221
 Alpha  occ. eigenvalues --   -0.75140  -0.72762  -0.72497  -0.71855  -0.71687
 Alpha  occ. eigenvalues --   -0.69932  -0.69818  -0.68728  -0.68612  -0.67332
 Alpha  occ. eigenvalues --   -0.67243  -0.66882  -0.66621  -0.66034  -0.65357
 Alpha  occ. eigenvalues --   -0.65185  -0.64984  -0.64726  -0.64558  -0.64515
 Alpha  occ. eigenvalues --   -0.63456  -0.62226  -0.61040  -0.60194  -0.59945
 Alpha  occ. eigenvalues --   -0.59782  -0.59286  -0.59093  -0.58914  -0.58592
 Alpha  occ. eigenvalues --   -0.58275  -0.58046  -0.57532  -0.57051  -0.56821
 Alpha  occ. eigenvalues --   -0.56447  -0.56214  -0.55973  -0.55654  -0.55427
 Alpha  occ. eigenvalues --   -0.55071  -0.54962  -0.54571  -0.54257  -0.53691
 Alpha  occ. eigenvalues --   -0.53670  -0.53406  -0.53191  -0.53108  -0.53047
 Alpha  occ. eigenvalues --   -0.52815  -0.52654  -0.52193  -0.52169  -0.52010
 Alpha  occ. eigenvalues --   -0.51977  -0.51722  -0.51683  -0.51405  -0.51354
 Alpha  occ. eigenvalues --   -0.51318  -0.51190  -0.50899  -0.50567  -0.50499
 Alpha  occ. eigenvalues --   -0.50197  -0.50166  -0.50022  -0.49980  -0.49416
 Alpha  occ. eigenvalues --   -0.49272  -0.49242  -0.48963  -0.48930  -0.48642
 Alpha  occ. eigenvalues --   -0.48491  -0.48322  -0.48279  -0.48015  -0.47828
 Alpha  occ. eigenvalues --   -0.47771  -0.47511  -0.47483  -0.47307  -0.47181
 Alpha  occ. eigenvalues --   -0.47011  -0.46862  -0.46549  -0.46482  -0.46142
 Alpha  occ. eigenvalues --   -0.46107  -0.45959  -0.45914  -0.45882  -0.45551
 Alpha  occ. eigenvalues --   -0.45449  -0.45438  -0.45315  -0.45158  -0.45033
 Alpha  occ. eigenvalues --   -0.44867  -0.44582  -0.44462  -0.44243  -0.44150
 Alpha  occ. eigenvalues --   -0.43933  -0.43805  -0.43710  -0.43489  -0.43320
 Alpha  occ. eigenvalues --   -0.43318  -0.43065  -0.43016  -0.42728  -0.42591
 Alpha  occ. eigenvalues --   -0.42344  -0.42246  -0.42055  -0.42003  -0.41681
 Alpha  occ. eigenvalues --   -0.41613  -0.41543  -0.41347  -0.41313  -0.41140
 Alpha  occ. eigenvalues --   -0.41022  -0.40989  -0.40967  -0.40440  -0.40127
 Alpha  occ. eigenvalues --   -0.40097  -0.39991  -0.39185  -0.39049  -0.38778
 Alpha  occ. eigenvalues --   -0.38571  -0.38281  -0.37937  -0.37714  -0.37649
 Alpha  occ. eigenvalues --   -0.37551  -0.36528  -0.36369  -0.36338  -0.35783
 Alpha  occ. eigenvalues --   -0.35745  -0.35395  -0.35229  -0.34230  -0.34163
 Alpha  occ. eigenvalues --   -0.33786  -0.33360  -0.33091  -0.31892  -0.31477
 Alpha  occ. eigenvalues --   -0.31180  -0.30823  -0.30580  -0.30466  -0.30230
 Alpha  occ. eigenvalues --   -0.29912  -0.29492  -0.28291  -0.24063  -0.23717
 Alpha  occ. eigenvalues --   -0.21319  -0.21051
 Alpha virt. eigenvalues --   -0.08544  -0.08479  -0.02629  -0.02016  -0.00618
 Alpha virt. eigenvalues --   -0.00115   0.00120   0.02156   0.02729   0.03019
 Alpha virt. eigenvalues --    0.04694   0.04830   0.05153   0.05776   0.05883

 Mulliken charges:
               1
     1  Mg   0.811742
     2  C    0.065918
     3  C   -0.080737
     4  C   -0.049821
     5  C   -0.080334
     6  N   -0.243703
     7  C   -0.044112
     8  C   -0.078555
     9  C   -0.052576
    10  C    0.070654
    11  C    0.081541
    12  C    0.031117
    13  C   -0.039724
    14  H    0.027218
    15  N   -0.472425
    16  C    0.156178
    17  C   -0.129855
    18  C   -0.044020
    19  C    0.185464
    20  C    0.083031
    21  C    0.032498
    22  O   -0.206808
    23  C    0.049065
    24  N   -0.232691
    25  C   -0.065524
    26  C    0.007716
    27  C   -0.051210
    28  C    0.034437
    29  C    0.080383
    30  C    0.038153
    31  C   -0.000216
    32  N   -0.356300
    33  C    0.124450
    34  C   -0.178847
    35  C    0.006964
    36  C    0.040651
    37  C    0.124964
    38  C    0.058947
    39  O   -0.165417
    40  C   -0.025049
    41  C    0.157035
    42  O   -0.178251
    43  O   -0.379228
    44  C    0.174380
    45  H   -0.025469
    46  H   -0.012902
    47  H   -0.046852
    48  H    0.010048
    49  H    0.009991
    50  H    0.016356
    51  H    0.011427
    52  H    0.026188
    53  H    0.000545
    54  H    0.030968
    55  H    0.019269
    56  H    0.041692
    57  H    0.019243
    58  H    0.042664
    59  H    0.038259
    60  H    0.056921
    61  H    0.022343
    62  H    0.039048
    63  H    0.015464
    64  H    0.015292
    65  H    0.024429
    66  H    0.009858
    67  H    0.034415
    68  H    0.006788
    69  H   -0.002337
    70  H    0.016802
    71  H    0.017334
    72  H    0.022489
    73  H    0.015609
    74  H    0.033863
    75  H    0.028232
    76  H    0.049801
    77  H    0.034567
    78  H    0.052968
    79  H    0.037585
    80  Mg   0.808528
    81  C    0.026513
    82  C   -0.060751
    83  C   -0.021877
    84  C   -0.054817
    85  N   -0.238531
    86  C   -0.066680
    87  C   -0.007313
    88  C   -0.085896
    89  C    0.025299
    90  C    0.085418
    91  C    0.072671
    92  C   -0.063572
    93  H    0.018184
    94  N   -0.411434
    95  C    0.127346
    96  C   -0.147935
    97  C    0.024168
    98  C    0.084036
    99  C    0.141735
   100  C   -0.053926
   101  O   -0.216917
   102  C    0.078841
   103  N   -0.260298
   104  C    0.038666
   105  C   -0.046171
   106  C    0.025427
   107  C   -0.014235
   108  C    0.052467
   109  C    0.002682
   110  C    0.007462
   111  N   -0.333231
   112  C    0.096741
   113  C   -0.206547
   114  C    0.019534
   115  C    0.125924
   116  C    0.134632
   117  C    0.005937
   118  O   -0.180124
   119  C    0.016397
   120  C    0.215307
   121  O   -0.202557
   122  O   -0.345876
   123  C    0.186826
   124  H   -0.020657
   125  H   -0.066458
   126  H   -0.026110
   127  H   -0.009628
   128  H    0.002552
   129  H    0.020049
   130  H    0.025884
   131  H    0.005824
   132  H    0.007746
   133  H    0.031955
   134  H    0.024956
   135  H    0.024308
   136  H    0.034524
   137  H    0.037872
   138  H   -0.012203
   139  H    0.019229
   140  H    0.050500
   141  H    0.019647
   142  H    0.023820
   143  H    0.010337
   144  H    0.032466
   145  H    0.011779
   146  H    0.010040
   147  H    0.015630
   148  H    0.005376
   149  H    0.012270
   150  H    0.025470
   151  H    0.040070
   152  H    0.049527
   153  H    0.045740
   154  H    0.017032
   155  H    0.029910
   156  H    0.038735
   157  H    0.024811
   158  H    0.034946
 Sum of Mulliken charges =  -0.00000

 Dipole moment (field-independent basis, Debye):
    X=              2.1078    Y=              5.8000    Z=             -3.3110  Tot=              7.0033
 Quadrupole moment (field-independent basis, Debye-Ang):
   XX=           -394.8127   YY=           -555.3847   ZZ=           -491.5198
   XY=            -98.9427   XZ=            -98.4230   YZ=            -26.7094

 Normal termination of Gaussian 16 at Wed Sep 15 01:59:55 2021.
