 Gaussian 16, Revision A.03,
 Gaussian 16:  ES64L-G16RevA.03 25-Dec-2016

 ----------------------------------------------------------
 #p cam-b3lyp/Def2SVP td=(nstates=5) density=(transition=1)
 ----------------------------------------------------------

 --------------------------------
 TDDFT excited states in gaussian
 --------------------------------
 Symbolic Z-matrix:
 Charge =  0 Multiplicity = 1

                         Standard orientation:
 ---------------------------------------------------------------------
 Center     Atomic      Atomic             Coordinates (Angstroms)
 Number     Number       Type             X           Y           Z
 ---------------------------------------------------------------------
      1         12           0       -8.896404   -1.088403    0.576916
      2          6           0      -10.014590    2.174030   -0.218528
      3          6           0       -6.969998    0.265230    2.994745
      4          6           0       -7.794152   -4.112260    1.176612
      5          6           0      -10.420940   -2.178419   -2.481760
      6          7           0       -8.429552    1.033244    1.273020
      7          6           0       -9.216368    2.124186    0.943563
      8          6           0       -8.904536    3.195590    1.931827
      9          6           0       -7.574618    2.773951    2.557411
     10          6           0       -7.626529    1.246334    2.304836
     11          6           0       -6.361498    3.422029    1.790572
     12          6           0      -10.028227    3.495571    3.063162
     13          6           0      -10.378496    4.962317    3.460433
     14          1           0       -9.183658    5.903434    3.789251
     15          7           0       -7.529693   -1.795148    1.929565
     16          6           0       -6.887477   -1.092452    2.815485
     17          6           0       -5.992080   -1.995102    3.559647
     18          6           0       -6.353462   -3.331603    3.210487
     19          6           0       -7.250492   -3.130035    2.037305
     20          6           0       -4.869075   -1.629519    4.597248
     21          6           0       -5.954572   -4.681564    3.805764
     22          8           0       -6.262820   -5.783661    3.313298
     23          6           0       -4.989181   -4.698157    4.893976
     24          7           0       -8.965880   -2.888367   -0.652286
     25          6           0       -8.504503   -4.071029   -0.080254
     26          6           0       -8.989234   -5.286717   -0.960815
     27          6           0       -9.919930   -4.620713   -2.004758
     28          6           0       -9.805333   -3.129251   -1.681789
     29          6           0       -7.835361   -6.138179   -1.491062
     30          6           0      -11.362054   -5.180707   -2.091393
     31          6           0      -11.997742   -5.320191   -3.494318
     32          7           0       -9.978736   -0.235057   -1.047488
     33          6           0      -10.483619   -0.773528   -2.226827
     34          6           0      -11.268757    0.235177   -2.891683
     35          6           0      -11.063827    1.412740   -2.171062
     36          6           0      -10.275996    1.102501   -1.028391
     37          6           0      -12.087365    0.064355   -4.019057
     38          6           0      -11.413206    2.836791   -2.061473
     39          8           0      -12.129172    3.568584   -2.726495
     40          6           0      -10.750914    3.379064   -0.752775
     41          6           0       -9.873825    4.554713   -1.144954
     42          8           0       -8.743935    4.645065   -1.568970
     43          8           0      -10.657565    5.615356   -0.792888
     44          6           0      -10.015519    6.948674   -0.706140
     45          1           0       -6.409471    0.677104    3.836998
     46          1           0       -7.570390   -5.119480    1.534053
     47          1           0      -11.071566   -2.530533   -3.284403
     48          1           0       -8.758958    4.195749    1.522913
     49          1           0       -7.566451    2.881922    3.641746
     50          1           0       -5.503675    3.640945    2.425534
     51          1           0       -6.585016    4.410770    1.389159
     52          1           0       -6.057252    2.669575    1.063812
     53          1           0       -9.816797    2.895455    3.947568
     54          1           0      -10.978438    3.056523    2.756868
     55          1           0      -10.902478    4.822714    4.406674
     56          1           0      -10.979234    5.281442    2.608711
     57          1           0       -5.077363   -1.910643    5.629320
     58          1           0       -4.727469   -0.549827    4.541549
     59          1           0       -3.921819   -2.151007    4.459669
     60          1           0       -5.318044   -4.062382    5.716433
     61          1           0       -4.009433   -4.368886    4.547658
     62          1           0       -5.026700   -5.695268    5.331591
     63          1           0       -9.660826   -5.864936   -0.326030
     64          1           0       -9.457151   -4.630272   -2.991405
     65          1           0       -7.510865   -5.738722   -2.452479
     66          1           0       -8.100170   -7.170569   -1.717184
     67          1           0       -6.952520   -5.958516   -0.878422
     68          1           0      -12.074591   -4.675404   -1.439609
     69          1           0      -11.420169   -6.175804   -1.648324
     70          1           0      -12.609272   -4.423703   -3.597540
     71          1           0      -12.667007   -6.176968   -3.409757
     72          1           0      -11.220168   -5.391352   -4.254360
     73          1           0      -12.337324    0.919558   -4.646546
     74          1           0      -12.990302   -0.440850   -3.674725
     75          1           0      -11.527123   -0.594060   -4.681938
     76          1           0      -11.520549    3.680141   -0.042299
     77          1           0      -10.412620    7.384199    0.210324
     78          1           0      -10.234018    7.642575   -1.517446
     79          1           0       -8.936982    6.835835   -0.599198
     80         12           0        9.118364   -0.348720   -0.102871
     81          6           0        7.386367    2.663025   -0.109888
     82          6           0       11.953389    1.415097    0.687528
     83          6           0       10.906515   -3.291035   -0.348228
     84          6           0        6.355489   -1.994635   -1.447516
     85          7           0        9.565603    1.779899    0.337781
     86          6           0        8.709639    2.814786    0.388408
     87          6           0        9.312932    4.130791    0.932281
     88          6           0       10.858844    3.765567    0.957482
     89          6           0       10.837411    2.203606    0.595407
     90          6           0       11.618119    4.680886   -0.068023
     91          6           0        8.658373    4.385778    2.385822
     92          6           0        7.984026    5.770971    2.611866
     93          1           0        8.467266    6.888126    1.617791
     94          7           0       11.139891   -0.901207    0.054721
     95          6           0       12.147291   -0.011065    0.480741
     96          6           0       13.349269   -0.768606    0.756976
     97          6           0       13.092388   -2.103888    0.421188
     98          6           0       11.622190   -2.180410    0.086176
     99          6           0       14.689320   -0.066895    1.019733
    100          6           0       14.081842   -3.299216    0.429309
    101          8           0       13.792346   -4.471394    0.124681
    102          6           0       15.517798   -3.049107    0.921356
    103          7           0        8.663898   -2.323071   -0.884138
    104          6           0        9.616954   -3.383021   -0.795725
    105          6           0        9.083857   -4.644306   -1.506910
    106          6           0        7.525892   -4.292175   -1.594811
    107          6           0        7.498203   -2.781200   -1.244672
    108          6           0        9.840780   -4.850644   -2.808534
    109          6           0        6.681104   -5.124106   -0.540167
    110          6           0        6.978599   -5.204586    0.995934
    111          7           0        7.291103    0.182008   -0.742036
    112          6           0        6.250997   -0.575411   -1.289418
    113          6           0        5.131274    0.276047   -1.528955
    114          6           0        5.497210    1.522473   -1.053792
    115          6           0        6.860660    1.464346   -0.673046
    116          6           0        3.829903   -0.085293   -2.215418
    117          6           0        5.037539    2.840682   -0.862336
    118          8           0        3.997889    3.298656   -1.215709
    119          6           0        6.294015    3.658721   -0.348983
    120          6           0        6.635173    4.627150   -1.447592
    121          8           0        7.585636    4.502284   -2.191314
    122          8           0        5.693812    5.578389   -1.449685
    123          6           0        5.630964    6.303857   -2.694824
    124          1           0       12.843608    1.953893    1.017955
    125          1           0       11.528946   -4.136685   -0.645851
    126          1           0        5.484627   -2.493198   -1.879410
    127          1           0        9.106519    5.017445    0.333139
    128          1           0       11.334860    3.854341    1.934292
    129          1           0       12.360207    4.170506   -0.682418
    130          1           0       12.074214    5.373617    0.638660
    131          1           0       10.856450    5.233461   -0.617619
    132          1           0        9.418472    4.138389    3.126572
    133          1           0        7.895356    3.618761    2.520700
    134          1           0        8.286264    5.980683    3.637340
    135          1           0        6.895200    5.765370    2.571218
    136          1           0       15.393736   -0.436834    0.274292
    137          1           0       15.079251   -0.385522    1.987379
    138          1           0       14.556681    1.013710    0.976819
    139          1           0       16.023838   -2.482932    0.138296
    140          1           0       15.997429   -4.027730    0.929891
    141          1           0       15.494405   -2.710724    1.956948
    142          1           0        9.195151   -5.441254   -0.771085
    143          1           0        7.131043   -4.603200   -2.561328
    144          1           0       10.857091   -4.457371   -2.779966
    145          1           0        9.317824   -4.371871   -3.636105
    146          1           0        9.972005   -5.912649   -3.014941
    147          1           0        6.595594   -6.142995   -0.917995
    148          1           0        5.717026   -4.615866   -0.560448
    149          1           0        7.678227   -6.023309    1.164801
    150          1           0        6.017124   -5.419579    1.463712
    151          1           0        7.285805   -4.274710    1.475598
    152          1           0        3.295607   -0.880455   -1.695157
    153          1           0        4.145798   -0.443518   -3.194996
    154          1           0        3.061369    0.688913   -2.209814
    155          1           0        6.174523    4.262453    0.550825
    156          1           0        4.634441    6.666877   -2.945242
    157          1           0        6.109105    5.930161   -3.600160
    158          1           0        6.196235    7.235992   -2.682114
 ---------------------------------------------------------------------

 SCF Done:  E(RCAM-B3LYP) =  -4069.80861119     A.U. after   18 cycles

 Excitation energies and oscillator strengths:

 Excited State   1:      Singlet-A      1.7041 eV  727.56 nm  f=0.4705  <S**2>=0.000
     310 -> 316       -0.17450
     311 -> 313        0.68213
     310 <- 316       -0.10581
 This state for optimization and/or second-order correction.
 Total Energy, E(TD-HF/TD-DFT) =  -4069.74598671
 Copying the excited state density for this state as the 1-particle RhoCI density.

 Excited State   2:      Singlet-A      1.7330 eV  715.43 nm  f=0.3122  <S**2>=0.000
     309 -> 315       -0.18926
     312 -> 314        0.67717
     309 <- 315       -0.10680

 Excited State   3:      Singlet-A      2.2270 eV  556.73 nm  f=0.1171  <S**2>=0.000
     310 -> 313        0.64592
     311 -> 316        0.27554

 Excited State   4:      Singlet-A      2.2613 eV  548.28 nm  f=0.0725  <S**2>=0.000
     309 -> 314        0.62147
     312 -> 315        0.32181

 Excited State   5:      Singlet-A      2.8386 eV  436.79 nm  f=0.0000  <S**2>=0.000
     312 -> 313        0.70691

 The electronic state is 1-A.
 Alpha  occ. eigenvalues --  -46.89336 -46.88066 -19.26119 -19.24308 -19.20037
 Alpha  occ. eigenvalues --  -19.19977 -19.19336 -19.19243 -19.18645 -19.18600
 Alpha  occ. eigenvalues --  -14.42231 -14.41745 -14.41420 -14.41387 -14.39826
 Alpha  occ. eigenvalues --  -14.39542 -14.39044 -14.38920 -10.39297 -10.39181
 Alpha  occ. eigenvalues --  -10.35511 -10.35109 -10.34804 -10.34778 -10.31668
 Alpha  occ. eigenvalues --  -10.31589 -10.31401 -10.31305 -10.30776 -10.30719
 Alpha  occ. eigenvalues --  -10.30652 -10.30335 -10.30312 -10.30140 -10.29999
 Alpha  occ. eigenvalues --  -10.29951 -10.29912 -10.29826 -10.29812 -10.29645
 Alpha  occ. eigenvalues --  -10.29620 -10.29512 -10.29425 -10.28869 -10.28516
 Alpha  occ. eigenvalues --  -10.28391 -10.28178 -10.28122 -10.28120 -10.27877
 Alpha  occ. eigenvalues --  -10.27877 -10.27837 -10.27683 -10.27673 -10.27646
 Alpha  occ. eigenvalues --  -10.27641 -10.27580 -10.27525 -10.27484 -10.27445
 Alpha  occ. eigenvalues --  -10.27314 -10.27293 -10.27150 -10.27049 -10.26996
 Alpha  occ. eigenvalues --  -10.26717 -10.26698 -10.26675 -10.26660 -10.26517
 Alpha  occ. eigenvalues --  -10.26508 -10.26353 -10.26205 -10.26167 -10.26047
 Alpha  occ. eigenvalues --  -10.25805 -10.25786 -10.25778 -10.25627 -10.25615
 Alpha  occ. eigenvalues --  -10.25608 -10.25237 -10.25226 -10.25189 -10.24762
 Alpha  occ. eigenvalues --  -10.24662  -3.17723  -3.16668  -1.92620  -1.92180
 Alpha  occ. eigenvalues --   -1.92015  -1.91568  -1.91101  -1.90990  -1.18126
 Alpha  occ. eigenvalues --   -1.16063  -1.11990  -1.09553  -1.09351  -1.09052
 Alpha  occ. eigenvalues --   -1.08320  -1.07707  -1.05118  -1.04140  -1.03900
 Alpha  occ. eigenvalues --   -1.03305  -1.03023  -1.02694  -1.02036  -1.01148
 Alpha  occ. eigenvalues --   -0.92782  -0.92728  -0.88853  -0.88518  -0.88441
 Alpha  occ. eigenvalues --   -0.88129  -0.87946  -0.87738  -0.87529  -0.87099
 Alpha  occ. eigenvalues --   -0.87059  -0.86851  -0.86482  -0.86001  -0.84192
 Alpha  occ. eigenvalues --   -0.83913  -0.83563  -0.83389  -0.82688  -0.82454
 Alpha  occ. eigenvalues --   -0.82275  -0.81465  -0.81176  -0.80894  -0.80559
 Alpha  occ. eigenvalues --   -0.79919  -0.78358  -0.77695  -0.77424  -0.77092
 Alpha  occ. eigenvalues --   -0.76987  -0.76722  -0.75840  -0.75818  -0.75076
 Alpha  occ. eigenvalues --   -0.74941  -0.72939  -0.72472  -0.71778  -0.71165
 Alpha  occ. eigenvalues --   -0.68877  -0.68866  -0.68725  -0.68631  -0.67969
 Alpha  occ. eigenvalues --   -0.67665  -0.67329  -0.66357  -0.65835  -0.65446
 Alpha  occ. eigenvalues --   -0.65275  -0.65004  -0.64530  -0.64465  -0.64289
 Alpha  occ. eigenvalues --   -0.63922  -0.62364  -0.61895  -0.60455  -0.59981
 Alpha  occ. eigenvalues --   -0.59562  -0.59384  -0.59198  -0.58943  -0.58397
 Alpha  occ. eigenvalues --   -0.58286  -0.57985  -0.57899  -0.57467  -0.57236
 Alpha  occ. eigenvalues --   -0.56240  -0.56125  -0.55863  -0.55663  -0.55164
 Alpha  occ. eigenvalues --   -0.54877  -0.54419  -0.54369  -0.53952  -0.53664
 Alpha  occ. eigenvalues --   -0.53531  -0.53353  -0.53224  -0.53190  -0.53110
 Alpha  occ. eigenvalues --   -0.52912  -0.52577  -0.52387  -0.52199  -0.52085
 Alpha  occ. eigenvalues --   -0.51982  -0.51831  -0.51720  -0.51655  -0.51540
 Alpha  occ. eigenvalues --   -0.51171  -0.50947  -0.50776  -0.50590  -0.50376
 Alpha  occ. eigenvalues --   -0.49942  -0.49877  -0.49796  -0.49581  -0.49487
 Alpha  occ. eigenvalues --   -0.49331  -0.49152  -0.48950  -0.48827  -0.48778
 Alpha  occ. eigenvalues --   -0.48580  -0.48313  -0.48143  -0.47933  -0.47725
 Alpha  occ. eigenvalues --   -0.47636  -0.47460  -0.47341  -0.47106  -0.47105
 Alpha  occ. eigenvalues --   -0.46866  -0.46644  -0.46612  -0.46254  -0.46217
 Alpha  occ. eigenvalues --   -0.46157  -0.45878  -0.45705  -0.45563  -0.45512
 Alpha  occ. eigenvalues --   -0.45150  -0.44991  -0.44923  -0.44883  -0.44658
 Alpha  occ. eigenvalues --   -0.44617  -0.44532  -0.44321  -0.44297  -0.44014
 Alpha  occ. eigenvalues --   -0.43825  -0.43728  -0.43660  -0.43587  -0.43384
 Alpha  occ. eigenvalues --   -0.43032  -0.42998  -0.42983  -0.42932  -0.42683
 Alpha  occ. eigenvalues --   -0.42638  -0.42369  -0.42257  -0.42131  -0.41910
 Alpha  occ. eigenvalues --   -0.41896  -0.41738  -0.41492  -0.41304  -0.41192
 Alpha  occ. eigenvalues --   -0.40837  -0.40794  -0.40673  -0.40502  -0.40266
 Alpha  occ. eigenvalues --   -0.40215  -0.39811  -0.39588  -0.39545  -0.39140
 Alpha  occ. eigenvalues --   -0.38750  -0.37671  -0.37628  -0.37452  -0.37358
 Alpha  occ. eigenvalues --   -0.37071  -0.37040  -0.36483  -0.36450  -0.36398
 Alpha  occ. eigenvalues --   -0.36100  -0.35892  -0.34775  -0.34612  -0.34077
 Alpha  occ. eigenvalues --   -0.33864  -0.33067  -0.32649  -0.31671  -0.31625
 Alpha  occ. eigenvalues --   -0.31138  -0.30940  -0.30529  -0.30430  -0.30425
 Alpha  occ. eigenvalues --   -0.30248  -0.29570  -0.29223  -0.23934  -0.23752
 Alpha  occ. eigenvalues --   -0.20960  -0.20935
 Alpha virt. eigenvalues --   -0.08531  -0.08245  -0.02027  -0.01325  -0.00108
 Alpha virt. eigenvalues --    0.00578   0.01783   0.02351   0.02495   0.02563
 Alpha virt. eigenvalues --    0.04528   0.05239   0.05822   0.06017   0.06146

 Mulliken charges:
               1
     1  Mg  12.000029
     2  C    6.002627
     3  C    5.997692
     4  C    5.997916
     5  C    6.002134
     6  N    6.999860
     7  C    5.996287
     8  C    6.001331
     9  C    5.999332
    10  C    6.003757
    11  C    5.999958
    12  C    6.000606
    13  C    6.000068
    14  H    0.999258
    15  N    6.998526
    16  C    6.005185
    17  C    6.003338
    18  C    6.001152
    19  C    6.004915
    20  C    5.999470
    21  C    6.001478
    22  O    8.002522
    23  C    5.999355
    24  N    7.000589
    25  C    6.004729
    26  C    5.998776
    27  C    6.000879
    28  C    5.996472
    29  C    5.999363
    30  C    6.000868
    31  C    6.000057
    32  N    7.000772
    33  C    5.995302
    34  C    5.996837
    35  C    5.999409
    36  C    5.995837
    37  C    6.000720
    38  C    5.998043
    39  O    7.996115
    40  C    5.999726
    41  C    5.999771
    42  O    7.999742
    43  O    7.999790
    44  C    6.000366
    45  H    1.000775
    46  H    1.000482
    47  H    0.998821
    48  H    0.999538
    49  H    0.999360
    50  H    1.000574
    51  H    1.001314
    52  H    1.001033
    53  H    0.998050
    54  H    0.999949
    55  H    0.999042
    56  H    1.000420
    57  H    1.001654
    58  H    1.002904
    59  H    1.003181
    60  H    1.000231
    61  H    1.001806
    62  H    1.000910
    63  H    0.999797
    64  H    1.000303
    65  H    1.001579
    66  H    1.000283
    67  H    0.999835
    68  H    0.999687
    69  H    0.998385
    70  H    1.000701
    71  H    0.999023
    72  H    0.999861
    73  H    0.997871
    74  H    0.996889
    75  H    0.998008
    76  H    0.998581
    77  H    0.998999
    78  H    0.999293
    79  H    0.999899
    80  Mg  11.997246
    81  C    6.022899
    82  C    5.982291
    83  C    5.973964
    84  C    6.002574
    85  N    7.006583
    86  C    5.967896
    87  C    6.010071
    88  C    5.991068
    89  C    6.030057
    90  C    5.996259
    91  C    6.004427
    92  C    6.002359
    93  H    0.995718
    94  N    6.991631
    95  C    6.051620
    96  C    6.015180
    97  C    6.017653
    98  C    6.044555
    99  C    5.996588
   100  C    6.012928
   101  O    8.030396
   102  C    5.993725
   103  N    6.989832
   104  C    6.035823
   105  C    5.991104
   106  C    6.011245
   107  C    5.975251
   108  C    5.995505
   109  C    6.007260
   110  C    5.995880
   111  N    7.007965
   112  C    5.963167
   113  C    5.969250
   114  C    5.999834
   115  C    5.963205
   116  C    6.000695
   117  C    5.983332
   118  O    7.971630
   119  C    5.997995
   120  C    5.998244
   121  O    7.990599
   122  O    8.000879
   123  C    6.005400
   124  H    1.011252
   125  H    1.004039
   126  H    0.987452
   127  H    0.999358
   128  H    1.000125
   129  H    0.996012
   130  H    1.005023
   131  H    1.013590
   132  H    0.987444
   133  H    1.004020
   134  H    0.995494
   135  H    1.003503
   136  H    1.016989
   137  H    1.018869
   138  H    1.018402
   139  H    1.008560
   140  H    1.015499
   141  H    1.007611
   142  H    0.998886
   143  H    0.996187
   144  H    0.991471
   145  H    1.012372
   146  H    1.005107
   147  H    0.990276
   148  H    1.006070
   149  H    0.991349
   150  H    1.001055
   151  H    0.998256
   152  H    0.979705
   153  H    0.982969
   154  H    0.985528
   155  H    0.989061
   156  H    0.997299
   157  H    0.996980
   158  H    0.992403
 Sum of Mulliken charges = 624.00000

 Dipole moment (field-independent basis, Debye):
    X=             11.2010    Y=             -3.2772    Z=              3.0654  Tot=             12.0664
 Quadrupole moment (field-independent basis, Debye-Ang):
   XX=            178.7241   YY=             -0.5820   ZZ=             -2.1665
   XY=            -24.6396   XZ=             10.6036   YZ=             -0.7103

 Normal termination of Gaussian 16 at Wed Sep 22 14:10:31 2021.
