 Gaussian 16, Revision A.03,
 Gaussian 16:  ES64L-G16RevA.03 25-Dec-2016

 -----------------------------------
 #p cam-b3lyp/Def2SVP td=(nstates=5)
 -----------------------------------

 --------------------------------
 TDDFT excited states in gaussian
 --------------------------------
 Symbolic Z-matrix:
 Charge =  0 Multiplicity = 1

                         Standard orientation:
 ---------------------------------------------------------------------
 Center     Atomic      Atomic             Coordinates (Angstroms)
 Number     Number       Type             X           Y           Z
 ---------------------------------------------------------------------
      1         12           0      -30.164645    0.133683    0.435084
      2          6           0      -27.606059   -1.542070   -1.119030
      3          6           0      -31.700953    0.483425   -2.610382
      4          6           0      -32.704454    1.927795    1.970884
      5          6           0      -28.364926    0.139852    3.398416
      6          7           0      -29.694761   -0.418125   -1.688517
      7          6           0      -28.613181   -1.184664   -2.017196
      8          6           0      -28.606820   -1.497054   -3.434992
      9          6           0      -29.766977   -0.713601   -4.028506
     10          6           0      -30.452411   -0.126671   -2.717986
     11          6           0      -29.461688    0.396852   -5.092287
     12          6           0      -28.689488   -3.040834   -3.688837
     13          6           0      -27.942891   -3.596660   -4.950431
     14          1           0      -27.782440   -2.643205   -6.150771
     15          7           0      -32.013015    0.970144   -0.245233
     16          6           0      -32.450830    0.979908   -1.558489
     17          6           0      -33.755648    1.669089   -1.621431
     18          6           0      -34.073535    2.101130   -0.261988
     19          6           0      -32.936321    1.656191    0.562205
     20          6           0      -34.552583    1.897165   -2.895476
     21          6           0      -35.352349    2.740686    0.226285
     22          8           0      -35.486088    2.972001    1.440802
     23          6           0      -36.476003    3.157757   -0.646934
     24          7           0      -30.469492    0.997010    2.383480
     25          6           0      -31.596370    1.615108    2.748517
     26          6           0      -31.593340    1.907859    4.258156
     27          6           0      -30.295548    1.110423    4.824338
     28          6           0      -29.708405    0.647309    3.444643
     29          6           0      -31.592803    3.442037    4.539699
     30          6           0      -30.605081   -0.113040    5.729953
     31          6           0      -30.211360    0.035498    7.207216
     32          7           0      -28.313002   -0.490045    1.056899
     33          6           0      -27.688134   -0.412641    2.303726
     34          6           0      -26.351982   -1.045796    2.244110
     35          6           0      -26.313130   -1.473058    0.895867
     36          6           0      -27.510157   -1.106988    0.224183
     37          6           0      -25.391063   -1.228730    3.313071
     38          6           0      -25.513830   -2.259684   -0.066157
     39          8           0      -24.477488   -2.857012    0.056053
     40          6           0      -26.313016   -2.290123   -1.417472
     41          6           0      -25.431063   -1.803182   -2.490235
     42          8           0      -25.128762   -0.600727   -2.555400
     43          8           0      -25.114948   -2.728701   -3.437151
     44          6           0      -24.416829   -2.289518   -4.641272
     45          1           0      -32.164351    0.576552   -3.594790
     46          1           0      -33.495787    2.525612    2.428430
     47          1           0      -27.894132    0.053528    4.379820
     48          1           0      -27.671907   -1.123999   -3.854584
     49          1           0      -30.548077   -1.379460   -4.397247
     50          1           0      -28.447483    0.600443   -5.437390
     51          1           0      -29.861686    1.337974   -4.715733
     52          1           0      -30.037541    0.287441   -6.011598
     53          1           0      -29.732240   -3.358202   -3.674998
     54          1           0      -28.385211   -3.561509   -2.781058
     55          1           0      -28.437717   -4.499872   -5.308556
     56          1           0      -26.894911   -3.823972   -4.757316
     57          1           0      -34.135699    1.386697   -3.762970
     58          1           0      -34.567304    2.953532   -3.165224
     59          1           0      -35.522259    1.405052   -2.822428
     60          1           0      -37.270420    3.495810    0.017755
     61          1           0      -36.842126    2.361646   -1.296528
     62          1           0      -36.126225    3.911547   -1.352518
     63          1           0      -32.449585    1.382833    4.681785
     64          1           0      -29.575430    1.772598    5.304893
     65          1           0      -32.349694    3.751823    5.260412
     66          1           0      -31.784449    4.004178    3.625306
     67          1           0      -30.571961    3.648770    4.861891
     68          1           0      -30.128448   -1.031818    5.390288
     69          1           0      -31.665407   -0.366451    5.721505
     70          1           0      -30.241617    1.088817    7.486210
     71          1           0      -29.186958   -0.318660    7.318033
     72          1           0      -30.857420   -0.637435    7.769508
     73          1           0      -24.659850   -2.006845    3.095183
     74          1           0      -25.852345   -1.464537    4.271887
     75          1           0      -24.746207   -0.349972    3.329085
     76          1           0      -26.544789   -3.353003   -1.493770
     77          1           0      -23.403666   -1.927035   -4.465342
     78          1           0      -25.019822   -1.577405   -5.204570
     79          1           0      -24.270576   -3.140872   -5.305850
     80         12           0       30.274570    0.218340   -0.291530
     81          6           0       27.269382   -1.248745    0.597310
     82          6           0       28.606116    3.176129   -0.948421
     83          6           0       33.270864    1.769163   -0.401106
     84          6           0       31.811334   -2.777209    0.758556
     85          7           0       28.196912    0.963637    0.090773
     86          6           0       27.175661    0.119531    0.262096
     87          6           0       25.835068    0.912855    0.346560
     88          6           0       26.232068    2.262501   -0.418483
     89          6           0       27.799612    2.123429   -0.513946
     90          6           0       25.457592    2.453964   -1.744770
     91          6           0       25.487671    1.209973    1.787549
     92          6           0       24.017474    1.068719    2.149735
     93          1           0       23.290335    2.036264    3.157828
     94          7           0       30.827877    2.213368   -0.813516
     95          6           0       30.040016    3.290515   -0.974116
     96          6           0       30.882317    4.393027   -1.307516
     97          6           0       32.247140    3.974043   -1.331880
     98          6           0       32.187693    2.581279   -0.871313
     99          6           0       30.322586    5.690836   -1.759964
    100          6           0       33.397843    4.889405   -1.556407
    101          8           0       33.204096    6.060117   -1.838927
    102          6           0       34.836760    4.389295   -1.511795
    103          7           0       32.343606   -0.490174    0.060031
    104          6           0       33.356889    0.418770    0.002263
    105          6           0       34.617920   -0.161286    0.555381
    106          6           0       34.123381   -1.636807    0.934364
    107          6           0       32.676338   -1.722632    0.516654
    108          6           0       35.832296   -0.086113   -0.388940
    109          6           0       34.352908   -2.082615    2.446156
    110          6           0       35.068149   -3.414626    2.772952
    111          7           0       29.712248   -1.618684    0.476501
    112          6           0       30.424635   -2.736688    0.777869
    113          6           0       29.569426   -3.833487    0.892683
    114          6           0       28.276037   -3.336799    0.809820
    115          6           0       28.413995   -1.983004    0.632099
    116          6           0       30.034048   -5.286506    1.203565
    117          6           0       26.923947   -3.648335    0.825879
    118          8           0       26.400042   -4.726497    1.083255
    119          6           0       26.095141   -2.277953    0.729793
    120          6           0       25.324579   -2.205950   -0.458887
    121          8           0       25.657124   -1.978872   -1.624625
    122          8           0       24.006944   -2.435796   -0.075128
    123          6           0       22.935442   -2.436101   -1.056319
    124          1           0       28.074468    4.060220   -1.305810
    125          1           0       34.302108    2.129598   -0.400019
    126          1           0       32.388042   -3.678959    0.975183
    127          1           0       25.059115    0.306192   -0.119475
    128          1           0       26.136401    3.161845    0.189034
    129          1           0       24.848767    1.583185   -1.987233
    130          1           0       26.163206    2.649589   -2.552828
    131          1           0       24.851125    3.353507   -1.641850
    132          1           0       25.813315    2.165442    2.199310
    133          1           0       26.130822    0.543397    2.362096
    134          1           0       23.874983    0.032425    2.455683
    135          1           0       23.551064    1.172810    1.170092
    136          1           0       30.389966    5.613567   -2.844972
    137          1           0       30.894304    6.532195   -1.367890
    138          1           0       29.287217    5.842086   -1.454426
    139          1           0       35.093443    4.328834   -0.454067
    140          1           0       35.443345    5.210201   -1.893467
    141          1           0       34.933901    3.441956   -2.041934
    142          1           0       34.747559    0.474332    1.430733
    143          1           0       34.709227   -2.399618    0.421493
    144          1           0       36.477679    0.692555    0.018922
    145          1           0       35.554586    0.118783   -1.423379
    146          1           0       36.389765   -1.020841   -0.333980
    147          1           0       33.379608   -2.149732    2.932031
    148          1           0       34.964750   -1.376305    3.007726
    149          1           0       34.203846   -4.077892    2.804442
    150          1           0       35.513179   -3.371997    3.766207
    151          1           0       35.685695   -3.904557    2.020271
    152          1           0       30.324095   -5.337700    2.252241
    153          1           0       30.925044   -5.628806    0.676845
    154          1           0       29.225560   -5.998250    1.034340
    155          1           0       25.512996   -2.221053    1.649689
    156          1           0       22.179551   -3.135246   -0.699978
    157          1           0       23.248725   -2.606382   -2.086691
    158          1           0       22.440295   -1.466643   -0.999025
 ---------------------------------------------------------------------

 SCF Done:  E(RCAM-B3LYP) =  -4069.82725116     A.U. after   17 cycles

 Excitation energies and oscillator strengths:

 Excited State   1:      Singlet-A      1.6990 eV  729.75 nm  f=0.4021  <S**2>=0.000
     309 -> 315       -0.18510
     311 -> 313        0.68485
     309 <- 315       -0.10998
 This state for optimization and/or second-order correction.
 Total Energy, E(TD-HF/TD-DFT) =  -4069.76481434
 Copying the excited state density for this state as the 1-particle RhoCI density.

 Excited State   2:      Singlet-A      1.7299 eV  716.71 nm  f=0.3905  <S**2>=0.000
     310 -> 316        0.18860
     312 -> 314        0.68239
     310 <- 316        0.10885

 Excited State   3:      Singlet-A      2.2279 eV  556.51 nm  f=0.1006  <S**2>=0.000
     309 -> 313        0.63673
     311 -> 315        0.29382

 Excited State   4:      Singlet-A      2.2550 eV  549.81 nm  f=0.0851  <S**2>=0.000
     310 -> 314        0.62548
     312 -> 316       -0.31649

 Excited State   5:      Singlet-A      3.0034 eV  412.82 nm  f=0.0000  <S**2>=0.000
     312 -> 313        0.70711

 The electronic state is 1-A.
 Alpha  occ. eigenvalues --  -46.89694 -46.88886 -19.25972 -19.24643 -19.20196
 Alpha  occ. eigenvalues --  -19.19299 -19.19250 -19.19044 -19.18367 -19.18359
 Alpha  occ. eigenvalues --  -14.42355 -14.42024 -14.41829 -14.41722 -14.39811
 Alpha  occ. eigenvalues --  -14.39491 -14.39245 -14.39205 -10.39626 -10.39559
 Alpha  occ. eigenvalues --  -10.35235 -10.34963 -10.34851 -10.34627 -10.32317
 Alpha  occ. eigenvalues --  -10.31586 -10.31550 -10.31399 -10.31313 -10.31147
 Alpha  occ. eigenvalues --  -10.30914 -10.30909 -10.30648 -10.30611 -10.30415
 Alpha  occ. eigenvalues --  -10.30107 -10.30017 -10.29920 -10.29780 -10.29443
 Alpha  occ. eigenvalues --  -10.29305 -10.29154 -10.28835 -10.28723 -10.28694
 Alpha  occ. eigenvalues --  -10.28506 -10.28395 -10.28343 -10.28334 -10.28320
 Alpha  occ. eigenvalues --  -10.28281 -10.28181 -10.28179 -10.28002 -10.27902
 Alpha  occ. eigenvalues --  -10.27817 -10.27802 -10.27767 -10.27765 -10.27527
 Alpha  occ. eigenvalues --  -10.27458 -10.27391 -10.27379 -10.27376 -10.27218
 Alpha  occ. eigenvalues --  -10.27044 -10.26988 -10.26862 -10.26801 -10.26610
 Alpha  occ. eigenvalues --  -10.26535 -10.26485 -10.26104 -10.26071 -10.26068
 Alpha  occ. eigenvalues --  -10.26066 -10.26035 -10.26017 -10.26011 -10.25904
 Alpha  occ. eigenvalues --  -10.25856 -10.25510 -10.25355 -10.25252 -10.24912
 Alpha  occ. eigenvalues --  -10.24855  -3.18016  -3.17309  -1.92930  -1.92466
 Alpha  occ. eigenvalues --   -1.92309  -1.92230  -1.91749  -1.91616  -1.16437
 Alpha  occ. eigenvalues --   -1.15751  -1.10947  -1.10037  -1.09994  -1.08920
 Alpha  occ. eigenvalues --   -1.07528  -1.07124  -1.05516  -1.05121  -1.04090
 Alpha  occ. eigenvalues --   -1.04051  -1.03867  -1.03376  -1.02617  -1.00957
 Alpha  occ. eigenvalues --   -0.93904  -0.92487  -0.89484  -0.89160  -0.89127
 Alpha  occ. eigenvalues --   -0.88411  -0.88280  -0.87901  -0.87708  -0.87194
 Alpha  occ. eigenvalues --   -0.86885  -0.86733  -0.86259  -0.86201  -0.85432
 Alpha  occ. eigenvalues --   -0.84650  -0.83945  -0.83565  -0.83058  -0.82325
 Alpha  occ. eigenvalues --   -0.82264  -0.81873  -0.81490  -0.81215  -0.80806
 Alpha  occ. eigenvalues --   -0.80550  -0.78436  -0.78190  -0.77623  -0.77555
 Alpha  occ. eigenvalues --   -0.77308  -0.76573  -0.76517  -0.76236  -0.75186
 Alpha  occ. eigenvalues --   -0.74891  -0.73522  -0.72596  -0.72399  -0.71507
 Alpha  occ. eigenvalues --   -0.69832  -0.69269  -0.69240  -0.68355  -0.68133
 Alpha  occ. eigenvalues --   -0.68028  -0.67430  -0.66919  -0.66191  -0.65924
 Alpha  occ. eigenvalues --   -0.65836  -0.65495  -0.65445  -0.65027  -0.64871
 Alpha  occ. eigenvalues --   -0.64327  -0.62724  -0.62715  -0.60510  -0.59899
 Alpha  occ. eigenvalues --   -0.59850  -0.59587  -0.59219  -0.59136  -0.59111
 Alpha  occ. eigenvalues --   -0.58750  -0.58223  -0.58194  -0.58006  -0.57287
 Alpha  occ. eigenvalues --   -0.56365  -0.56163  -0.56051  -0.55965  -0.55470
 Alpha  occ. eigenvalues --   -0.55341  -0.54885  -0.54719  -0.54384  -0.53973
 Alpha  occ. eigenvalues --   -0.53550  -0.53446  -0.53409  -0.52922  -0.52783
 Alpha  occ. eigenvalues --   -0.52664  -0.52414  -0.52346  -0.52215  -0.52097
 Alpha  occ. eigenvalues --   -0.52091  -0.51842  -0.51661  -0.51512  -0.51503
 Alpha  occ. eigenvalues --   -0.51324  -0.51278  -0.51166  -0.50390  -0.50206
 Alpha  occ. eigenvalues --   -0.50149  -0.50024  -0.49960  -0.49841  -0.49601
 Alpha  occ. eigenvalues --   -0.49449  -0.49367  -0.49036  -0.48999  -0.48990
 Alpha  occ. eigenvalues --   -0.48537  -0.48472  -0.48397  -0.48304  -0.48110
 Alpha  occ. eigenvalues --   -0.47948  -0.47544  -0.47469  -0.47196  -0.47104
 Alpha  occ. eigenvalues --   -0.46894  -0.46763  -0.46717  -0.46696  -0.46620
 Alpha  occ. eigenvalues --   -0.46286  -0.46138  -0.45972  -0.45867  -0.45830
 Alpha  occ. eigenvalues --   -0.45703  -0.45511  -0.45487  -0.45308  -0.45198
 Alpha  occ. eigenvalues --   -0.45087  -0.44917  -0.44711  -0.44528  -0.44527
 Alpha  occ. eigenvalues --   -0.44324  -0.43915  -0.43801  -0.43620  -0.43597
 Alpha  occ. eigenvalues --   -0.43488  -0.43401  -0.43174  -0.43162  -0.43008
 Alpha  occ. eigenvalues --   -0.42881  -0.42617  -0.42196  -0.42141  -0.42064
 Alpha  occ. eigenvalues --   -0.41933  -0.41846  -0.41840  -0.41485  -0.41453
 Alpha  occ. eigenvalues --   -0.41152  -0.41078  -0.40908  -0.40684  -0.40333
 Alpha  occ. eigenvalues --   -0.40256  -0.39990  -0.39739  -0.39536  -0.38300
 Alpha  occ. eigenvalues --   -0.38223  -0.38185  -0.37978  -0.37473  -0.37384
 Alpha  occ. eigenvalues --   -0.37278  -0.37217  -0.36711  -0.36621  -0.36281
 Alpha  occ. eigenvalues --   -0.36021  -0.35681  -0.34926  -0.34372  -0.34037
 Alpha  occ. eigenvalues --   -0.33968  -0.33626  -0.33112  -0.31836  -0.31212
 Alpha  occ. eigenvalues --   -0.31131  -0.30892  -0.30724  -0.30693  -0.30505
 Alpha  occ. eigenvalues --   -0.30062  -0.29503  -0.29453  -0.24560  -0.23880
 Alpha  occ. eigenvalues --   -0.21554  -0.20801
 Alpha virt. eigenvalues --   -0.09192  -0.08288  -0.02281  -0.01720  -0.00185
 Alpha virt. eigenvalues --    0.00547   0.02328   0.02510   0.02547   0.03093
 Alpha virt. eigenvalues --    0.04045   0.04469   0.04634   0.05238   0.05498

 Mulliken charges:
               1
     1  Mg   0.814806
     2  C   -0.017263
     3  C   -0.070468
     4  C   -0.047046
     5  C   -0.073584
     6  N   -0.243873
     7  C   -0.051355
     8  C   -0.008522
     9  C    0.010428
    10  C   -0.041600
    11  C    0.066178
    12  C    0.061616
    13  C   -0.064241
    14  H    0.001611
    15  N   -0.381031
    16  C    0.179996
    17  C   -0.151784
    18  C   -0.018605
    19  C    0.094794
    20  C    0.107324
    21  C   -0.005720
    22  O   -0.232216
    23  C    0.074373
    24  N   -0.261021
    25  C    0.046051
    26  C   -0.044097
    27  C   -0.048513
    28  C    0.017425
    29  C    0.079030
    30  C    0.027453
    31  C    0.003023
    32  N   -0.356648
    33  C    0.120848
    34  C   -0.150003
    35  C   -0.006759
    36  C    0.104762
    37  C    0.121497
    38  C    0.014253
    39  O   -0.146080
    40  C    0.025574
    41  C    0.218344
    42  O   -0.248928
    43  O   -0.321511
    44  C    0.184510
    45  H   -0.049195
    46  H    0.001132
    47  H   -0.028727
    48  H    0.022843
    49  H    0.008033
    50  H    0.027369
    51  H    0.010394
    52  H    0.004941
    53  H   -0.006429
    54  H    0.001660
    55  H    0.031407
    56  H    0.046807
    57  H    0.002024
    58  H    0.041590
    59  H    0.029958
    60  H    0.037763
    61  H    0.020625
    62  H    0.031147
    63  H    0.014348
    64  H    0.014666
    65  H    0.025708
    66  H    0.024982
    67  H    0.008088
    68  H    0.007540
    69  H    0.001703
    70  H    0.019683
    71  H    0.010866
    72  H    0.018626
    73  H    0.025103
    74  H    0.026372
    75  H    0.033620
    76  H    0.036814
    77  H    0.048266
    78  H    0.035146
    79  H    0.032096
    80  Mg   0.803408
    81  C   -0.053501
    82  C   -0.077648
    83  C   -0.031501
    84  C   -0.113891
    85  N   -0.266389
    86  C   -0.028602
    87  C   -0.077947
    88  C   -0.056779
    89  C    0.065557
    90  C    0.083060
    91  C    0.065135
    92  C   -0.060432
    93  H    0.028860
    94  N   -0.375683
    95  C    0.137234
    96  C   -0.161471
    97  C   -0.018965
    98  C    0.178078
    99  C    0.123848
   100  C   -0.042903
   101  O   -0.205026
   102  C    0.068031
   103  N   -0.281935
   104  C   -0.040120
   105  C   -0.032421
   106  C   -0.000397
   107  C    0.029930
   108  C    0.073855
   109  C   -0.008470
   110  C   -0.012549
   111  N   -0.343826
   112  C    0.184288
   113  C   -0.180459
   114  C    0.103170
   115  C    0.131968
   116  C    0.117900
   117  C   -0.022199
   118  O   -0.171186
   119  C   -0.002524
   120  C    0.227948
   121  O   -0.227804
   122  O   -0.357574
   123  C    0.177852
   124  H   -0.025139
   125  H   -0.050658
   126  H   -0.029534
   127  H    0.016121
   128  H    0.020249
   129  H    0.026949
   130  H    0.012895
   131  H    0.013836
   132  H    0.013076
   133  H    0.002780
   134  H    0.032700
   135  H    0.023575
   136  H    0.036652
   137  H    0.042124
   138  H    0.002281
   139  H    0.036912
   140  H    0.024996
   141  H    0.043446
   142  H    0.026541
   143  H   -0.001270
   144  H    0.020688
   145  H    0.031758
   146  H    0.017640
   147  H    0.019566
   148  H    0.006260
   149  H    0.003069
   150  H    0.024535
   151  H    0.019073
   152  H    0.024511
   153  H    0.016645
   154  H    0.037805
   155  H    0.052385
   156  H    0.038636
   157  H    0.051825
   158  H    0.019149
 Sum of Mulliken charges =  -0.00000

 Dipole moment (field-independent basis, Debye):
    X=             -0.6285    Y=             -1.5159    Z=             -1.3207  Tot=              2.1065
 Quadrupole moment (field-independent basis, Debye-Ang):
   XX=           -217.1606   YY=           -549.6320   ZZ=           -479.8906
   XY=             -1.7427   XZ=            125.0128   YZ=              8.7377

 Normal termination of Gaussian 16 at Thu Sep  2 04:50:58 2021.
