 Gaussian 16, Revision A.03,
 Gaussian 16:  ES64L-G16RevA.03 25-Dec-2016

 -----------------------------------
 #p cam-b3lyp/Def2SVP td=(nstates=5)
 -----------------------------------

 --------------------------------
 TDDFT excited states in gaussian
 --------------------------------
 Symbolic Z-matrix:
 Charge =  0 Multiplicity = 1

                         Standard orientation:
 ---------------------------------------------------------------------
 Center     Atomic      Atomic             Coordinates (Angstroms)
 Number     Number       Type             X           Y           Z
 ---------------------------------------------------------------------
      1         12           0      -25.663102   -0.344422    0.525827
      2          6           0      -24.226681    2.042437   -1.555764
      3          6           0      -25.413918   -2.636935   -2.008962
      4          6           0      -27.362647   -2.542306    2.499423
      5          6           0      -26.047430    2.263331    2.910203
      6          7           0      -24.943616   -0.294901   -1.544980
      7          6           0      -24.292381    0.768523   -2.112257
      8          6           0      -23.815538    0.299977   -3.489238
      9          6           0      -24.462093   -1.055871   -3.710410
     10          6           0      -24.947347   -1.368184   -2.299395
     11          6           0      -25.527424   -1.216214   -4.761527
     12          6           0      -22.229255    0.324850   -3.715804
     13          6           0      -21.716968   -0.353108   -5.027133
     14          1           0      -21.555672    0.519666   -6.299263
     15          7           0      -26.155372   -2.349013    0.311091
     16          6           0      -26.001902   -3.105581   -0.804075
     17          6           0      -26.574634   -4.393516   -0.510362
     18          6           0      -27.142377   -4.353400    0.797029
     19          6           0      -26.931771   -3.055658    1.259477
     20          6           0      -26.522270   -5.495143   -1.523503
     21          6           0      -27.976035   -5.479311    1.475261
     22          8           0      -28.706650   -5.254272    2.423485
     23          6           0      -28.048278   -6.841272    0.971559
     24          7           0      -26.510348   -0.154199    2.322302
     25          6           0      -27.132090   -1.204625    2.996669
     26          6           0      -27.622259   -0.797800    4.397184
     27          6           0      -26.942269    0.602335    4.574507
     28          6           0      -26.424551    0.900841    3.177107
     29          6           0      -29.059829   -0.965984    4.669235
     30          6           0      -25.826475    0.806008    5.742260
     31          6           0      -26.031949    1.850470    6.843500
     32          7           0      -25.275119    1.812270    0.667910
     33          6           0      -25.509503    2.688527    1.690198
     34          6           0      -25.072636    4.001678    1.354111
     35          6           0      -24.463601    3.791631    0.058187
     36          6           0      -24.704353    2.445783   -0.336651
     37          6           0      -25.169391    5.171303    2.257814
     38          6           0      -23.674808    4.436370   -0.966376
     39          8           0      -23.166128    5.534689   -1.076144
     40          6           0      -23.500258    3.263733   -2.099626
     41          6           0      -23.882756    3.750039   -3.449812
     42          8           0      -25.014659    4.049076   -3.761427
     43          8           0      -22.836329    3.808118   -4.292105
     44          6           0      -23.138738    4.040079   -5.756653
     45          1           0      -25.288579   -3.386020   -2.793926
     46          1           0      -27.910513   -3.264010    3.108597
     47          1           0      -26.229747    2.907379    3.773210
     48          1           0      -24.270830    1.068431   -4.113815
     49          1           0      -23.702429   -1.768377   -4.030914
     50          1           0      -26.397855   -1.301949   -4.111791
     51          1           0      -25.347028   -2.068907   -5.416264
     52          1           0      -25.689975   -0.301504   -5.332005
     53          1           0      -21.877572   -0.228396   -2.844721
     54          1           0      -21.869456    1.352883   -3.695641
     55          1           0      -22.382905   -1.150564   -5.354426
     56          1           0      -20.755401   -0.817140   -4.807710
     57          1           0      -25.968207   -5.322408   -2.446676
     58          1           0      -27.551475   -5.637969   -1.851135
     59          1           0      -26.216420   -6.451846   -1.099633
     60          1           0      -28.244075   -7.023068   -0.084688
     61          1           0      -28.712408   -7.509360    1.519756
     62          1           0      -27.063039   -7.227463    1.231985
     63          1           0      -27.053815   -1.535582    4.964101
     64          1           0      -27.839510    1.209752    4.692177
     65          1           0      -29.337006   -1.687565    5.438211
     66          1           0      -29.534567   -1.271094    3.736326
     67          1           0      -29.555717   -0.060142    5.017787
     68          1           0      -24.887757    1.062927    5.251811
     69          1           0      -25.553114   -0.068599    6.333765
     70          1           0      -25.443331    2.761013    6.728523
     71          1           0      -25.987558    1.459556    7.859626
     72          1           0      -27.042776    2.242765    6.731148
     73          1           0      -26.164523    5.182499    2.701805
     74          1           0      -24.925420    6.109227    1.759659
     75          1           0      -24.571912    4.945722    3.141709
     76          1           0      -22.431034    3.057688   -2.136468
     77          1           0      -22.181277    4.403927   -6.128777
     78          1           0      -23.934835    4.780233   -5.834718
     79          1           0      -23.365912    3.064070   -6.185739
     80         12           0       25.888692    0.537177   -0.292167
     81          6           0       24.156545   -2.483919   -0.764227
     82          6           0       22.885691    2.202199   -0.470583
     83          6           0       27.473574    3.186325    0.897671
     84          6           0       28.882054   -1.327602    0.132367
     85          7           0       23.773603   -0.099110   -0.327317
     86          6           0       23.271688   -1.410632   -0.530036
     87          6           0       21.857467   -1.424568   -0.942116
     88          6           0       21.490825    0.122154   -0.936872
     89          6           0       22.803601    0.807019   -0.590951
     90          6           0       20.785773    0.570200   -2.240013
     91          6           0       20.931721   -2.106145    0.018808
     92          6           0       21.231463   -1.924624    1.514256
     93          1           0       20.070925   -1.816264    2.578493
     94          7           0       25.296652    2.482560    0.134905
     95          6           0       24.067806    2.966451   -0.128626
     96          6           0       24.078434    4.388523    0.107086
     97          6           0       25.414555    4.726317    0.435300
     98          6           0       26.157397    3.456509    0.478022
     99          6           0       22.884821    5.303161    0.043901
    100          6           0       25.938595    6.138145    0.696313
    101          8           0       25.198548    7.101056    0.645351
    102          6           0       27.315553    6.531403    1.142929
    103          7           0       27.803350    0.832841    0.652140
    104          6           0       28.257287    2.070394    1.023301
    105          6           0       29.799959    2.060822    1.281297
    106          6           0       30.113489    0.534421    1.319160
    107          6           0       28.878364   -0.025986    0.648626
    108          6           0       30.658959    2.770717    0.207108
    109          6           0       30.127654   -0.145167    2.769114
    110          6           0       31.266960   -1.048321    3.075612
    111          7           0       26.471330   -1.396755   -0.397431
    112          6           0       27.698291   -1.935045   -0.392069
    113          6           0       27.662872   -3.313161   -1.012085
    114          6           0       26.259442   -3.512438   -1.209870
    115          6           0       25.572760   -2.380701   -0.686122
    116          6           0       28.789069   -4.290581   -1.316383
    117          6           0       25.299554   -4.514661   -1.573013
    118          8           0       25.454743   -5.671296   -1.931700
    119          6           0       23.882461   -3.858078   -1.321154
    120          6           0       23.237248   -4.624896   -0.185456
    121          8           0       23.564521   -4.644288    0.954941
    122          8           0       22.101906   -5.233341   -0.676901
    123          6           0       21.223110   -5.771470    0.366391
    124          1           0       21.968309    2.737358   -0.723749
    125          1           0       28.056090    4.081433    1.122031
    126          1           0       29.864137   -1.804862    0.145195
    127          1           0       21.801513   -1.921080   -1.910844
    128          1           0       20.891939    0.469161   -0.094899
    129          1           0       19.943331    1.124532   -1.825977
    130          1           0       20.503069   -0.336214   -2.775476
    131          1           0       21.385163    1.260360   -2.834074
    132          1           0       20.719303   -3.145403   -0.233437
    133          1           0       19.896954   -1.765741   -0.025549
    134          1           0       21.862347   -1.036547    1.564809
    135          1           0       21.882182   -2.775186    1.718017
    136          1           0       22.854078    5.967108    0.908441
    137          1           0       21.974758    4.715554   -0.076331
    138          1           0       23.054435    5.894233   -0.856399
    139          1           0       27.596934    6.199729    2.141870
    140          1           0       27.196159    7.609011    1.256201
    141          1           0       28.065325    6.437942    0.356576
    142          1           0       29.978878    2.560940    2.233036
    143          1           0       31.010376    0.262191    0.762156
    144          1           0       31.244969    2.018011   -0.319961
    145          1           0       31.161636    3.651052    0.607307
    146          1           0       29.991689    3.197333   -0.540936
    147          1           0       29.192030   -0.668327    2.965281
    148          1           0       30.157443    0.704634    3.451275
    149          1           0       31.813333   -0.756249    3.972185
    150          1           0       31.973964   -1.152523    2.252253
    151          1           0       30.931840   -2.062310    3.292152
    152          1           0       28.562171   -5.201758   -0.762846
    153          1           0       29.733253   -3.775958   -1.133901
    154          1           0       28.665812   -4.555941   -2.366301
    155          1           0       23.260113   -3.860846   -2.215735
    156          1           0       21.280453   -5.214296    1.301367
    157          1           0       21.591348   -6.787876    0.506098
    158          1           0       20.245595   -5.884487   -0.101646
 ---------------------------------------------------------------------

 SCF Done:  E(RCAM-B3LYP) =  -4069.80390524     A.U. after   17 cycles

 Excitation energies and oscillator strengths:

 Excited State   1:      Singlet-A      1.6651 eV  744.61 nm  f=0.3682  <S**2>=0.000
     309 -> 316        0.17250
     312 -> 314        0.68781
     309 <- 316        0.10779
 This state for optimization and/or second-order correction.
 Total Energy, E(TD-HF/TD-DFT) =  -4069.74271422
 Copying the excited state density for this state as the 1-particle RhoCI density.

 Excited State   2:      Singlet-A      1.6981 eV  730.13 nm  f=0.4040  <S**2>=0.000
     310 -> 315       -0.17921
     311 -> 313        0.68577
     310 <- 315       -0.10835

 Excited State   3:      Singlet-A      2.2224 eV  557.87 nm  f=0.0945  <S**2>=0.000
     310 -> 313        0.63226
     311 -> 315        0.30142

 Excited State   4:      Singlet-A      2.2662 eV  547.11 nm  f=0.1012  <S**2>=0.000
     309 -> 314        0.62924
     312 -> 316       -0.31014

 Excited State   5:      Singlet-A      3.1544 eV  393.05 nm  f=0.0000  <S**2>=0.000
     312 -> 313        0.70710

 The electronic state is 1-A.
 Alpha  occ. eigenvalues --  -46.88588 -46.87879 -19.24615 -19.24420 -19.20437
 Alpha  occ. eigenvalues --  -19.19133 -19.19082 -19.18662 -19.18259 -19.18255
 Alpha  occ. eigenvalues --  -14.42715 -14.42383 -14.42044 -14.41893 -14.39602
 Alpha  occ. eigenvalues --  -14.39541 -14.39050 -14.38440 -10.39254 -10.37967
 Alpha  occ. eigenvalues --  -10.35586 -10.35001 -10.34649 -10.34611 -10.32109
 Alpha  occ. eigenvalues --  -10.31600 -10.31448 -10.31217 -10.31129 -10.31115
 Alpha  occ. eigenvalues --  -10.30953 -10.30825 -10.30664 -10.30590 -10.30476
 Alpha  occ. eigenvalues --  -10.30444 -10.29956 -10.29807 -10.29699 -10.29611
 Alpha  occ. eigenvalues --  -10.29325 -10.28995 -10.28723 -10.28523 -10.28515
 Alpha  occ. eigenvalues --  -10.28342 -10.28298 -10.28298 -10.28139 -10.28133
 Alpha  occ. eigenvalues --  -10.28112 -10.28074 -10.28055 -10.27829 -10.27751
 Alpha  occ. eigenvalues --  -10.27535 -10.27533 -10.27525 -10.27442 -10.27263
 Alpha  occ. eigenvalues --  -10.27216 -10.27141 -10.27058 -10.27048 -10.27034
 Alpha  occ. eigenvalues --  -10.26954 -10.26944 -10.26865 -10.26859 -10.26758
 Alpha  occ. eigenvalues --  -10.26629 -10.26569 -10.26515 -10.26496 -10.26397
 Alpha  occ. eigenvalues --  -10.26253 -10.26157 -10.26011 -10.25750 -10.25591
 Alpha  occ. eigenvalues --  -10.25519 -10.25495 -10.25492 -10.25377 -10.25242
 Alpha  occ. eigenvalues --  -10.25137  -3.17233  -3.16539  -1.92095  -1.91693
 Alpha  occ. eigenvalues --   -1.91551  -1.91454  -1.90996  -1.90841  -1.17276
 Alpha  occ. eigenvalues --   -1.15848  -1.10984  -1.10415  -1.09959  -1.09491
 Alpha  occ. eigenvalues --   -1.08971  -1.06734  -1.05243  -1.04591  -1.04112
 Alpha  occ. eigenvalues --   -1.04002  -1.03346  -1.03317  -1.02635  -1.02354
 Alpha  occ. eigenvalues --   -0.93192  -0.92435  -0.89877  -0.89438  -0.89216
 Alpha  occ. eigenvalues --   -0.88711  -0.88395  -0.88334  -0.87573  -0.87534
 Alpha  occ. eigenvalues --   -0.86976  -0.86705  -0.86343  -0.85813  -0.84753
 Alpha  occ. eigenvalues --   -0.84643  -0.84177  -0.83707  -0.82722  -0.82643
 Alpha  occ. eigenvalues --   -0.82473  -0.81699  -0.81413  -0.80884  -0.80744
 Alpha  occ. eigenvalues --   -0.80523  -0.78795  -0.77955  -0.77797  -0.77516
 Alpha  occ. eigenvalues --   -0.77285  -0.76856  -0.76056  -0.75895  -0.75150
 Alpha  occ. eigenvalues --   -0.75143  -0.72781  -0.72712  -0.71818  -0.71700
 Alpha  occ. eigenvalues --   -0.69639  -0.69390  -0.68947  -0.68819  -0.68692
 Alpha  occ. eigenvalues --   -0.68229  -0.67094  -0.66920  -0.65874  -0.65550
 Alpha  occ. eigenvalues --   -0.65426  -0.65089  -0.64681  -0.64548  -0.64388
 Alpha  occ. eigenvalues --   -0.64206  -0.62111  -0.61426  -0.60532  -0.60014
 Alpha  occ. eigenvalues --   -0.59756  -0.59424  -0.59076  -0.58956  -0.58950
 Alpha  occ. eigenvalues --   -0.58831  -0.58146  -0.57960  -0.57389  -0.57302
 Alpha  occ. eigenvalues --   -0.56570  -0.56364  -0.56114  -0.55755  -0.55428
 Alpha  occ. eigenvalues --   -0.55411  -0.55110  -0.54785  -0.54613  -0.54576
 Alpha  occ. eigenvalues --   -0.54082  -0.53807  -0.53159  -0.53051  -0.52969
 Alpha  occ. eigenvalues --   -0.52862  -0.52594  -0.52380  -0.52346  -0.52293
 Alpha  occ. eigenvalues --   -0.52133  -0.52078  -0.51627  -0.51432  -0.51316
 Alpha  occ. eigenvalues --   -0.51169  -0.50993  -0.50938  -0.50844  -0.50495
 Alpha  occ. eigenvalues --   -0.50304  -0.50140  -0.49933  -0.49614  -0.49439
 Alpha  occ. eigenvalues --   -0.49414  -0.49348  -0.49261  -0.49140  -0.48994
 Alpha  occ. eigenvalues --   -0.48947  -0.48776  -0.48626  -0.48606  -0.48374
 Alpha  occ. eigenvalues --   -0.48231  -0.47722  -0.47563  -0.47450  -0.47206
 Alpha  occ. eigenvalues --   -0.47114  -0.47105  -0.46912  -0.46839  -0.46789
 Alpha  occ. eigenvalues --   -0.46592  -0.46540  -0.46386  -0.46253  -0.46067
 Alpha  occ. eigenvalues --   -0.46012  -0.45890  -0.45511  -0.45237  -0.45153
 Alpha  occ. eigenvalues --   -0.45114  -0.44801  -0.44683  -0.44408  -0.44380
 Alpha  occ. eigenvalues --   -0.44241  -0.44058  -0.44012  -0.43913  -0.43684
 Alpha  occ. eigenvalues --   -0.43609  -0.43372  -0.43239  -0.42814  -0.42811
 Alpha  occ. eigenvalues --   -0.42705  -0.42531  -0.42389  -0.42206  -0.42136
 Alpha  occ. eigenvalues --   -0.41959  -0.41909  -0.41827  -0.41511  -0.41285
 Alpha  occ. eigenvalues --   -0.41127  -0.40965  -0.40781  -0.40409  -0.40381
 Alpha  occ. eigenvalues --   -0.40199  -0.39831  -0.39507  -0.39278  -0.39162
 Alpha  occ. eigenvalues --   -0.38789  -0.38465  -0.37888  -0.37775  -0.37342
 Alpha  occ. eigenvalues --   -0.37262  -0.37046  -0.36886  -0.36452  -0.36291
 Alpha  occ. eigenvalues --   -0.36054  -0.35774  -0.35114  -0.34237  -0.34069
 Alpha  occ. eigenvalues --   -0.33985  -0.33033  -0.32985  -0.31387  -0.31309
 Alpha  occ. eigenvalues --   -0.31110  -0.30969  -0.30544  -0.30209  -0.29911
 Alpha  occ. eigenvalues --   -0.29720  -0.29662  -0.29049  -0.24318  -0.24206
 Alpha  occ. eigenvalues --   -0.21128  -0.21055
 Alpha virt. eigenvalues --   -0.08798  -0.08788  -0.01876  -0.01797   0.00209
 Alpha virt. eigenvalues --    0.00615   0.01373   0.02516   0.02730   0.03378
 Alpha virt. eigenvalues --    0.04698   0.05042   0.05242   0.05421   0.05881

 Mulliken charges:
               1
     1  Mg   0.828870
     2  C    0.048401
     3  C   -0.079081
     4  C   -0.067488
     5  C   -0.103356
     6  N   -0.255738
     7  C   -0.051982
     8  C   -0.000631
     9  C   -0.103482
    10  C    0.035610
    11  C    0.099466
    12  C    0.042559
    13  C   -0.062435
    14  H    0.013871
    15  N   -0.403937
    16  C    0.147230
    17  C   -0.142794
    18  C   -0.017891
    19  C    0.106308
    20  C    0.100446
    21  C    0.025247
    22  O   -0.202181
    23  C    0.059501
    24  N   -0.343361
    25  C    0.041661
    26  C   -0.041080
    27  C   -0.002506
    28  C    0.022968
    29  C    0.094415
    30  C    0.043919
    31  C   -0.014169
    32  N   -0.286899
    33  C    0.152997
    34  C   -0.160745
    35  C   -0.026713
    36  C    0.074299
    37  C    0.149297
    38  C    0.065581
    39  O   -0.154841
    40  C   -0.074536
    41  C    0.174478
    42  O   -0.224078
    43  O   -0.340815
    44  C    0.172986
    45  H   -0.041516
    46  H    0.001677
    47  H   -0.024246
    48  H    0.009394
    49  H   -0.002361
    50  H    0.017510
    51  H    0.021530
    52  H    0.015321
    53  H    0.009122
    54  H    0.039092
    55  H    0.023330
    56  H    0.035806
    57  H    0.015659
    58  H    0.027305
    59  H    0.025099
    60  H    0.036033
    61  H    0.023051
    62  H    0.027284
    63  H    0.010706
    64  H    0.008021
    65  H    0.017742
    66  H    0.025449
    67  H    0.006148
    68  H    0.012070
    69  H    0.010597
    70  H    0.018374
    71  H    0.023295
    72  H   -0.001758
    73  H    0.012729
    74  H    0.047933
    75  H    0.021411
    76  H    0.037232
    77  H    0.044531
    78  H    0.065043
    79  H    0.042018
    80  Mg   0.832761
    81  C   -0.065631
    82  C   -0.082008
    83  C   -0.051820
    84  C   -0.084153
    85  N   -0.298296
    86  C   -0.025779
    87  C    0.018494
    88  C   -0.084334
    89  C    0.035863
    90  C    0.085088
    91  C    0.008049
    92  C   -0.055348
    93  H    0.025471
    94  N   -0.351573
    95  C    0.137587
    96  C   -0.183556
    97  C   -0.001183
    98  C    0.138273
    99  C    0.160168
   100  C   -0.032212
   101  O   -0.207974
   102  C    0.057948
   103  N   -0.289658
   104  C    0.015917
   105  C   -0.027212
   106  C   -0.062457
   107  C    0.016120
   108  C    0.089645
   109  C    0.056716
   110  C    0.010155
   111  N   -0.344932
   112  C    0.137345
   113  C   -0.195338
   114  C   -0.004422
   115  C    0.133846
   116  C    0.146236
   117  C    0.051122
   118  O   -0.169738
   119  C    0.007149
   120  C    0.187058
   121  O   -0.181055
   122  O   -0.345673
   123  C    0.175659
   124  H   -0.026723
   125  H   -0.055783
   126  H   -0.024801
   127  H    0.014625
   128  H    0.028491
   129  H    0.016097
   130  H    0.023423
   131  H    0.024315
   132  H   -0.006947
   133  H   -0.001146
   134  H    0.031161
   135  H    0.037559
   136  H    0.042156
   137  H   -0.001155
   138  H    0.032091
   139  H    0.043737
   140  H    0.018255
   141  H    0.031569
   142  H    0.006936
   143  H    0.007277
   144  H    0.018881
   145  H    0.023724
   146  H    0.006587
   147  H    0.033376
   148  H   -0.000390
   149  H    0.016119
   150  H    0.005065
   151  H    0.013755
   152  H    0.046459
   153  H    0.016176
   154  H    0.034351
   155  H    0.034125
   156  H    0.056372
   157  H    0.035413
   158  H    0.036527
 Sum of Mulliken charges =  -0.00000

 Dipole moment (field-independent basis, Debye):
    X=              2.4093    Y=             -4.1121    Z=             -0.8161  Tot=              4.8353
 Quadrupole moment (field-independent basis, Debye-Ang):
   XX=           -453.2235   YY=           -573.2428   ZZ=           -480.5798
   XY=            165.7882   XZ=            -22.2370   YZ=             16.6143

 Normal termination of Gaussian 16 at Wed Sep 15 23:16:31 2021.
