 Gaussian 16, Revision A.03,
 Gaussian 16:  ES64L-G16RevA.03 25-Dec-2016

 -----------------------------------
 #p cam-b3lyp/Def2SVP td=(nstates=5)
 -----------------------------------

 --------------------------------
 TDDFT excited states in gaussian
 --------------------------------
 Symbolic Z-matrix:
 Charge =  0 Multiplicity = 1

                         Standard orientation:
 ---------------------------------------------------------------------
 Center     Atomic      Atomic             Coordinates (Angstroms)
 Number     Number       Type             X           Y           Z
 ---------------------------------------------------------------------
      1         12           0       25.664148    0.385483    0.675083
      2          6           0       24.254806   -1.794275   -1.819833
      3          6           0       25.614253    2.849361   -1.687259
      4          6           0       27.254341    2.319864    2.906883
      5          6           0       26.058249   -2.328074    2.683179
      6          7           0       24.924023    0.500048   -1.582513
      7          6           0       24.366859   -0.524387   -2.291410
      8          6           0       23.870484    0.045512   -3.565837
      9          6           0       24.417472    1.499330   -3.605655
     10          6           0       25.097992    1.692804   -2.222928
     11          6           0       25.446857    1.702589   -4.762594
     12          6           0       22.380432   -0.032014   -3.786039
     13          6           0       21.814059    0.309252   -5.154871
     14          1           0       20.869221   -0.653598   -5.741496
     15          7           0       26.229920    2.320892    0.654457
     16          6           0       26.215372    3.179477   -0.479300
     17          6           0       26.641741    4.508752   -0.003012
     18          6           0       27.180469    4.305061    1.264735
     19          6           0       26.952151    2.898650    1.642936
     20          6           0       26.618420    5.715216   -0.918107
     21          6           0       27.832491    5.316697    2.231887
     22          8           0       28.482703    4.995330    3.244147
     23          6           0       27.634314    6.746569    1.932661
     24          7           0       26.613113    0.051309    2.539784
     25          6           0       27.189246    0.957661    3.302480
     26          6           0       27.769173    0.376980    4.621405
     27          6           0       27.148829   -1.021865    4.611055
     28          6           0       26.537567   -1.093928    3.230517
     29          6           0       29.334794    0.350092    4.599506
     30          6           0       26.146127   -1.333272    5.699170
     31          6           0       26.256759   -2.716722    6.364333
     32          7           0       25.162977   -1.603744    0.509342
     33          6           0       25.388413   -2.591372    1.443170
     34          6           0       24.832340   -3.902780    0.992333
     35          6           0       24.425870   -3.553463   -0.279688
     36          6           0       24.677491   -2.205307   -0.561570
     37          6           0       24.642616   -5.157635    1.782485
     38          6           0       23.809367   -4.120162   -1.470170
     39          8           0       23.394736   -5.263237   -1.625631
     40          6           0       23.661900   -3.009438   -2.535249
     41          6           0       24.222004   -3.534463   -3.754331
     42          8           0       25.438934   -3.660333   -4.032467
     43          8           0       23.239854   -3.735373   -4.676005
     44          6           0       23.617598   -3.997118   -6.047683
     45          1           0       25.525983    3.669101   -2.402923
     46          1           0       27.911986    2.893976    3.562660
     47          1           0       26.437870   -3.153243    3.289033
     48          1           0       24.384052   -0.558056   -4.313058
     49          1           0       23.627677    2.237100   -3.748211
     50          1           0       25.384162    2.514235   -5.488128
     51          1           0       25.383820    0.778119   -5.336382
     52          1           0       26.493903    1.675286   -4.459658
     53          1           0       21.850700    0.679292   -3.152151
     54          1           0       21.950700   -0.933966   -3.351129
     55          1           0       22.613319    0.410407   -5.887544
     56          1           0       21.139241    1.147207   -4.982016
     57          1           0       27.529074    6.313375   -0.894017
     58          1           0       25.784521    6.393162   -0.737291
     59          1           0       26.553836    5.483353   -1.981488
     60          1           0       26.568736    6.922381    1.784558
     61          1           0       28.176595    6.862384    0.994893
     62          1           0       27.920143    7.289693    2.832696
     63          1           0       27.376004    1.001756    5.424115
     64          1           0       27.848326   -1.856789    4.640928
     65          1           0       29.718172   -0.669382    4.569180
     66          1           0       29.750935    0.786432    5.507561
     67          1           0       29.617765    0.878472    3.688971
     68          1           0       25.120771   -1.207963    5.352710
     69          1           0       26.179094   -0.454814    6.342812
     70          1           0       25.865830   -2.608587    7.375588
     71          1           0       27.253639   -3.151388    6.284663
     72          1           0       25.606671   -3.308359    5.720121
     73          1           0       23.625923   -5.309475    2.145430
     74          1           0       25.437379   -5.147903    2.527835
     75          1           0       24.994387   -6.005957    1.194053
     76          1           0       22.591219   -2.970584   -2.735633
     77          1           0       24.684110   -3.899680   -6.252301
     78          1           0       23.012037   -3.404411   -6.732773
     79          1           0       23.373688   -5.015548   -6.351155
     80         12           0      -26.025642   -0.578873   -0.532250
     81          6           0      -24.437903    2.572123   -1.009167
     82          6           0      -23.018975   -2.141486   -1.033194
     83          6           0      -27.333776   -3.464896    0.953251
     84          6           0      -28.912031    1.113989    0.540804
     85          7           0      -23.862802    0.277896   -0.732118
     86          6           0      -23.508781    1.509792   -1.133178
     87          6           0      -22.151546    1.447306   -1.809619
     88          6           0      -21.639080   -0.072002   -1.764739
     89          6           0      -23.032674   -0.703239   -1.256798
     90          6           0      -21.241899   -0.505658   -3.193713
     91          6           0      -21.171406    2.401409   -1.146219
     92          6           0      -21.257611    2.532695    0.392977
     93          1           0      -20.118518    1.873322    1.217584
     94          7           0      -25.300522   -2.602646   -0.168390
     95          6           0      -24.006946   -2.980269   -0.456058
     96          6           0      -23.960963   -4.393867   -0.249662
     97          6           0      -25.162391   -4.838259    0.423185
     98          6           0      -26.043240   -3.643115    0.400526
     99          6           0      -22.706515   -5.208098   -0.466678
    100          6           0      -25.405254   -6.173639    1.128289
    101          8           0      -24.513383   -6.997408    1.195225
    102          6           0      -26.647646   -6.524201    1.748734
    103          7           0      -27.811613   -1.090364    0.678388
    104          6           0      -28.152461   -2.327803    1.006669
    105          6           0      -29.480232   -2.412719    1.741744
    106          6           0      -29.786083   -0.862932    1.915593
    107          6           0      -28.845698   -0.225038    0.957752
    108          6           0      -30.623220   -3.197948    0.931028
    109          6           0      -29.632899   -0.430924    3.446316
    110          6           0      -30.836540   -0.024198    4.248398
    111          7           0      -26.661398    1.327584   -0.506784
    112          6           0      -27.918361    1.862977   -0.159089
    113          6           0      -27.966246    3.308200   -0.449045
    114          6           0      -26.639804    3.566273   -0.794451
    115          6           0      -25.815908    2.389857   -0.710608
    116          6           0      -29.195438    4.280755   -0.483490
    117          6           0      -25.750413    4.666326   -1.180776
    118          8           0      -25.935335    5.878537   -1.378898
    119          6           0      -24.307865    4.086341   -1.353640
    120          6           0      -23.603062    4.844408   -0.282185
    121          8           0      -23.894602    4.831684    0.886248
    122          8           0      -22.682675    5.641253   -0.817575
    123          6           0      -21.784283    6.442261    0.085315
    124          1           0      -22.165505   -2.659215   -1.475576
    125          1           0      -27.890643   -4.299279    1.384267
    126          1           0      -29.803267    1.546383    1.001510
    127          1           0      -22.449609    1.814973   -2.791522
    128          1           0      -20.820577   -0.216994   -1.059160
    129          1           0      -20.189498   -0.788504   -3.181464
    130          1           0      -21.333956    0.277518   -3.946658
    131          1           0      -21.845301   -1.385740   -3.414490
    132          1           0      -21.304459    3.402706   -1.555948
    133          1           0      -20.144873    2.079763   -1.324323
    134          1           0      -22.087730    2.039412    0.898430
    135          1           0      -21.283075    3.607862    0.570738
    136          1           0      -21.861183   -4.582243   -0.753861
    137          1           0      -22.949391   -6.004464   -1.171015
    138          1           0      -22.514612   -5.756274    0.455032
    139          1           0      -26.934951   -5.908921    2.601640
    140          1           0      -26.592788   -7.551766    2.107673
    141          1           0      -27.367695   -6.368954    0.944556
    142          1           0      -29.402147   -2.802397    2.756393
    143          1           0      -30.861063   -0.841556    1.735631
    144          1           0      -30.204704   -3.595085    0.005782
    145          1           0      -31.385437   -2.466462    0.661926
    146          1           0      -31.147738   -3.981251    1.480390
    147          1           0      -29.046515    0.483039    3.541493
    148          1           0      -29.141068   -1.211607    4.024986
    149          1           0      -30.945836    1.054068    4.364843
    150          1           0      -30.578092   -0.484270    5.202717
    151          1           0      -31.756450   -0.551213    3.994635
    152          1           0      -29.468354    4.503716    0.547606
    153          1           0      -29.975082    3.789116   -1.065569
    154          1           0      -28.873581    5.223891   -0.924712
    155          1           0      -24.017809    4.308114   -2.381323
    156          1           0      -22.230896    7.386983    0.396210
    157          1           0      -20.836041    6.669451   -0.403538
    158          1           0      -21.595095    5.787996    0.936323
 ---------------------------------------------------------------------

 SCF Done:  E(RCAM-B3LYP) =  -4069.78057524     A.U. after   19 cycles

 Excitation energies and oscillator strengths:

 Excited State   1:      Singlet-A      1.6890 eV  734.07 nm  f=0.3502  <S**2>=0.000
     309 -> 315       -0.20077
     311 -> 313        0.68048
     309 <- 315       -0.11492
 This state for optimization and/or second-order correction.
 Total Energy, E(TD-HF/TD-DFT) =  -4069.71850608
 Copying the excited state density for this state as the 1-particle RhoCI density.

 Excited State   2:      Singlet-A      1.7540 eV  706.87 nm  f=0.3807  <S**2>=0.000
     310 -> 316        0.19893
     312 -> 314        0.68126
     310 <- 316        0.11271

 Excited State   3:      Singlet-A      2.1999 eV  563.59 nm  f=0.0722  <S**2>=0.000
     309 -> 313        0.61852
     311 -> 315        0.32999

 Excited State   4:      Singlet-A      2.3187 eV  534.70 nm  f=0.0718  <S**2>=0.000
     310 -> 314        0.61703
     312 -> 316       -0.33882

 Excited State   5:      Singlet-A      3.1227 eV  397.04 nm  f=0.0000  <S**2>=0.000
     312 -> 313        0.70711

 The electronic state is 1-A.
 Alpha  occ. eigenvalues --  -46.90230 -46.88512 -19.25175 -19.25098 -19.19042
 Alpha  occ. eigenvalues --  -19.18876 -19.18872 -19.18849 -19.18620 -19.18085
 Alpha  occ. eigenvalues --  -14.42449 -14.41992 -14.41918 -14.41115 -14.40157
 Alpha  occ. eigenvalues --  -14.39777 -14.39611 -14.39557 -10.39151 -10.38747
 Alpha  occ. eigenvalues --  -10.35260 -10.34988 -10.34463 -10.34338 -10.32481
 Alpha  occ. eigenvalues --  -10.32026 -10.31408 -10.31229 -10.30997 -10.30946
 Alpha  occ. eigenvalues --  -10.30762 -10.30755 -10.30722 -10.30619 -10.30571
 Alpha  occ. eigenvalues --  -10.30487 -10.30417 -10.30405 -10.30094 -10.29973
 Alpha  occ. eigenvalues --  -10.29867 -10.29047 -10.28873 -10.28837 -10.28747
 Alpha  occ. eigenvalues --  -10.28614 -10.28422 -10.28413 -10.28403 -10.28171
 Alpha  occ. eigenvalues --  -10.28132 -10.28116 -10.28081 -10.28024 -10.28003
 Alpha  occ. eigenvalues --  -10.27964 -10.27869 -10.27686 -10.27615 -10.27549
 Alpha  occ. eigenvalues --  -10.27457 -10.27338 -10.27235 -10.27090 -10.27031
 Alpha  occ. eigenvalues --  -10.27007 -10.26978 -10.26930 -10.26928 -10.26813
 Alpha  occ. eigenvalues --  -10.26613 -10.26431 -10.26297 -10.26227 -10.26210
 Alpha  occ. eigenvalues --  -10.26106 -10.25996 -10.25945 -10.25931 -10.25804
 Alpha  occ. eigenvalues --  -10.25777 -10.25708 -10.25653 -10.25534 -10.25066
 Alpha  occ. eigenvalues --  -10.24617  -3.18536  -3.17118  -1.93400  -1.93024
 Alpha  occ. eigenvalues --   -1.92813  -1.92027  -1.91565  -1.91431  -1.17084
 Alpha  occ. eigenvalues --   -1.16122  -1.10231  -1.09485  -1.09074  -1.08837
 Alpha  occ. eigenvalues --   -1.07724  -1.05969  -1.05779  -1.04618  -1.04590
 Alpha  occ. eigenvalues --   -1.03695  -1.03088  -1.02415  -1.02193  -1.01619
 Alpha  occ. eigenvalues --   -0.93175  -0.91964  -0.90103  -0.89328  -0.88968
 Alpha  occ. eigenvalues --   -0.88837  -0.88489  -0.88270  -0.87601  -0.87105
 Alpha  occ. eigenvalues --   -0.87092  -0.86636  -0.86137  -0.85374  -0.84704
 Alpha  occ. eigenvalues --   -0.84685  -0.84077  -0.84061  -0.82945  -0.82870
 Alpha  occ. eigenvalues --   -0.82637  -0.82617  -0.81254  -0.81112  -0.80890
 Alpha  occ. eigenvalues --   -0.80271  -0.78680  -0.77918  -0.77731  -0.77453
 Alpha  occ. eigenvalues --   -0.77366  -0.76585  -0.76405  -0.76318  -0.75258
 Alpha  occ. eigenvalues --   -0.74982  -0.73001  -0.72873  -0.71965  -0.71739
 Alpha  occ. eigenvalues --   -0.69555  -0.69274  -0.68918  -0.68543  -0.68138
 Alpha  occ. eigenvalues --   -0.68096  -0.66698  -0.66543  -0.66432  -0.65599
 Alpha  occ. eigenvalues --   -0.65421  -0.65211  -0.65119  -0.64773  -0.64570
 Alpha  occ. eigenvalues --   -0.64048  -0.62553  -0.62437  -0.60420  -0.60301
 Alpha  occ. eigenvalues --   -0.59915  -0.59500  -0.59289  -0.58995  -0.58787
 Alpha  occ. eigenvalues --   -0.58710  -0.58405  -0.57819  -0.57622  -0.57279
 Alpha  occ. eigenvalues --   -0.56478  -0.56335  -0.55858  -0.55761  -0.55528
 Alpha  occ. eigenvalues --   -0.55052  -0.54925  -0.54527  -0.54449  -0.54041
 Alpha  occ. eigenvalues --   -0.53903  -0.53880  -0.53548  -0.53499  -0.53179
 Alpha  occ. eigenvalues --   -0.53073  -0.52978  -0.52632  -0.52508  -0.52036
 Alpha  occ. eigenvalues --   -0.51982  -0.51890  -0.51768  -0.51698  -0.51543
 Alpha  occ. eigenvalues --   -0.51221  -0.50800  -0.50688  -0.50497  -0.50303
 Alpha  occ. eigenvalues --   -0.50174  -0.49942  -0.49820  -0.49706  -0.49662
 Alpha  occ. eigenvalues --   -0.49500  -0.49231  -0.49088  -0.48964  -0.48651
 Alpha  occ. eigenvalues --   -0.48523  -0.48392  -0.48352  -0.48275  -0.47969
 Alpha  occ. eigenvalues --   -0.47812  -0.47811  -0.47373  -0.47317  -0.47244
 Alpha  occ. eigenvalues --   -0.47015  -0.46966  -0.46915  -0.46611  -0.46550
 Alpha  occ. eigenvalues --   -0.46305  -0.46241  -0.46053  -0.45819  -0.45615
 Alpha  occ. eigenvalues --   -0.45582  -0.45323  -0.45195  -0.45151  -0.45112
 Alpha  occ. eigenvalues --   -0.45064  -0.44909  -0.44537  -0.44369  -0.43971
 Alpha  occ. eigenvalues --   -0.43962  -0.43871  -0.43717  -0.43691  -0.43588
 Alpha  occ. eigenvalues --   -0.43429  -0.43228  -0.43161  -0.42902  -0.42509
 Alpha  occ. eigenvalues --   -0.42444  -0.42402  -0.42053  -0.42010  -0.41763
 Alpha  occ. eigenvalues --   -0.41692  -0.41574  -0.41507  -0.41419  -0.41300
 Alpha  occ. eigenvalues --   -0.41245  -0.41078  -0.40878  -0.40874  -0.40133
 Alpha  occ. eigenvalues --   -0.40132  -0.40038  -0.39944  -0.39816  -0.38824
 Alpha  occ. eigenvalues --   -0.38656  -0.38005  -0.37922  -0.37433  -0.37126
 Alpha  occ. eigenvalues --   -0.37051  -0.36762  -0.36397  -0.36077  -0.36012
 Alpha  occ. eigenvalues --   -0.35725  -0.35653  -0.34266  -0.34118  -0.33824
 Alpha  occ. eigenvalues --   -0.33544  -0.33362  -0.33018  -0.31576  -0.31396
 Alpha  occ. eigenvalues --   -0.31056  -0.30758  -0.30690  -0.30599  -0.30550
 Alpha  occ. eigenvalues --   -0.30289  -0.30272  -0.28936  -0.24296  -0.24084
 Alpha  occ. eigenvalues --   -0.21331  -0.20922
 Alpha virt. eigenvalues --   -0.08781  -0.08159  -0.02569  -0.01802   0.00252
 Alpha virt. eigenvalues --    0.00738   0.01018   0.02415   0.02510   0.03009
 Alpha virt. eigenvalues --    0.04547   0.04771   0.05173   0.05512   0.06117

 Mulliken charges:
               1
     1  Mg   0.834411
     2  C    0.024688
     3  C   -0.055720
     4  C   -0.051641
     5  C   -0.106214
     6  N   -0.264150
     7  C   -0.113534
     8  C    0.060311
     9  C   -0.062117
    10  C    0.034816
    11  C    0.055103
    12  C    0.051957
    13  C   -0.062160
    14  H    0.017767
    15  N   -0.433210
    16  C    0.175013
    17  C   -0.115158
    18  C   -0.045506
    19  C    0.143498
    20  C    0.083568
    21  C    0.007317
    22  O   -0.223202
    23  C    0.070549
    24  N   -0.254206
    25  C   -0.037017
    26  C   -0.003987
    27  C   -0.057305
    28  C    0.011878
    29  C    0.079536
    30  C    0.047599
    31  C    0.022754
    32  N   -0.327802
    33  C    0.125509
    34  C   -0.201392
    35  C    0.044243
    36  C    0.113367
    37  C    0.151097
    38  C   -0.008641
    39  O   -0.172828
    40  C    0.036393
    41  C    0.195485
    42  O   -0.253674
    43  O   -0.318323
    44  C    0.171985
    45  H   -0.038316
    46  H    0.004203
    47  H   -0.019193
    48  H    0.008465
    49  H    0.010548
    50  H    0.018370
    51  H   -0.002278
    52  H    0.013812
    53  H   -0.010885
    54  H    0.002157
    55  H    0.034897
    56  H    0.034190
    57  H    0.018577
    58  H    0.030362
    59  H    0.016777
    60  H    0.031155
    61  H    0.040928
    62  H    0.035927
    63  H    0.017079
    64  H    0.006256
    65  H    0.011858
    66  H    0.025619
    67  H    0.033360
    68  H   -0.002027
    69  H   -0.015550
    70  H    0.028559
    71  H    0.017475
    72  H    0.021556
    73  H    0.054891
    74  H   -0.004386
    75  H    0.025641
    76  H    0.050968
    77  H    0.049996
    78  H    0.029557
    79  H    0.028396
    80  Mg   0.809050
    81  C   -0.024299
    82  C   -0.063373
    83  C   -0.069226
    84  C   -0.046412
    85  N   -0.259863
    86  C   -0.095469
    87  C    0.047072
    88  C   -0.094974
    89  C    0.038580
    90  C    0.067255
    91  C    0.028241
    92  C   -0.086678
    93  H   -0.003202
    94  N   -0.383443
    95  C    0.151040
    96  C   -0.160417
    97  C   -0.041622
    98  C    0.173061
    99  C    0.133622
   100  C   -0.012992
   101  O   -0.204445
   102  C    0.070710
   103  N   -0.255745
   104  C    0.022691
   105  C   -0.100946
   106  C   -0.016313
   107  C    0.028514
   108  C    0.062464
   109  C    0.013449
   110  C    0.006258
   111  N   -0.412701
   112  C    0.143975
   113  C   -0.181412
   114  C    0.017243
   115  C    0.150125
   116  C    0.132504
   117  C    0.023751
   118  O   -0.196848
   119  C    0.022576
   120  C    0.168890
   121  O   -0.207062
   122  O   -0.315700
   123  C    0.170852
   124  H   -0.008626
   125  H   -0.041470
   126  H   -0.025242
   127  H    0.008613
   128  H    0.035942
   129  H    0.010329
   130  H    0.022934
   131  H    0.020757
   132  H    0.017505
   133  H    0.016104
   134  H    0.065854
   135  H    0.027675
   136  H    0.007254
   137  H    0.023945
   138  H    0.038916
   139  H    0.044551
   140  H    0.029527
   141  H    0.034969
   142  H    0.015080
   143  H   -0.005460
   144  H    0.022376
   145  H    0.010550
   146  H    0.024207
   147  H    0.012522
   148  H    0.009692
   149  H    0.031449
   150  H    0.006070
   151  H    0.005316
   152  H    0.031932
   153  H    0.035001
   154  H    0.039142
   155  H    0.037209
   156  H    0.053524
   157  H    0.040930
   158  H    0.052146
 Sum of Mulliken charges =  -0.00000

 Dipole moment (field-independent basis, Debye):
    X=             -3.0200    Y=              3.4967    Z=             -1.0460  Tot=              4.7373
 Quadrupole moment (field-independent basis, Debye-Ang):
   XX=           -468.2710   YY=           -561.6073   ZZ=           -483.1648
   XY=            143.8064   XZ=             20.7566   YZ=            -24.0372

 Normal termination of Gaussian 16 at Wed Sep 15 23:14:41 2021.
