 Gaussian 16, Revision A.03,
 Gaussian 16:  ES64L-G16RevA.03 25-Dec-2016

 -----------------------------------
 #p cam-b3lyp/Def2SVP td=(nstates=5)
 -----------------------------------

 --------------------------------
 TDDFT excited states in gaussian
 --------------------------------
 Symbolic Z-matrix:
 Charge =  0 Multiplicity = 1

                         Standard orientation:
 ---------------------------------------------------------------------
 Center     Atomic      Atomic             Coordinates (Angstroms)
 Number     Number       Type             X           Y           Z
 ---------------------------------------------------------------------
      1         12           0       -4.810529   -0.590883    0.057605
      2          6           0       -2.728018    1.909211    1.314905
      3          6           0       -7.145875    1.684592   -0.609664
      4          6           0       -7.116787   -3.112164    0.154653
      5          6           0       -2.355048   -2.941162    0.821196
      6          7           0       -4.854874    1.603838    0.174475
      7          6           0       -3.906603    2.375243    0.692071
      8          6           0       -4.292607    3.881312    0.462935
      9          6           0       -5.749182    3.769749   -0.047620
     10          6           0       -5.966628    2.263453   -0.155702
     11          6           0       -6.850160    4.319868    0.988600
     12          6           0       -3.363626    4.673042   -0.565406
     13          6           0       -3.054586    6.054851   -0.100643
     14          1           0       -3.285643    7.230010   -1.038115
     15          7           0       -6.843311   -0.683024   -0.218979
     16          6           0       -7.648679    0.384806   -0.514475
     17          6           0       -8.952952   -0.122173   -0.963233
     18          6           0       -8.930867   -1.526242   -0.733843
     19          6           0       -7.591213   -1.808463   -0.192104
     20          6           0      -10.111058    0.808418   -1.445758
     21          6           0      -10.079956   -2.562042   -0.922288
     22          8           0       -9.967213   -3.762774   -0.702320
     23          6           0      -11.384201   -2.068802   -1.424199
     24          7           0       -4.769681   -2.648418    0.450177
     25          6           0       -5.859631   -3.522327    0.505099
     26          6           0       -5.397118   -4.894057    1.062197
     27          6           0       -3.863201   -4.947679    0.641423
     28          6           0       -3.675246   -3.404111    0.627808
     29          6           0       -5.699312   -5.074313    2.565370
     30          6           0       -3.538127   -5.548921   -0.696420
     31          6           0       -3.734116   -4.770881   -1.963644
     32          7           0       -2.847975   -0.588256    0.701041
     33          6           0       -1.974265   -1.605440    1.008635
     34          6           0       -0.688724   -1.097020    1.492621
     35          6           0       -0.961114    0.323772    1.737655
     36          6           0       -2.302745    0.547265    1.237293
     37          6           0        0.454382   -1.883525    1.886020
     38          6           0       -0.430093    1.571464    2.273002
     39          8           0        0.566146    1.833105    2.835747
     40          6           0       -1.556801    2.681058    1.936158
     41          6           0       -1.916029    3.574197    3.096682
     42          8           0       -2.828891    3.370014    3.891457
     43          8           0       -1.104533    4.707386    3.051898
     44          6           0       -1.312200    5.736573    4.086668
     45          1           0       -7.943072    2.283663   -1.055498
     46          1           0       -7.910042   -3.862549    0.184302
     47          1           0       -1.599315   -3.718929    0.946376
     48          1           0       -4.331121    4.442439    1.396947
     49          1           0       -5.978243    4.295828   -0.974357
     50          1           0       -7.022995    5.366188    0.735902
     51          1           0       -6.541928    4.332513    2.033717
     52          1           0       -7.768791    3.753672    0.830441
     53          1           0       -3.831534    4.761498   -1.546025
     54          1           0       -2.412371    4.196434   -0.802596
     55          1           0       -1.973150    6.031778    0.030953
     56          1           0       -3.475634    6.380594    0.850106
     57          1           0      -10.685960    1.048733   -0.551862
     58          1           0      -10.694711    0.344573   -2.241294
     59          1           0       -9.792140    1.820130   -1.698669
     60          1           0      -11.812150   -1.128211   -1.077786
     61          1           0      -12.154669   -2.816165   -1.236283
     62          1           0      -11.404164   -2.155457   -2.510942
     63          1           0       -5.955678   -5.610287    0.460281
     64          1           0       -3.248254   -5.458615    1.382077
     65          1           0       -4.858511   -5.346369    3.203474
     66          1           0       -6.586409   -5.676234    2.763750
     67          1           0       -6.026720   -4.126611    2.992517
     68          1           0       -4.064230   -6.478811   -0.908931
     69          1           0       -2.485711   -5.832701   -0.682364
     70          1           0       -2.739467   -4.360345   -2.136600
     71          1           0       -4.417535   -3.923681   -1.902226
     72          1           0       -4.031978   -5.452447   -2.761071
     73          1           0        1.327984   -1.300926    1.593060
     74          1           0        0.426140   -2.803165    1.302110
     75          1           0        0.452748   -2.036943    2.964718
     76          1           0       -1.145562    3.321860    1.156173
     77          1           0       -1.263313    5.229973    5.050928
     78          1           0       -2.304844    6.177895    4.001207
     79          1           0       -0.644215    6.596847    4.132470
     80         12           0        4.921567   -0.680995   -0.614721
     81          6           0        2.708796    1.750729   -1.652182
     82          6           0        7.353444    1.935806   -0.357383
     83          6           0        7.207308   -2.913732    0.051191
     84          6           0        2.574300   -3.146417   -1.228914
     85          7           0        5.029385    1.604148   -1.190025
     86          6           0        3.946391    2.343834   -1.359981
     87          6           0        4.247888    3.844306   -1.085616
     88          6           0        5.808180    3.836031   -1.247998
     89          6           0        6.147752    2.374499   -0.914485
     90          6           0        6.261602    4.239872   -2.695947
     91          6           0        3.761757    4.122282    0.354251
     92          6           0        3.811929    5.582345    0.824493
     93          1           0        4.543706    6.623586    0.001618
     94          7           0        6.934858   -0.597371   -0.103264
     95          6           0        7.732686    0.595472   -0.022412
     96          6           0        9.002842    0.187454    0.562120
     97          6           0        8.922562   -1.222358    0.787359
     98          6           0        7.656915   -1.666946    0.205543
     99          6           0       10.184499    1.165727    0.915461
    100          6           0        9.964530   -2.118829    1.534481
    101          8           0        9.793935   -3.307135    1.527515
    102          6           0       11.154604   -1.507807    2.200161
    103          7           0        4.864877   -2.759761   -0.503586
    104          6           0        5.955129   -3.499243   -0.199003
    105          6           0        5.701285   -5.004732   -0.266521
    106          6           0        4.180539   -5.058920   -0.541179
    107          6           0        3.841970   -3.531166   -0.778595
    108          6           0        6.547985   -5.790972   -1.333703
    109          6           0        3.322702   -5.801983    0.450956
    110          6           0        3.476675   -5.577382    1.974576
    111          7           0        3.029189   -0.781866   -1.308112
    112          6           0        2.179717   -1.833275   -1.502092
    113          6           0        0.894294   -1.279928   -1.872691
    114          6           0        1.001144    0.152374   -1.927632
    115          6           0        2.359671    0.385070   -1.578689
    116          6           0       -0.322062   -2.104847   -2.156630
    117          6           0        0.351747    1.382155   -2.235244
    118          8           0       -0.800994    1.660376   -2.631616
    119          6           0        1.583684    2.438659   -2.314083
    120          6           0        1.061656    3.756049   -1.738268
    121          8           0        0.551302    3.888554   -0.692206
    122          8           0        1.256152    4.730324   -2.675594
    123          6           0        1.182322    6.111687   -2.246153
    124          1           0        8.105156    2.727220   -0.345598
    125          1           0        7.942409   -3.704156    0.216558
    126          1           0        1.795174   -3.875401   -1.458040
    127          1           0        3.827325    4.496569   -1.850839
    128          1           0        6.145625    4.521570   -0.470277
    129          1           0        6.646665    5.258759   -2.682517
    130          1           0        5.397311    4.144815   -3.353545
    131          1           0        7.087276    3.638727   -3.076824
    132          1           0        4.431559    3.590146    1.029251
    133          1           0        2.796071    3.660303    0.557204
    134          1           0        3.983753    5.682054    1.896471
    135          1           0        2.766898    5.892535    0.836532
    136          1           0       11.138848    0.826632    0.511464
    137          1           0       10.179652    1.247242    2.002279
    138          1           0        9.941974    2.169576    0.564711
    139          1           0       11.353022   -2.222894    2.998833
    140          1           0       10.918130   -0.575251    2.711252
    141          1           0       11.988714   -1.130800    1.608423
    142          1           0        5.944647   -5.374292    0.729371
    143          1           0        3.939663   -5.470130   -1.521452
    144          1           0        5.890786   -6.577494   -1.703656
    145          1           0        7.359613   -6.196656   -0.729373
    146          1           0        6.970996   -5.103767   -2.066378
    147          1           0        3.749968   -6.799627    0.355435
    148          1           0        2.246480   -5.819119    0.275805
    149          1           0        3.777146   -6.422373    2.592681
    150          1           0        2.517834   -5.352478    2.441577
    151          1           0        4.215888   -4.795078    2.147426
    152          1           0       -1.090494   -1.395076   -2.461633
    153          1           0       -0.674761   -2.577348   -1.238888
    154          1           0       -0.169770   -2.941690   -2.837610
    155          1           0        1.848069    2.476984   -3.371042
    156          1           0        0.449980    6.339137   -3.020909
    157          1           0        2.146202    6.620942   -2.233937
    158          1           0        0.710329    6.257164   -1.274125
 ---------------------------------------------------------------------

 SCF Done:  E(RCAM-B3LYP) =  -4069.82162244     A.U. after   18 cycles

 Excitation energies and oscillator strengths:

 Excited State   1:      Singlet-A      1.6414 eV  755.36 nm  f=0.8219  <S**2>=0.000
     310 -> 316        0.14012
     311 -> 313        0.31743
     312 -> 313       -0.22734
     312 -> 314        0.55991
 This state for optimization and/or second-order correction.
 Total Energy, E(TD-HF/TD-DFT) =  -4069.76130265
 Copying the excited state density for this state as the 1-particle RhoCI density.

 Excited State   2:      Singlet-A      1.7350 eV  714.59 nm  f=0.0648  <S**2>=0.000
     309 -> 315       -0.17050
     311 -> 313        0.58681
     312 -> 314       -0.32914

 Excited State   3:      Singlet-A      2.0677 eV  599.62 nm  f=0.0034  <S**2>=0.000
     312 -> 313        0.65549
     312 -> 314        0.21729

 Excited State   4:      Singlet-A      2.2039 eV  562.56 nm  f=0.0172  <S**2>=0.000
     309 -> 313        0.53954
     309 -> 314        0.13988
     310 -> 313        0.18430
     310 -> 314       -0.24273
     311 -> 315        0.25699
     312 -> 316        0.11205

 Excited State   5:      Singlet-A      2.2462 eV  551.97 nm  f=0.1449  <S**2>=0.000
     309 -> 313        0.29300
     310 -> 313       -0.12095
     310 -> 314        0.54297
     311 -> 315        0.14115
     312 -> 316       -0.26225

 The electronic state is 1-A.
 Alpha  occ. eigenvalues --  -46.88282 -46.87178 -19.24942 -19.24305 -19.21173
 Alpha  occ. eigenvalues --  -19.19354 -19.19314 -19.19111 -19.18952 -19.18670
 Alpha  occ. eigenvalues --  -14.41790 -14.41728 -14.41434 -14.40759 -14.39352
 Alpha  occ. eigenvalues --  -14.39326 -14.38571 -14.38527 -10.39611 -10.38858
 Alpha  occ. eigenvalues --  -10.35338 -10.35288 -10.35138 -10.34711 -10.31843
 Alpha  occ. eigenvalues --  -10.31334 -10.30727 -10.30691 -10.30655 -10.30482
 Alpha  occ. eigenvalues --  -10.30461 -10.30337 -10.30059 -10.29821 -10.29668
 Alpha  occ. eigenvalues --  -10.29412 -10.29384 -10.29259 -10.29100 -10.29053
 Alpha  occ. eigenvalues --  -10.28700 -10.28647 -10.28632 -10.28512 -10.28491
 Alpha  occ. eigenvalues --  -10.28172 -10.28014 -10.28002 -10.27950 -10.27851
 Alpha  occ. eigenvalues --  -10.27758 -10.27671 -10.27666 -10.27649 -10.27615
 Alpha  occ. eigenvalues --  -10.27416 -10.27411 -10.27323 -10.27251 -10.27187
 Alpha  occ. eigenvalues --  -10.27079 -10.27075 -10.27009 -10.26654 -10.26599
 Alpha  occ. eigenvalues --  -10.26506 -10.26465 -10.26405 -10.26336 -10.26269
 Alpha  occ. eigenvalues --  -10.26194 -10.26049 -10.25779 -10.25543 -10.25520
 Alpha  occ. eigenvalues --  -10.25498 -10.25482 -10.25376 -10.25371 -10.25337
 Alpha  occ. eigenvalues --  -10.25301 -10.25248 -10.25173 -10.24998 -10.24739
 Alpha  occ. eigenvalues --  -10.24297  -3.16919  -3.15877  -1.91818  -1.91392
 Alpha  occ. eigenvalues --   -1.91211  -1.90779  -1.90309  -1.90206  -1.18308
 Alpha  occ. eigenvalues --   -1.14410  -1.12169  -1.11536  -1.10474  -1.09655
 Alpha  occ. eigenvalues --   -1.08320  -1.06706  -1.05298  -1.04370  -1.04092
 Alpha  occ. eigenvalues --   -1.03099  -1.02956  -1.02183  -1.02108  -1.01442
 Alpha  occ. eigenvalues --   -0.93163  -0.90959  -0.89470  -0.88727  -0.88635
 Alpha  occ. eigenvalues --   -0.88415  -0.87670  -0.87341  -0.87310  -0.86599
 Alpha  occ. eigenvalues --   -0.86395  -0.86253  -0.85731  -0.85676  -0.84131
 Alpha  occ. eigenvalues --   -0.83808  -0.83490  -0.83019  -0.82492  -0.81766
 Alpha  occ. eigenvalues --   -0.81740  -0.81593  -0.81334  -0.80345  -0.80328
 Alpha  occ. eigenvalues --   -0.79696  -0.78009  -0.77641  -0.77447  -0.76834
 Alpha  occ. eigenvalues --   -0.76730  -0.76028  -0.76001  -0.75541  -0.75136
 Alpha  occ. eigenvalues --   -0.74214  -0.72698  -0.72065  -0.71577  -0.70828
 Alpha  occ. eigenvalues --   -0.70356  -0.68906  -0.68807  -0.68050  -0.67812
 Alpha  occ. eigenvalues --   -0.66871  -0.66231  -0.65977  -0.65199  -0.64988
 Alpha  occ. eigenvalues --   -0.64870  -0.64449  -0.64179  -0.63919  -0.63654
 Alpha  occ. eigenvalues --   -0.63514  -0.62701  -0.61133  -0.60547  -0.59763
 Alpha  occ. eigenvalues --   -0.59559  -0.59155  -0.59025  -0.58775  -0.58291
 Alpha  occ. eigenvalues --   -0.58153  -0.58089  -0.57480  -0.57086  -0.56688
 Alpha  occ. eigenvalues --   -0.56379  -0.56168  -0.55698  -0.55504  -0.55234
 Alpha  occ. eigenvalues --   -0.54933  -0.54755  -0.54595  -0.54329  -0.53890
 Alpha  occ. eigenvalues --   -0.53488  -0.53429  -0.53077  -0.53024  -0.52605
 Alpha  occ. eigenvalues --   -0.52497  -0.52387  -0.52313  -0.52218  -0.51986
 Alpha  occ. eigenvalues --   -0.51916  -0.51512  -0.51364  -0.51164  -0.50804
 Alpha  occ. eigenvalues --   -0.50781  -0.50440  -0.50322  -0.50207  -0.50009
 Alpha  occ. eigenvalues --   -0.49831  -0.49751  -0.49677  -0.49514  -0.49447
 Alpha  occ. eigenvalues --   -0.49382  -0.49256  -0.49014  -0.48859  -0.48749
 Alpha  occ. eigenvalues --   -0.48720  -0.48334  -0.48150  -0.48022  -0.47991
 Alpha  occ. eigenvalues --   -0.47833  -0.47648  -0.47456  -0.47119  -0.46845
 Alpha  occ. eigenvalues --   -0.46707  -0.46521  -0.46422  -0.46183  -0.45970
 Alpha  occ. eigenvalues --   -0.45898  -0.45874  -0.45635  -0.45523  -0.45447
 Alpha  occ. eigenvalues --   -0.45396  -0.45184  -0.44913  -0.44812  -0.44790
 Alpha  occ. eigenvalues --   -0.44455  -0.44114  -0.44010  -0.43858  -0.43828
 Alpha  occ. eigenvalues --   -0.43406  -0.43340  -0.43322  -0.43113  -0.43032
 Alpha  occ. eigenvalues --   -0.42974  -0.42735  -0.42669  -0.42557  -0.42454
 Alpha  occ. eigenvalues --   -0.42255  -0.42193  -0.42064  -0.42033  -0.41976
 Alpha  occ. eigenvalues --   -0.41712  -0.41385  -0.41184  -0.41070  -0.41024
 Alpha  occ. eigenvalues --   -0.40879  -0.40865  -0.40620  -0.40184  -0.40024
 Alpha  occ. eigenvalues --   -0.39542  -0.39461  -0.39314  -0.38667  -0.38471
 Alpha  occ. eigenvalues --   -0.37967  -0.37739  -0.37580  -0.37512  -0.37233
 Alpha  occ. eigenvalues --   -0.36961  -0.36741  -0.36235  -0.35912  -0.35899
 Alpha  occ. eigenvalues --   -0.35810  -0.35658  -0.35135  -0.34036  -0.33677
 Alpha  occ. eigenvalues --   -0.33577  -0.33455  -0.32096  -0.31640  -0.31163
 Alpha  occ. eigenvalues --   -0.30892  -0.30558  -0.30484  -0.30298  -0.29891
 Alpha  occ. eigenvalues --   -0.29394  -0.29337  -0.28737  -0.23887  -0.23222
 Alpha  occ. eigenvalues --   -0.21127  -0.20109
 Alpha virt. eigenvalues --   -0.08552  -0.07758  -0.01939  -0.00690   0.00046
 Alpha virt. eigenvalues --    0.01069   0.02515   0.03155   0.03177   0.03839
 Alpha virt. eigenvalues --    0.05160   0.05457   0.05599   0.05829   0.06251

 Mulliken charges:
               1
     1  Mg   0.846452
     2  C    0.035893
     3  C   -0.074641
     4  C   -0.077512
     5  C   -0.092758
     6  N   -0.243388
     7  C   -0.022568
     8  C   -0.004267
     9  C   -0.074519
    10  C    0.083826
    11  C    0.038873
    12  C    0.069452
    13  C   -0.095034
    14  H   -0.001802
    15  N   -0.370252
    16  C    0.093013
    17  C   -0.139571
    18  C   -0.063197
    19  C    0.101936
    20  C    0.093865
    21  C    0.038232
    22  O   -0.202291
    23  C    0.042860
    24  N   -0.294607
    25  C    0.035185
    26  C    0.002314
    27  C   -0.008909
    28  C    0.022835
    29  C    0.093220
    30  C    0.017756
    31  C    0.022857
    32  N   -0.363960
    33  C    0.135018
    34  C   -0.163311
    35  C   -0.040211
    36  C    0.093423
    37  C    0.132932
    38  C    0.063120
    39  O   -0.112231
    40  C   -0.078478
    41  C    0.211201
    42  O   -0.223383
    43  O   -0.348707
    44  C    0.188306
    45  H   -0.037514
    46  H   -0.008524
    47  H   -0.041104
    48  H    0.017169
    49  H    0.017116
    50  H    0.006832
    51  H    0.028045
    52  H    0.015109
    53  H    0.012871
    54  H    0.029553
    55  H    0.033456
    56  H    0.025212
    57  H    0.033599
    58  H    0.041069
    59  H    0.008985
    60  H    0.037463
    61  H    0.010406
    62  H    0.037968
    63  H   -0.004987
    64  H   -0.006775
    65  H    0.015477
    66  H    0.020691
    67  H    0.010991
    68  H    0.000203
    69  H   -0.008021
    70  H    0.003508
    71  H    0.035866
    72  H    0.014637
    73  H    0.039884
    74  H    0.008336
    75  H    0.045476
    76  H    0.067495
    77  H    0.034344
    78  H    0.022605
    79  H    0.037966
    80  Mg   0.827419
    81  C   -0.010020
    82  C   -0.067985
    83  C   -0.074595
    84  C   -0.112169
    85  N   -0.227371
    86  C   -0.081291
    87  C   -0.041199
    88  C   -0.040698
    89  C    0.003017
    90  C    0.086704
    91  C    0.035227
    92  C   -0.033615
    93  H    0.025019
    94  N   -0.395751
    95  C    0.164816
    96  C   -0.170667
    97  C   -0.041094
    98  C    0.169548
    99  C    0.109600
   100  C    0.017951
   101  O   -0.181205
   102  C    0.052566
   103  N   -0.265808
   104  C   -0.011004
   105  C   -0.047873
   106  C   -0.004495
   107  C    0.066630
   108  C    0.083984
   109  C    0.038493
   110  C   -0.018607
   111  N   -0.394961
   112  C    0.120360
   113  C   -0.175219
   114  C    0.023926
   115  C    0.152205
   116  C    0.130933
   117  C    0.072571
   118  O   -0.203761
   119  C   -0.078127
   120  C    0.187403
   121  O   -0.152534
   122  O   -0.335066
   123  C    0.145475
   124  H   -0.021446
   125  H   -0.018006
   126  H   -0.034439
   127  H   -0.004846
   128  H   -0.000917
   129  H    0.017326
   130  H    0.022521
   131  H    0.017774
   132  H    0.005014
   133  H    0.052285
   134  H    0.021718
   135  H    0.015761
   136  H    0.037157
   137  H    0.037344
   138  H    0.006689
   139  H    0.033079
   140  H    0.000537
   141  H    0.047114
   142  H    0.022244
   143  H    0.003658
   144  H    0.024669
   145  H    0.026324
   146  H    0.032032
   147  H    0.004810
   148  H    0.012598
   149  H    0.011040
   150  H    0.009384
   151  H    0.021980
   152  H    0.037039
   153  H    0.009520
   154  H    0.021454
   155  H    0.055488
   156  H    0.051500
   157  H    0.049129
   158  H    0.051352
 Sum of Mulliken charges =  -0.00000

 Dipole moment (field-independent basis, Debye):
    X=              3.7440    Y=              2.9363    Z=             -1.8948  Tot=              5.1215
 Quadrupole moment (field-independent basis, Debye-Ang):
   XX=           -486.4525   YY=           -467.9189   ZZ=           -521.8556
   XY=              1.6305   XZ=             11.0835   YZ=             -0.3051

 Normal termination of Gaussian 16 at Tue Aug 31 22:59:17 2021.
