 Gaussian 16, Revision A.03,
 Gaussian 16:  ES64L-G16RevA.03 25-Dec-2016

 ----------------------------------------------------------
 #p cam-b3lyp/Def2SVP td=(nstates=5) density=(transition=1)
 ----------------------------------------------------------

 --------------------------------
 TDDFT excited states in gaussian
 --------------------------------
 Symbolic Z-matrix:
 Charge =  0 Multiplicity = 1

                         Standard orientation:
 ---------------------------------------------------------------------
 Center     Atomic      Atomic             Coordinates (Angstroms)
 Number     Number       Type             X           Y           Z
 ---------------------------------------------------------------------
      1         12           0        5.001094   -0.657692   -0.251498
      2          6           0        3.218659    2.277184   -1.399454
      3          6           0        7.650815    1.189840   -0.306186
      4          6           0        6.478270   -3.500672    0.521779
      5          6           0        2.109089   -2.713943   -1.037488
      6          7           0        5.338836    1.571656   -0.691638
      7          6           0        4.523697    2.589089   -1.142444
      8          6           0        5.311524    3.834061   -1.338013
      9          6           0        6.771475    3.324970   -1.452007
     10          6           0        6.599381    1.923213   -0.820774
     11          6           0        7.297310    3.215174   -2.900018
     12          6           0        5.182528    4.741086   -0.076429
     13          6           0        4.950448    6.279685   -0.338075
     14          1           0        4.348832    7.193752    0.802349
     15          7           0        6.915209   -1.065470    0.122504
     16          6           0        7.867625   -0.172448    0.168359
     17          6           0        9.078505   -0.825658    0.628541
     18          6           0        8.662017   -2.133698    0.970966
     19          6           0        7.307437   -2.274314    0.509889
     20          6           0       10.382252   -0.030249    0.822381
     21          6           0        9.502406   -3.193773    1.626705
     22          8           0        9.045547   -4.277160    1.838643
     23          6           0       10.875751   -2.845771    2.100731
     24          7           0        4.394308   -2.889034   -0.547543
     25          6           0        5.206845   -3.767914    0.035541
     26          6           0        4.559923   -5.089179    0.219530
     27          6           0        3.191272   -4.842396   -0.490611
     28          6           0        3.182498   -3.357552   -0.741377
     29          6           0        5.351357   -6.366409   -0.239340
     30          6           0        1.989880   -5.361200    0.392223
     31          6           0        1.247505   -6.666707   -0.007739
     32          7           0        3.131833   -0.390509   -1.014169
     33          6           0        2.028709   -1.249743   -1.216368
     34          6           0        0.873601   -0.461516   -1.693316
     35          6           0        1.307434    0.856426   -1.744828
     36          6           0        2.645112    0.879439   -1.388196
     37          6           0       -0.470566   -1.054087   -2.181331
     38          6           0        0.828564    2.235517   -2.082112
     39          8           0       -0.238807    2.693609   -2.415329
     40          6           0        2.114621    3.203327   -2.035822
     41          6           0        1.829739    4.426164   -1.379376
     42          8           0        2.026459    4.582717   -0.166185
     43          8           0        1.274409    5.439503   -2.154459
     44          6           0        1.139092    6.808080   -1.567815
     45          1           0        8.608297    1.709093   -0.236798
     46          1           0        6.949576   -4.432974    0.839501
     47          1           0        1.229158   -3.315985   -1.269273
     48          1           0        5.061685    4.284204   -2.299125
     49          1           0        7.531920    3.908356   -0.933252
     50          1           0        8.167864    3.856715   -3.039824
     51          1           0        6.487678    3.535113   -3.555283
     52          1           0        7.553981    2.203486   -3.215452
     53          1           0        6.131392    4.621383    0.446797
     54          1           0        4.393156    4.295561    0.528623
     55          1           0        4.341485    6.371309   -1.237038
     56          1           0        5.959584    6.626336   -0.563899
     57          1           0       10.621949   -0.017920    1.886420
     58          1           0       10.391406    0.979026    0.412254
     59          1           0       11.225034   -0.587380    0.414207
     60          1           0       10.867925   -2.077266    2.873229
     61          1           0       11.542275   -2.378859    1.375667
     62          1           0       11.315683   -3.725258    2.571569
     63          1           0        4.367794   -5.214282    1.285153
     64          1           0        3.217279   -5.287855   -1.485327
     65          1           0        6.343393   -6.021100   -0.528558
     66          1           0        4.881765   -7.004506   -0.988781
     67          1           0        5.434361   -7.041414    0.612637
     68          1           0        1.209527   -4.599836    0.407055
     69          1           0        2.349560   -5.279051    1.417878
     70          1           0        1.110044   -7.297750    0.870170
     71          1           0        1.816422   -7.185969   -0.779161
     72          1           0        0.252248   -6.440511   -0.392238
     73          1           0       -0.663019   -1.957070   -1.602628
     74          1           0       -0.357135   -1.392964   -3.211349
     75          1           0       -1.293291   -0.346463   -2.076307
     76          1           0        2.412726    3.410108   -3.063252
     77          1           0        2.115871    7.230481   -1.327860
     78          1           0        0.358898    6.842554   -0.808362
     79          1           0        0.871696    7.470078   -2.391344
     80         12           0       -4.798496   -0.545330    0.043395
     81          6           0       -2.980424    2.252809    1.086073
     82          6           0       -7.598841    1.465649   -0.100707
     83          6           0       -6.740335   -3.333359   -0.284045
     84          6           0       -2.079550   -2.525546    0.867445
     85          7           0       -5.155028    1.589268    0.364651
     86          6           0       -4.238065    2.544156    0.566344
     87          6           0       -4.752042    3.978333    0.373071
     88          6           0       -6.296377    3.730253    0.173342
     89          6           0       -6.395906    2.109569    0.036946
     90          6           0       -7.246747    4.279823    1.258912
     91          6           0       -4.086714    4.745572   -0.769737
     92          6           0       -4.104563    6.271857   -0.569206
     93          1           0       -4.776450    6.857358    0.680856
     94          7           0       -6.849833   -0.904638   -0.274441
     95          6           0       -7.860308    0.079700   -0.371341
     96          6           0       -9.115386   -0.583962   -0.661782
     97          6           0       -8.897529   -2.012181   -0.655080
     98          6           0       -7.458042   -2.145071   -0.436311
     99          6           0      -10.351149    0.206426   -0.993523
    100          6           0       -9.892400   -3.212692   -0.988777
    101          8           0       -9.545846   -4.364941   -1.085301
    102          6           0      -11.348945   -2.844972   -1.171303
    103          7           0       -4.486554   -2.606049    0.350627
    104          6           0       -5.415088   -3.578057    0.117997
    105          6           0       -4.825386   -5.024045    0.307910
    106          6           0       -3.358348   -4.710775    0.597447
    107          6           0       -3.314907   -3.194342    0.610029
    108          6           0       -5.495665   -6.068146    1.289127
    109          6           0       -2.432267   -5.315862   -0.483551
    110          6           0       -2.231557   -4.548580   -1.809220
    111          7           0       -2.823047   -0.271487    0.684058
    112          6           0       -1.825503   -1.164321    0.978884
    113          6           0       -0.637106   -0.494343    1.388970
    114          6           0       -1.041803    0.913955    1.460518
    115          6           0       -2.320840    0.957350    1.061692
    116          6           0        0.696817   -0.996119    1.726189
    117          6           0       -0.648177    2.250634    1.883994
    118          8           0        0.452516    2.675494    2.251119
    119          6           0       -1.865243    3.196472    1.663206
    120          6           0       -2.257626    3.862347    2.901055
    121          8           0       -2.904217    3.363224    3.815953
    122          8           0       -1.601052    5.063935    2.992763
    123          6           0       -1.486413    5.736913    4.301211
    124          1           0       -8.432292    2.171482   -0.095412
    125          1           0       -7.309486   -4.221217   -0.567188
    126          1           0       -1.191249   -3.138063    1.035145
    127          1           0       -4.699724    4.551270    1.298595
    128          1           0       -6.659301    4.030528   -0.808975
    129          1           0       -7.936244    4.853221    0.639560
    130          1           0       -6.708903    4.929397    1.949065
    131          1           0       -7.708544    3.462030    1.812272
    132          1           0       -4.529244    4.506232   -1.735929
    133          1           0       -3.042516    4.446483   -0.864684
    134          1           0       -4.621528    6.584484   -1.476697
    135          1           0       -3.111267    6.708732   -0.681678
    136          1           0      -10.103711    1.242295   -0.761180
    137          1           0      -11.180353   -0.160086   -0.388012
    138          1           0      -10.652838    0.109195   -2.037498
    139          1           0      -11.919931   -2.614309   -0.271341
    140          1           0      -11.822514   -3.644558   -1.740937
    141          1           0      -11.276325   -1.962919   -1.807454
    142          1           0       -4.974183   -5.434091   -0.690741
    143          1           0       -3.142132   -5.137420    1.576233
    144          1           0       -4.802939   -6.565724    1.966812
    145          1           0       -5.928483   -6.866097    0.686603
    146          1           0       -6.309380   -5.558884    1.806336
    147          1           0       -2.833096   -6.309631   -0.679496
    148          1           0       -1.474833   -5.451408    0.020347
    149          1           0       -2.254398   -5.322439   -2.576077
    150          1           0       -1.260290   -4.059895   -1.882712
    151          1           0       -2.947149   -3.744250   -1.976078
    152          1           0        1.425206   -0.317153    1.284221
    153          1           0        0.912905   -2.014669    1.403611
    154          1           0        0.886104   -0.859500    2.791052
    155          1           0       -1.519258    3.895129    0.901595
    156          1           0       -2.017399    5.200409    5.088311
    157          1           0       -1.947266    6.720601    4.208058
    158          1           0       -0.405410    5.736572    4.436472
 ---------------------------------------------------------------------

 SCF Done:  E(RCAM-B3LYP) =  -4069.79425950     A.U. after   19 cycles

 Excitation energies and oscillator strengths:

 Excited State   1:      Singlet-A      1.6541 eV  749.55 nm  f=0.9167  <S**2>=0.000
     310 -> 315        0.12353
     311 -> 313        0.42214
     311 -> 314        0.11569
     312 -> 313       -0.23193
     312 -> 314        0.48020
 This state for optimization and/or second-order correction.
 Total Energy, E(TD-HF/TD-DFT) =  -4069.73347182
 Copying the excited state density for this state as the 1-particle RhoCI density.

 Excited State   2:      Singlet-A      1.7589 eV  704.90 nm  f=0.0274  <S**2>=0.000
     309 -> 316       -0.12086
     310 -> 315       -0.11934
     311 -> 313        0.51844
     312 -> 314       -0.44455

 Excited State   3:      Singlet-A      2.1094 eV  587.76 nm  f=0.0204  <S**2>=0.000
     309 -> 313       -0.28379
     309 -> 314       -0.10414
     310 -> 313       -0.20361
     310 -> 314        0.53276
     312 -> 313       -0.16681
     312 -> 315       -0.19423

 Excited State   4:      Singlet-A      2.1669 eV  572.18 nm  f=0.0820  <S**2>=0.000
     309 -> 313        0.19773
     310 -> 314        0.26460
     311 -> 313        0.10261
     312 -> 313        0.57411
     312 -> 314        0.17888

 Excited State   5:      Singlet-A      2.1714 eV  570.99 nm  f=0.2189  <S**2>=0.000
     309 -> 313        0.56292
     310 -> 314        0.20755
     311 -> 316        0.15943
     312 -> 313       -0.28507

 The electronic state is 1-A.
 Alpha  occ. eigenvalues --  -46.89387 -46.87620 -19.23879 -19.23130 -19.19773
 Alpha  occ. eigenvalues --  -19.19440 -19.19229 -19.18273 -19.18244 -19.17751
 Alpha  occ. eigenvalues --  -14.41727 -14.41717 -14.41281 -14.40152 -14.39813
 Alpha  occ. eigenvalues --  -14.39742 -14.38822 -14.37518 -10.38260 -10.37915
 Alpha  occ. eigenvalues --  -10.36024 -10.35687 -10.35102 -10.34087 -10.31638
 Alpha  occ. eigenvalues --  -10.31141 -10.30977 -10.30572 -10.30546 -10.30317
 Alpha  occ. eigenvalues --  -10.30237 -10.30192 -10.30047 -10.30037 -10.29951
 Alpha  occ. eigenvalues --  -10.29769 -10.29635 -10.29343 -10.29307 -10.29250
 Alpha  occ. eigenvalues --  -10.28738 -10.28662 -10.28253 -10.28192 -10.28188
 Alpha  occ. eigenvalues --  -10.28099 -10.28085 -10.28075 -10.27956 -10.27772
 Alpha  occ. eigenvalues --  -10.27579 -10.27473 -10.27174 -10.27166 -10.27159
 Alpha  occ. eigenvalues --  -10.27115 -10.27093 -10.27072 -10.26956 -10.26909
 Alpha  occ. eigenvalues --  -10.26905 -10.26892 -10.26679 -10.26664 -10.26530
 Alpha  occ. eigenvalues --  -10.26435 -10.26322 -10.26320 -10.26263 -10.26240
 Alpha  occ. eigenvalues --  -10.26236 -10.26059 -10.26002 -10.25893 -10.25786
 Alpha  occ. eigenvalues --  -10.25772 -10.25745 -10.25677 -10.25542 -10.25467
 Alpha  occ. eigenvalues --  -10.25388 -10.25314 -10.25267 -10.25036 -10.24743
 Alpha  occ. eigenvalues --  -10.24005  -3.17918  -3.16151  -1.92804  -1.92380
 Alpha  occ. eigenvalues --   -1.92218  -1.91052  -1.90604  -1.90457  -1.14344
 Alpha  occ. eigenvalues --   -1.14030  -1.12138  -1.11088  -1.10949  -1.07839
 Alpha  occ. eigenvalues --   -1.06387  -1.05906  -1.05447  -1.04973  -1.04828
 Alpha  occ. eigenvalues --   -1.03933  -1.02670  -1.01787  -1.00964  -1.00395
 Alpha  occ. eigenvalues --   -0.91295  -0.91201  -0.89145  -0.88949  -0.88889
 Alpha  occ. eigenvalues --   -0.88114  -0.88033  -0.87794  -0.87601  -0.87539
 Alpha  occ. eigenvalues --   -0.86490  -0.85915  -0.85426  -0.85044  -0.84257
 Alpha  occ. eigenvalues --   -0.83518  -0.83123  -0.82961  -0.82087  -0.82061
 Alpha  occ. eigenvalues --   -0.81828  -0.81513  -0.80891  -0.80417  -0.80349
 Alpha  occ. eigenvalues --   -0.79538  -0.78721  -0.77535  -0.77131  -0.76816
 Alpha  occ. eigenvalues --   -0.76669  -0.76152  -0.76128  -0.75394  -0.75270
 Alpha  occ. eigenvalues --   -0.74454  -0.72685  -0.71789  -0.71097  -0.70556
 Alpha  occ. eigenvalues --   -0.69610  -0.69269  -0.68870  -0.67915  -0.67766
 Alpha  occ. eigenvalues --   -0.67189  -0.66950  -0.66022  -0.65714  -0.65465
 Alpha  occ. eigenvalues --   -0.64963  -0.64393  -0.64187  -0.64020  -0.63822
 Alpha  occ. eigenvalues --   -0.63096  -0.61416  -0.61007  -0.60725  -0.60026
 Alpha  occ. eigenvalues --   -0.59216  -0.59034  -0.58391  -0.58372  -0.58042
 Alpha  occ. eigenvalues --   -0.57597  -0.57504  -0.57168  -0.57156  -0.56674
 Alpha  occ. eigenvalues --   -0.56580  -0.55728  -0.55462  -0.55414  -0.54871
 Alpha  occ. eigenvalues --   -0.54519  -0.54255  -0.54038  -0.53809  -0.53330
 Alpha  occ. eigenvalues --   -0.53089  -0.53012  -0.52762  -0.52654  -0.52482
 Alpha  occ. eigenvalues --   -0.52215  -0.52153  -0.52025  -0.51917  -0.51712
 Alpha  occ. eigenvalues --   -0.51605  -0.51375  -0.51288  -0.51043  -0.50571
 Alpha  occ. eigenvalues --   -0.50519  -0.50236  -0.50201  -0.50086  -0.49887
 Alpha  occ. eigenvalues --   -0.49761  -0.49619  -0.49417  -0.49262  -0.49145
 Alpha  occ. eigenvalues --   -0.49029  -0.48913  -0.48733  -0.48697  -0.48385
 Alpha  occ. eigenvalues --   -0.48325  -0.48165  -0.47953  -0.47866  -0.47803
 Alpha  occ. eigenvalues --   -0.47604  -0.47548  -0.47476  -0.47244  -0.46994
 Alpha  occ. eigenvalues --   -0.46601  -0.46470  -0.46228  -0.46113  -0.46009
 Alpha  occ. eigenvalues --   -0.45774  -0.45646  -0.45546  -0.45438  -0.45190
 Alpha  occ. eigenvalues --   -0.45053  -0.44937  -0.44786  -0.44680  -0.44495
 Alpha  occ. eigenvalues --   -0.44455  -0.44169  -0.43997  -0.43851  -0.43585
 Alpha  occ. eigenvalues --   -0.43468  -0.43340  -0.43282  -0.43155  -0.42902
 Alpha  occ. eigenvalues --   -0.42765  -0.42705  -0.42627  -0.42565  -0.42411
 Alpha  occ. eigenvalues --   -0.42284  -0.42079  -0.41995  -0.41872  -0.41734
 Alpha  occ. eigenvalues --   -0.41318  -0.41214  -0.41024  -0.40820  -0.40548
 Alpha  occ. eigenvalues --   -0.40440  -0.40397  -0.40310  -0.40233  -0.40222
 Alpha  occ. eigenvalues --   -0.39841  -0.39779  -0.39766  -0.39360  -0.38314
 Alpha  occ. eigenvalues --   -0.38135  -0.37819  -0.37626  -0.37108  -0.37047
 Alpha  occ. eigenvalues --   -0.36870  -0.36476  -0.36006  -0.35945  -0.35603
 Alpha  occ. eigenvalues --   -0.35559  -0.34944  -0.33687  -0.33618  -0.33056
 Alpha  occ. eigenvalues --   -0.32806  -0.32601  -0.32511  -0.31803  -0.31488
 Alpha  occ. eigenvalues --   -0.31104  -0.31090  -0.30746  -0.30300  -0.29816
 Alpha  occ. eigenvalues --   -0.29739  -0.28983  -0.27767  -0.23507  -0.22857
 Alpha  occ. eigenvalues --   -0.21601  -0.20685
 Alpha virt. eigenvalues --   -0.09091  -0.08245  -0.00791  -0.00325   0.00871
 Alpha virt. eigenvalues --    0.01392   0.02444   0.02700   0.03223   0.03307
 Alpha virt. eigenvalues --    0.04717   0.05317   0.05736   0.06022   0.06234

 Mulliken charges:
               1
     1  Mg  11.996102
     2  C    6.011881
     3  C    5.998965
     4  C    5.985862
     5  C    6.001195
     6  N    7.010211
     7  C    5.982424
     8  C    6.004035
     9  C    5.995386
    10  C    6.015956
    11  C    5.995646
    12  C    6.001845
    13  C    6.000442
    14  H    1.001460
    15  N    6.990240
    16  C    6.025123
    17  C    6.016682
    18  C    6.006935
    19  C    6.027696
    20  C    5.996353
    21  C    6.009268
    22  O    8.016827
    23  C    5.995066
    24  N    6.998284
    25  C    6.023516
    26  C    5.989703
    27  C    6.007346
    28  C    5.987934
    29  C    5.999616
    30  C    6.001343
    31  C    5.999398
    32  N    6.999752
    33  C    5.970445
    34  C    5.959581
    35  C    5.999443
    36  C    5.974569
    37  C    5.998646
    38  C    5.986758
    39  O    7.987604
    40  C    5.999558
    41  C    5.997177
    42  O    7.992497
    43  O    8.001420
    44  C    6.000515
    45  H    1.010569
    46  H    1.005942
    47  H    0.994812
    48  H    1.002815
    49  H    1.002819
    50  H    1.004188
    51  H    1.011183
    52  H    0.999457
    53  H    0.991550
    54  H    1.000632
    55  H    1.002814
    56  H    0.997684
    57  H    1.014403
    58  H    1.012984
    59  H    1.014481
    60  H    1.005483
    61  H    1.004771
    62  H    1.011630
    63  H    1.002482
    64  H    1.001283
    65  H    0.996897
    66  H    1.008096
    67  H    1.003241
    68  H    1.000014
    69  H    0.994747
    70  H    0.999418
    71  H    0.999341
    72  H    1.004120
    73  H    0.984449
    74  H    0.993466
    75  H    0.989813
    76  H    0.998022
    77  H    0.997415
    78  H    0.999243
    79  H    1.000417
    80  Mg  12.002867
    81  C    5.983460
    82  C    6.011578
    83  C    6.017201
    84  C    5.998852
    85  N    6.993481
    86  C    6.028185
    87  C    5.988684
    88  C    6.001719
    89  C    5.980729
    90  C    6.002841
    91  C    5.997707
    92  C    6.000008
    93  H    1.001039
    94  N    7.004670
    95  C    5.966662
    96  C    5.984501
    97  C    5.984007
    98  C    5.972816
    99  C    6.005204
   100  C    5.988280
   101  O    7.979150
   102  C    6.003846
   103  N    7.006361
   104  C    5.969391
   105  C    6.008115
   106  C    5.991978
   107  C    6.022065
   108  C    5.999365
   109  C    5.997340
   110  C    5.994377
   111  N    6.999190
   112  C    6.024161
   113  C    6.042829
   114  C    6.004354
   115  C    6.020637
   116  C    5.998234
   117  C    6.011131
   118  O    8.016612
   119  C    6.001213
   120  C    6.002923
   121  O    8.003449
   122  O    8.000435
   123  C    5.999460
   124  H    0.989512
   125  H    0.993815
   126  H    1.006895
   127  H    1.000113
   128  H    0.999691
   129  H    0.997582
   130  H    0.989051
   131  H    1.001774
   132  H    1.006369
   133  H    0.997524
   134  H    1.002244
   135  H    0.997788
   136  H    0.985353
   137  H    0.983237
   138  H    0.981776
   139  H    0.990971
   140  H    0.986835
   141  H    0.998343
   142  H    0.999837
   143  H    1.000394
   144  H    0.990247
   145  H    0.998283
   146  H    1.002085
   147  H    1.005935
   148  H    0.995241
   149  H    1.002765
   150  H    1.002999
   151  H    1.006720
   152  H    1.021109
   153  H    1.013054
   154  H    1.010721
   155  H    1.005967
   156  H    1.001365
   157  H    1.003262
   158  H    0.998645
 Sum of Mulliken charges = 624.00000

 Dipole moment (field-independent basis, Debye):
    X=             16.7500    Y=             -0.0022    Z=              3.4238  Tot=             17.0963
 Quadrupole moment (field-independent basis, Debye-Ang):
   XX=            -14.0608   YY=              0.1692   ZZ=              1.0380
   XY=            -22.9896   XZ=             -0.7294   YZ=             -2.5302

 Normal termination of Gaussian 16 at Wed Sep 22 15:32:32 2021.
