 Gaussian 16, Revision A.03,
 Gaussian 16:  ES64L-G16RevA.03 25-Dec-2016

 -----------------------------------
 #p cam-b3lyp/Def2SVP td=(nstates=5)
 -----------------------------------

 --------------------------------
 TDDFT excited states in gaussian
 --------------------------------
 Symbolic Z-matrix:
 Charge =  0 Multiplicity = 1

                         Standard orientation:
 ---------------------------------------------------------------------
 Center     Atomic      Atomic             Coordinates (Angstroms)
 Number     Number       Type             X           Y           Z
 ---------------------------------------------------------------------
      1         12           0      -12.035476    0.136319   -0.552092
      2          6           0       -9.009545   -1.524293   -0.676751
      3          6           0      -13.597120   -2.924217   -0.340641
      4          6           0      -14.969418    1.769677    0.171326
      5          6           0      -10.391798    3.159441   -0.653300
      6          7           0      -11.377834   -1.948336   -0.312626
      7          6           0      -10.072275   -2.370131   -0.469760
      8          6           0       -9.954179   -3.890618   -0.406629
      9          6           0      -11.450040   -4.320018   -0.643572
     10          6           0      -12.176925   -3.010716   -0.373471
     11          6           0      -11.798283   -5.030501   -2.029274
     12          6           0       -9.283445   -4.482841    0.873734
     13          6           0       -8.262306   -5.575188    0.635791
     14          1           0       -8.753521   -6.933053    1.112986
     15          7           0      -13.963784   -0.516850   -0.136155
     16          6           0      -14.404173   -1.780016   -0.123491
     17          6           0      -15.840164   -1.823510    0.091584
     18          6           0      -16.339922   -0.542465    0.256287
     19          6           0      -15.086067    0.321109    0.154179
     20          6           0      -16.652435   -3.199357    0.215405
     21          6           0      -17.840604   -0.127463    0.424266
     22          8           0      -18.714511   -1.036458    0.505663
     23          6           0      -18.254247    1.289560    0.540740
     24          7           0      -12.595968    2.235231   -0.023876
     25          6           0      -13.839188    2.651247    0.051701
     26          6           0      -13.967095    4.152504   -0.100955
     27          6           0      -12.513678    4.708019   -0.281397
     28          6           0      -11.750013    3.303781   -0.407889
     29          6           0      -15.091164    4.753328   -1.004108
     30          6           0      -11.873995    5.618218    0.806817
     31          6           0      -10.672953    6.390298    0.301069
     32          7           0      -10.056664    0.725670   -0.636297
     33          6           0       -9.516243    2.026558   -0.759976
     34          6           0       -8.099518    1.897008   -0.966287
     35          6           0       -7.825766    0.507544   -0.979198
     36          6           0       -9.049024   -0.109422   -0.732278
     37          6           0       -7.136524    3.005779   -1.363902
     38          6           0       -6.798834   -0.395296   -1.150671
     39          8           0       -5.605359   -0.324807   -1.263439
     40          6           0       -7.497379   -1.812895   -0.811214
     41          6           0       -7.049274   -2.108771    0.619244
     42          8           0       -7.535591   -1.634477    1.627769
     43          8           0       -5.985906   -2.992438    0.528985
     44          6           0       -5.327530   -3.328057    1.787374
     45          1           0      -14.161756   -3.849670   -0.470465
     46          1           0      -15.937655    2.223906    0.390473
     47          1           0       -9.757394    4.029166   -0.836433
     48          1           0       -9.398197   -4.210345   -1.287492
     49          1           0      -11.744065   -4.909780    0.225425
     50          1           0      -12.863336   -4.817827   -2.121008
     51          1           0      -11.769088   -6.119826   -1.994115
     52          1           0      -11.232370   -4.708703   -2.903403
     53          1           0      -10.130404   -4.877718    1.435203
     54          1           0       -8.918535   -3.771697    1.614538
     55          1           0       -7.351768   -5.285994    1.161061
     56          1           0       -8.020171   -5.697815   -0.420062
     57          1           0      -16.045601   -4.104080    0.159650
     58          1           0      -17.419363   -3.261442   -0.557372
     59          1           0      -17.104445   -3.342158    1.195953
     60          1           0      -17.953830    1.830891   -0.355817
     61          1           0      -17.953154    1.718894    1.496401
     62          1           0      -19.334379    1.257516    0.403455
     63          1           0      -14.197337    4.699811    0.813358
     64          1           0      -12.328200    5.071211   -1.292509
     65          1           0      -15.772161    3.928817   -1.219577
     66          1           0      -14.716627    5.288292   -1.877586
     67          1           0      -15.708854    5.503555   -0.510219
     68          1           0      -11.655680    4.966172    1.652449
     69          1           0      -12.693200    6.258505    1.133820
     70          1           0      -10.638196    7.334315    0.845448
     71          1           0      -10.687298    6.632213   -0.762311
     72          1           0       -9.764297    5.870386    0.604715
     73          1           0       -6.151571    2.648384   -1.664434
     74          1           0       -7.065623    3.696207   -0.524435
     75          1           0       -7.525994    3.586836   -2.199912
     76          1           0       -7.271549   -2.559968   -1.572747
     77          1           0       -4.847225   -2.438087    2.194354
     78          1           0       -4.623748   -4.151351    1.669860
     79          1           0       -6.078165   -3.614130    2.523592
     80         12           0       11.017336    0.909823   -0.199040
     81          6           0       12.994663   -2.083763   -0.145848
     82          6           0        8.528398   -1.039686    1.463632
     83          6           0        9.404745    3.681760    0.803347
     84          6           0       13.812901    2.654888   -1.113302
     85          7           0       10.851464   -1.266456    0.572175
     86          6           0       11.749411   -2.287496    0.459707
     87          6           0       11.201251   -3.618892    1.082153
     88          6           0        9.637729   -3.281838    1.194344
     89          6           0        9.689435   -1.762962    1.150236
     90          6           0        8.792695   -3.815496    0.060419
     91          6           0       11.944298   -4.051653    2.335240
     92          6           0       12.316966   -5.551420    2.465009
     93          1           0       11.445897   -6.539050    3.372582
     94          7           0        9.108580    1.303070    0.918080
     95          6           0        8.217775    0.330519    1.418237
     96          6           0        7.043600    1.011534    1.977377
     97          6           0        7.282619    2.421957    1.737940
     98          6           0        8.632112    2.534635    1.227746
     99          6           0        5.893726    0.386617    2.673573
    100          6           0        6.282112    3.523593    1.982596
    101          8           0        5.145257    3.211435    2.257092
    102          6           0        6.597932    4.998987    1.895853
    103          7           0       11.613798    2.799438   -0.072996
    104          6           0       10.680408    3.786605    0.230434
    105          6           0       11.383135    5.138688    0.087811
    106          6           0       12.691567    4.805120   -0.718214
    107          6           0       12.687079    3.314368   -0.672231
    108          6           0       10.553948    6.353114   -0.470234
    109          6           0       14.026833    5.466487   -0.257864
    110          6           0       14.807296    6.245015   -1.266199
    111          7           0       12.954520    0.443583   -0.679232
    112          6           0       13.989550    1.251587   -1.116543
    113          6           0       15.118274    0.436880   -1.606331
    114          6           0       14.752481   -0.892589   -1.161523
    115          6           0       13.469168   -0.795380   -0.614977
    116          6           0       16.389169    0.851201   -2.300097
    117          6           0       15.227379   -2.307577   -1.144473
    118          8           0       16.278727   -2.780742   -1.470105
    119          6           0       14.144285   -3.066757   -0.384913
    120          6           0       13.696535   -4.209325   -1.246763
    121          8           0       13.125055   -3.967218   -2.288123
    122          8           0       13.898444   -5.516011   -0.709322
    123          6           0       13.274016   -6.648855   -1.457682
    124          1           0        7.721504   -1.611881    1.926546
    125          1           0        9.009953    4.670308    1.043770
    126          1           0       14.610084    3.233391   -1.584147
    127          1           0       11.210411   -4.436465    0.361898
    128          1           0        9.241390   -3.552115    2.173029
    129          1           0        8.889650   -3.138188   -0.787769
    130          1           0        7.774395   -3.908995    0.437555
    131          1           0        9.039847   -4.787416   -0.367919
    132          1           0       11.274304   -3.840250    3.168046
    133          1           0       12.772038   -3.358870    2.486655
    134          1           0       13.334002   -5.516143    2.856252
    135          1           0       12.370692   -6.067960    1.506598
    136          1           0        5.102072    0.297087    1.930300
    137          1           0        5.498482    1.087176    3.409232
    138          1           0        6.012109   -0.570970    3.182053
    139          1           0        5.796852    5.666891    2.211910
    140          1           0        6.795038    5.191110    0.841107
    141          1           0        7.490212    5.384043    2.388090
    142          1           0       11.537210    5.411554    1.132199
    143          1           0       12.491742    4.984882   -1.774133
    144          1           0        9.677457    6.001975   -1.015474
    145          1           0       11.187770    7.002267   -1.074089
    146          1           0       10.230677    6.994814    0.349119
    147          1           0       14.676463    4.693498    0.152579
    148          1           0       13.796012    6.071165    0.619069
    149          1           0       15.690959    5.673993   -1.550336
    150          1           0       15.145518    7.181191   -0.822243
    151          1           0       14.307668    6.507134   -2.198561
    152          1           0       16.827183    0.015989   -2.846216
    153          1           0       17.060237    1.213895   -1.520991
    154          1           0       16.163743    1.725007   -2.911716
    155          1           0       14.553876   -3.327962    0.590964
    156          1           0       13.895442   -6.892261   -2.319642
    157          1           0       12.302200   -6.361467   -1.858470
    158          1           0       13.137429   -7.513197   -0.808077
 ---------------------------------------------------------------------

 SCF Done:  E(RCAM-B3LYP) =  -4069.80880974     A.U. after   18 cycles

 Excitation energies and oscillator strengths:

 Excited State   1:      Singlet-A      1.6713 eV  741.83 nm  f=0.4306  <S**2>=0.000
     309 -> 316        0.16927
     312 -> 313        0.68839
     309 <- 316        0.10658
 This state for optimization and/or second-order correction.
 Total Energy, E(TD-HF/TD-DFT) =  -4069.74738940
 Copying the excited state density for this state as the 1-particle RhoCI density.

 Excited State   2:      Singlet-A      1.8638 eV  665.22 nm  f=0.3607  <S**2>=0.000
     310 -> 315        0.14279
     311 -> 314        0.68778

 Excited State   3:      Singlet-A      2.2363 eV  554.42 nm  f=0.1199  <S**2>=0.000
     309 -> 313        0.64082
     312 -> 316       -0.28157

 Excited State   4:      Singlet-A      2.2636 eV  547.74 nm  f=0.1316  <S**2>=0.000
     310 -> 314        0.64645
     311 -> 315       -0.24690
     311 -> 317       -0.10362

 Excited State   5:      Singlet-A      2.9911 eV  414.51 nm  f=0.0000  <S**2>=0.000
     311 -> 313        0.70700

 The electronic state is 1-A.
 Alpha  occ. eigenvalues --  -46.89350 -46.89194 -19.25151 -19.24454 -19.20617
 Alpha  occ. eigenvalues --  -19.20185 -19.19809 -19.19607 -19.17817 -19.17653
 Alpha  occ. eigenvalues --  -14.42633 -14.42263 -14.42001 -14.41585 -14.40504
 Alpha  occ. eigenvalues --  -14.39208 -14.39023 -14.38434 -10.40109 -10.39025
 Alpha  occ. eigenvalues --  -10.36991 -10.35289 -10.34348 -10.33335 -10.33024
 Alpha  occ. eigenvalues --  -10.32365 -10.32167 -10.31670 -10.31263 -10.31163
 Alpha  occ. eigenvalues --  -10.31075 -10.31030 -10.30573 -10.30382 -10.30303
 Alpha  occ. eigenvalues --  -10.30153 -10.30097 -10.29754 -10.29748 -10.29362
 Alpha  occ. eigenvalues --  -10.29122 -10.29118 -10.28969 -10.28718 -10.28536
 Alpha  occ. eigenvalues --  -10.28504 -10.28420 -10.28372 -10.28336 -10.28298
 Alpha  occ. eigenvalues --  -10.28261 -10.28015 -10.28011 -10.27942 -10.27869
 Alpha  occ. eigenvalues --  -10.27666 -10.27484 -10.27472 -10.27386 -10.27179
 Alpha  occ. eigenvalues --  -10.27132 -10.27117 -10.27092 -10.26898 -10.26891
 Alpha  occ. eigenvalues --  -10.26881 -10.26877 -10.26806 -10.26805 -10.26730
 Alpha  occ. eigenvalues --  -10.26718 -10.26462 -10.26407 -10.26394 -10.26382
 Alpha  occ. eigenvalues --  -10.26380 -10.26183 -10.25911 -10.25900 -10.25747
 Alpha  occ. eigenvalues --  -10.25735 -10.25639 -10.25402 -10.25216 -10.25196
 Alpha  occ. eigenvalues --  -10.23045  -3.17789  -3.17763  -1.92673  -1.92612
 Alpha  occ. eigenvalues --   -1.92251  -1.92224  -1.92093  -1.92070  -1.15397
 Alpha  occ. eigenvalues --   -1.15258  -1.11609  -1.10046  -1.09734  -1.09106
 Alpha  occ. eigenvalues --   -1.07841  -1.07760  -1.04537  -1.04466  -1.03791
 Alpha  occ. eigenvalues --   -1.03449  -1.03142  -1.02647  -1.02496  -1.01380
 Alpha  occ. eigenvalues --   -0.92632  -0.91507  -0.89291  -0.89132  -0.88763
 Alpha  occ. eigenvalues --   -0.88453  -0.88334  -0.87920  -0.87490  -0.87009
 Alpha  occ. eigenvalues --   -0.86587  -0.86099  -0.85769  -0.85510  -0.84458
 Alpha  occ. eigenvalues --   -0.84363  -0.83846  -0.83587  -0.83164  -0.82373
 Alpha  occ. eigenvalues --   -0.82009  -0.81701  -0.80654  -0.80432  -0.80163
 Alpha  occ. eigenvalues --   -0.80079  -0.78049  -0.77592  -0.77354  -0.77115
 Alpha  occ. eigenvalues --   -0.76699  -0.76672  -0.76229  -0.75276  -0.75093
 Alpha  occ. eigenvalues --   -0.75091  -0.72518  -0.72339  -0.71656  -0.71645
 Alpha  occ. eigenvalues --   -0.69675  -0.69443  -0.69067  -0.68812  -0.67857
 Alpha  occ. eigenvalues --   -0.67803  -0.67311  -0.66580  -0.65825  -0.65569
 Alpha  occ. eigenvalues --   -0.65430  -0.64971  -0.64629  -0.64415  -0.64188
 Alpha  occ. eigenvalues --   -0.63987  -0.62210  -0.61646  -0.59924  -0.59667
 Alpha  occ. eigenvalues --   -0.59436  -0.59423  -0.59058  -0.58978  -0.58947
 Alpha  occ. eigenvalues --   -0.58415  -0.58203  -0.57783  -0.57516  -0.57335
 Alpha  occ. eigenvalues --   -0.56397  -0.56391  -0.55543  -0.55435  -0.55305
 Alpha  occ. eigenvalues --   -0.54987  -0.54214  -0.54131  -0.53887  -0.53750
 Alpha  occ. eigenvalues --   -0.53682  -0.53276  -0.53246  -0.53112  -0.52963
 Alpha  occ. eigenvalues --   -0.52850  -0.52668  -0.52124  -0.51961  -0.51710
 Alpha  occ. eigenvalues --   -0.51588  -0.51538  -0.51195  -0.50979  -0.50959
 Alpha  occ. eigenvalues --   -0.50805  -0.50748  -0.50482  -0.50318  -0.50108
 Alpha  occ. eigenvalues --   -0.49962  -0.49820  -0.49761  -0.49747  -0.49616
 Alpha  occ. eigenvalues --   -0.49408  -0.49159  -0.48987  -0.48969  -0.48653
 Alpha  occ. eigenvalues --   -0.48551  -0.48478  -0.48469  -0.48172  -0.48065
 Alpha  occ. eigenvalues --   -0.47571  -0.47537  -0.47320  -0.47134  -0.46962
 Alpha  occ. eigenvalues --   -0.46856  -0.46503  -0.46285  -0.46254  -0.46140
 Alpha  occ. eigenvalues --   -0.46077  -0.46048  -0.45932  -0.45911  -0.45844
 Alpha  occ. eigenvalues --   -0.45698  -0.45169  -0.45133  -0.45130  -0.44991
 Alpha  occ. eigenvalues --   -0.44833  -0.44825  -0.44617  -0.44529  -0.44235
 Alpha  occ. eigenvalues --   -0.43890  -0.43646  -0.43530  -0.43490  -0.43359
 Alpha  occ. eigenvalues --   -0.43331  -0.43168  -0.43037  -0.42770  -0.42663
 Alpha  occ. eigenvalues --   -0.42523  -0.42505  -0.42434  -0.42428  -0.42318
 Alpha  occ. eigenvalues --   -0.42122  -0.41988  -0.41794  -0.41554  -0.41394
 Alpha  occ. eigenvalues --   -0.41001  -0.40718  -0.40707  -0.40457  -0.40361
 Alpha  occ. eigenvalues --   -0.40145  -0.40106  -0.39813  -0.39224  -0.39173
 Alpha  occ. eigenvalues --   -0.38932  -0.38353  -0.38009  -0.37576  -0.37288
 Alpha  occ. eigenvalues --   -0.37218  -0.37046  -0.36432  -0.36385  -0.36272
 Alpha  occ. eigenvalues --   -0.35707  -0.35286  -0.34935  -0.34372  -0.34273
 Alpha  occ. eigenvalues --   -0.34224  -0.33055  -0.33029  -0.32402  -0.31835
 Alpha  occ. eigenvalues --   -0.31485  -0.30982  -0.30806  -0.30328  -0.29595
 Alpha  occ. eigenvalues --   -0.29548  -0.29040  -0.28597  -0.24180  -0.24017
 Alpha  occ. eigenvalues --   -0.21431  -0.20996
 Alpha virt. eigenvalues --   -0.08856  -0.08401  -0.01743  -0.01370   0.00163
 Alpha virt. eigenvalues --    0.00602   0.01376   0.01852   0.02049   0.02774
 Alpha virt. eigenvalues --    0.04501   0.04510   0.05220   0.05726   0.05884

 Mulliken charges:
               1
     1  Mg   0.828835
     2  C   -0.030229
     3  C   -0.118254
     4  C   -0.096006
     5  C   -0.030415
     6  N   -0.261009
     7  C   -0.046152
     8  C   -0.037681
     9  C   -0.022634
    10  C    0.032155
    11  C    0.082844
    12  C    0.069587
    13  C   -0.053015
    14  H    0.008202
    15  N   -0.381616
    16  C    0.167508
    17  C   -0.137077
    18  C   -0.024726
    19  C    0.115438
    20  C    0.117016
    21  C    0.007320
    22  O   -0.226692
    23  C    0.070507
    24  N   -0.264311
    25  C    0.101495
    26  C   -0.027311
    27  C   -0.054123
    28  C    0.007649
    29  C    0.065046
    30  C    0.060311
    31  C    0.025608
    32  N   -0.347662
    33  C    0.034438
    34  C   -0.140069
    35  C    0.052464
    36  C    0.114899
    37  C    0.104385
    38  C   -0.012275
    39  O   -0.156719
    40  C   -0.046362
    41  C    0.232305
    42  O   -0.211865
    43  O   -0.335500
    44  C    0.185462
    45  H   -0.026124
    46  H   -0.042822
    47  H   -0.040997
    48  H   -0.000787
    49  H    0.006031
    50  H    0.004882
    51  H    0.021486
    52  H    0.031724
    53  H   -0.004075
    54  H    0.029014
    55  H    0.025732
    56  H    0.027140
    57  H   -0.002917
    58  H    0.040970
    59  H    0.035794
    60  H    0.040780
    61  H    0.068728
    62  H    0.028085
    63  H    0.010174
    64  H    0.006619
    65  H    0.011286
    66  H    0.019291
    67  H    0.006840
    68  H    0.016913
    69  H    0.001240
    70  H    0.007761
    71  H    0.022023
    72  H    0.031570
    73  H    0.034639
    74  H    0.016457
    75  H    0.019240
    76  H    0.024719
    77  H    0.038859
    78  H    0.041389
    79  H    0.026565
    80  Mg   0.850249
    81  C   -0.068660
    82  C   -0.046387
    83  C   -0.070051
    84  C   -0.117900
    85  N   -0.248456
    86  C   -0.056238
    87  C   -0.029313
    88  C   -0.067553
    89  C    0.027829
    90  C    0.088647
    91  C    0.079613
    92  C   -0.054144
    93  H    0.008478
    94  N   -0.346142
    95  C    0.095493
    96  C   -0.125660
    97  C   -0.028978
    98  C    0.139879
    99  C    0.130355
   100  C   -0.008911
   101  O   -0.203505
   102  C    0.048545
   103  N   -0.372462
   104  C    0.069299
   105  C   -0.081068
   106  C    0.022244
   107  C    0.057832
   108  C    0.063558
   109  C    0.049778
   110  C    0.008800
   111  N   -0.354515
   112  C    0.126818
   113  C   -0.181213
   114  C   -0.064085
   115  C    0.147613
   116  C    0.135415
   117  C    0.052902
   118  O   -0.136654
   119  C    0.059793
   120  C    0.212829
   121  O   -0.206778
   122  O   -0.375314
   123  C    0.175429
   124  H   -0.030589
   125  H   -0.056690
   126  H   -0.037594
   127  H    0.003878
   128  H    0.001794
   129  H    0.022173
   130  H    0.020682
   131  H    0.014282
   132  H    0.012473
   133  H    0.016621
   134  H    0.032504
   135  H    0.027163
   136  H    0.032104
   137  H    0.030949
   138  H    0.014302
   139  H    0.024282
   140  H    0.029817
   141  H    0.036674
   142  H    0.024695
   143  H    0.007091
   144  H    0.024026
   145  H    0.015591
   146  H    0.009000
   147  H    0.014354
   148  H   -0.000540
   149  H    0.015610
   150  H    0.013514
   151  H    0.015141
   152  H    0.047689
   153  H    0.030293
   154  H    0.012904
   155  H    0.041859
   156  H    0.044509
   157  H    0.034900
   158  H    0.047131
 Sum of Mulliken charges =  -0.00000

 Dipole moment (field-independent basis, Debye):
    X=             -3.5120    Y=              3.5742    Z=             -1.1998  Tot=              5.1525
 Quadrupole moment (field-independent basis, Debye-Ang):
   XX=           -498.7181   YY=           -437.4258   ZZ=           -517.7707
   XY=             11.0136   XZ=             31.2022   YZ=             -9.2198

 Normal termination of Gaussian 16 at Wed Sep  1 18:06:38 2021.
