 Gaussian 16, Revision A.03,
 Gaussian 16:  ES64L-G16RevA.03 25-Dec-2016

 -----------------------------------
 #p cam-b3lyp/Def2SVP td=(nstates=5)
 -----------------------------------

 --------------------------------
 TDDFT excited states in gaussian
 --------------------------------
 Symbolic Z-matrix:
 Charge =  0 Multiplicity = 1

                         Standard orientation:
 ---------------------------------------------------------------------
 Center     Atomic      Atomic             Coordinates (Angstroms)
 Number     Number       Type             X           Y           Z
 ---------------------------------------------------------------------
      1         12           0       13.446278    0.111764    0.138366
      2          6           0       10.157570   -0.975330   -0.425283
      3          6           0       14.360260   -0.840253   -2.924282
      4          6           0       16.440364    1.096492    0.872789
      5          6           0       12.569440    0.115511    3.648326
      6          7           0       12.357441   -0.900209   -1.421324
      7          6           0       11.039205   -1.100872   -1.542975
      8          6           0       10.689220   -1.775387   -2.844272
      9          6           0       12.112847   -2.096306   -3.453418
     10          6           0       12.998436   -1.230322   -2.578546
     11          6           0       12.581977   -3.586500   -3.506253
     12          6           0        9.895916   -0.757988   -3.813290
     13          6           0        8.609122   -1.379651   -4.448463
     14          1           0        7.684498   -0.246694   -5.154061
     15          7           0       15.050302    0.352143   -0.933319
     16          6           0       15.260478   -0.067280   -2.235883
     17          6           0       16.486616    0.513895   -2.709045
     18          6           0       17.180121    1.162640   -1.606863
     19          6           0       16.183754    1.003124   -0.479407
     20          6           0       16.941161    0.224969   -4.168582
     21          6           0       18.505381    1.894632   -1.428560
     22          8           0       18.896042    2.474527   -0.399305
     23          6           0       19.293935    1.962244   -2.688294
     24          7           0       14.336196    0.370855    2.028630
     25          6           0       15.642509    0.791433    1.985015
     26          6           0       16.230374    0.897354    3.392627
     27          6           0       14.944292    0.900192    4.260029
     28          6           0       13.880976    0.374382    3.293807
     29          6           0       17.296973   -0.246168    3.620374
     30          6           0       14.536501    2.295212    4.898931
     31          6           0       13.665459    2.248543    6.164517
     32          7           0       11.723317   -0.292811    1.402475
     33          6           0       11.559430   -0.237417    2.753428
     34          6           0       10.180321   -0.465495    3.122664
     35          6           0        9.595585   -0.689166    1.862713
     36          6           0       10.572143   -0.639212    0.857701
     37          6           0        9.461490   -0.477547    4.491360
     38          6           0        8.335054   -0.953175    1.226843
     39          8           0        7.194787   -0.933027    1.610214
     40          6           0        8.707358   -1.318141   -0.302811
     41          6           0        7.668481   -0.574617   -1.020434
     42          8           0        7.643394    0.640302   -1.341978
     43          8           0        6.702446   -1.477032   -1.263902
     44          6           0        5.488705   -1.025816   -1.946023
     45          1           0       14.645060   -1.064700   -3.954457
     46          1           0       17.425819    1.500452    1.114752
     47          1           0       12.338382    0.225762    4.709886
     48          1           0       10.054666   -2.657482   -2.754146
     49          1           0       12.297242   -1.724500   -4.461494
     50          1           0       13.390992   -3.704188   -2.785341
     51          1           0       12.960408   -3.726905   -4.518613
     52          1           0       11.862334   -4.369831   -3.270925
     53          1           0       10.486268   -0.298422   -4.606877
     54          1           0        9.685451    0.127308   -3.213140
     55          1           0        8.011344   -1.881451   -3.687849
     56          1           0        8.786032   -2.079651   -5.264689
     57          1           0       16.529829    1.005453   -4.807218
     58          1           0       16.437164   -0.628692   -4.623402
     59          1           0       17.984284   -0.052952   -4.317607
     60          1           0       18.802659    2.491525   -3.503991
     61          1           0       19.479862    0.907339   -2.893710
     62          1           0       20.280250    2.410284   -2.564430
     63          1           0       16.746874    1.857061    3.414191
     64          1           0       15.085971    0.235756    5.112361
     65          1           0       16.897524   -1.005507    4.292525
     66          1           0       18.259588    0.015763    4.058773
     67          1           0       17.551980   -0.858229    2.754990
     68          1           0       13.876328    2.718768    4.141561
     69          1           0       15.336180    3.002159    5.120974
     70          1           0       12.670106    2.660673    5.993614
     71          1           0       14.017568    2.741597    7.070849
     72          1           0       13.478895    1.190679    6.344110
     73          1           0       10.231366   -0.714159    5.225805
     74          1           0        8.662785   -1.220250    4.509088
     75          1           0        9.096087    0.536595    4.652564
     76          1           0        8.542588   -2.381933   -0.474887
     77          1           0        5.473884   -1.459274   -2.945868
     78          1           0        5.367475    0.055941   -1.900480
     79          1           0        4.631828   -1.480428   -1.448994
     80         12           0      -12.910105   -0.690989   -0.343504
     81          6           0      -12.934782    2.889016   -0.104403
     82          6           0       -9.354842   -0.376599   -0.488905
     83          6           0      -12.513552   -3.934214    0.439499
     84          6           0      -16.214733   -0.701327    0.537198
     85          7           0      -11.390902    1.053671   -0.261878
     86          6           0      -11.628040    2.395448   -0.192010
     87          6           0      -10.297454    3.225869   -0.213800
     88          6           0       -9.259526    2.124669   -0.743760
     89          6           0      -10.023005    0.854536   -0.403956
     90          6           0       -8.971870    2.188327   -2.226278
     91          6           0      -10.002949    3.931061    1.099821
     92          6           0       -9.513618    5.400979    1.029693
     93          1           0       -7.963016    5.759311    1.188093
     94          7           0      -11.138240   -2.058160   -0.150399
     95          6           0       -9.786565   -1.706962   -0.348344
     96          6           0       -8.964837   -2.918389   -0.237389
     97          6           0       -9.913231   -3.991268   -0.006667
     98          6           0      -11.205330   -3.369675    0.188857
     99          6           0       -7.486482   -3.006078   -0.302188
    100          6           0       -9.571892   -5.460175    0.009884
    101          8           0       -8.461408   -5.792008   -0.339316
    102          6           0      -10.528925   -6.554864    0.421947
    103          7           0      -14.155383   -2.003021    0.475123
    104          6           0      -13.780080   -3.341651    0.545863
    105          6           0      -14.989710   -4.128621    1.055537
    106          6           0      -16.195041   -3.135142    0.873555
    107          6           0      -15.477985   -1.864708    0.563229
    108          6           0      -15.231682   -5.573902    0.484217
    109          6           0      -17.239497   -3.028054    2.026772
    110          6           0      -18.678364   -3.250522    1.691901
    111          7           0      -14.346322    0.728334    0.007849
    112          6           0      -15.694859    0.589949    0.286584
    113          6           0      -16.386486    1.889455    0.183669
    114          6           0      -15.279388    2.819507    0.091568
    115          6           0      -14.114238    2.051269    0.006195
    116          6           0      -17.854089    2.219695    0.256002
    117          6           0      -14.960760    4.274230   -0.009761
    118          8           0      -15.671186    5.235276    0.073539
    119          6           0      -13.436703    4.333387   -0.021187
    120          6           0      -13.018204    5.112457   -1.232235
    121          8           0      -13.241979    4.650706   -2.330573
    122          8           0      -12.287675    6.313007   -0.983145
    123          6           0      -11.687704    6.987940   -2.173854
    124          1           0       -8.268502   -0.322838   -0.587646
    125          1           0      -12.562546   -4.993000    0.699234
    126          1           0      -17.300947   -0.765192    0.626198
    127          1           0      -10.290130    3.957835   -1.020924
    128          1           0       -8.350488    2.112419   -0.142546
    129          1           0       -9.785606    1.692625   -2.755130
    130          1           0       -7.996926    1.726839   -2.382553
    131          1           0       -8.918343    3.163903   -2.710605
    132          1           0       -9.191845    3.371171    1.564345
    133          1           0      -10.849236    3.760910    1.765310
    134          1           0      -10.071598    5.881483    1.833716
    135          1           0       -9.798739    5.907949    0.107772
    136          1           0       -7.245560   -3.309840   -1.320458
    137          1           0       -7.150985   -3.838280    0.316743
    138          1           0       -6.871566   -2.146063   -0.034250
    139          1           0      -10.095584   -7.552597    0.488737
    140          1           0      -11.295363   -6.575854   -0.352896
    141          1           0      -11.107039   -6.441892    1.338326
    142          1           0      -14.699332   -4.323153    2.088386
    143          1           0      -16.667637   -3.350806   -0.084230
    144          1           0      -14.707601   -5.705631   -0.462783
    145          1           0      -16.299150   -5.777448    0.401438
    146          1           0      -14.878894   -6.321838    1.193973
    147          1           0      -17.146134   -2.047271    2.492971
    148          1           0      -16.907647   -3.698779    2.819191
    149          1           0      -19.200484   -2.294160    1.712470
    150          1           0      -19.133202   -3.893402    2.445388
    151          1           0      -18.908478   -3.696492    0.724539
    152          1           0      -18.062350    3.181715   -0.211787
    153          1           0      -18.115686    2.226137    1.314497
    154          1           0      -18.404566    1.379991   -0.168621
    155          1           0      -13.119488    4.730306    0.943260
    156          1           0      -12.463421    7.551215   -2.692869
    157          1           0      -11.316906    6.255326   -2.890398
    158          1           0      -10.859064    7.630837   -1.877596
 ---------------------------------------------------------------------

 SCF Done:  E(RCAM-B3LYP) =  -4069.80232182     A.U. after   17 cycles

 Excitation energies and oscillator strengths:

 Excited State   1:      Singlet-A      1.6712 eV  741.89 nm  f=0.4328  <S**2>=0.000
     309 -> 316        0.16899
     312 -> 313        0.68765
     309 <- 316        0.10640
 This state for optimization and/or second-order correction.
 Total Energy, E(TD-HF/TD-DFT) =  -4069.74090630
 Copying the excited state density for this state as the 1-particle RhoCI density.

 Excited State   2:      Singlet-A      1.7273 eV  717.80 nm  f=0.3575  <S**2>=0.000
     310 -> 315        0.19719
     311 -> 314        0.67994
     310 <- 315        0.11046

 Excited State   3:      Singlet-A      2.2362 eV  554.44 nm  f=0.1287  <S**2>=0.000
     309 -> 313        0.64112
     312 -> 316       -0.28138

 Excited State   4:      Singlet-A      2.2496 eV  551.14 nm  f=0.0620  <S**2>=0.000
     310 -> 314        0.61698
     311 -> 315       -0.33564

 Excited State   5:      Singlet-A      2.9513 eV  420.10 nm  f=0.0000  <S**2>=0.000
     311 -> 313        0.70707

 The electronic state is 1-A.
 Alpha  occ. eigenvalues --  -46.89259 -46.87563 -19.25185 -19.24854 -19.20659
 Alpha  occ. eigenvalues --  -19.19663 -19.19660 -19.19025 -19.18418 -19.17921
 Alpha  occ. eigenvalues --  -14.42691 -14.42588 -14.41720 -14.41650 -14.39448
 Alpha  occ. eigenvalues --  -14.39271 -14.39092 -14.38396 -10.40150 -10.38558
 Alpha  occ. eigenvalues --  -10.35988 -10.35341 -10.34648 -10.34450 -10.32194
 Alpha  occ. eigenvalues --  -10.31701 -10.31324 -10.31223 -10.31182 -10.30991
 Alpha  occ. eigenvalues --  -10.30778 -10.30626 -10.30595 -10.30450 -10.30265
 Alpha  occ. eigenvalues --  -10.30217 -10.30166 -10.30105 -10.30031 -10.29455
 Alpha  occ. eigenvalues --  -10.29422 -10.29220 -10.29125 -10.29034 -10.28765
 Alpha  occ. eigenvalues --  -10.28710 -10.28595 -10.28570 -10.28533 -10.28490
 Alpha  occ. eigenvalues --  -10.28356 -10.28003 -10.27910 -10.27854 -10.27827
 Alpha  occ. eigenvalues --  -10.27732 -10.27728 -10.27710 -10.27705 -10.27671
 Alpha  occ. eigenvalues --  -10.27599 -10.27545 -10.27288 -10.27151 -10.26947
 Alpha  occ. eigenvalues --  -10.26826 -10.26795 -10.26638 -10.26514 -10.26488
 Alpha  occ. eigenvalues --  -10.26472 -10.26457 -10.26434 -10.26426 -10.26249
 Alpha  occ. eigenvalues --  -10.26248 -10.26057 -10.25967 -10.25865 -10.25835
 Alpha  occ. eigenvalues --  -10.25812 -10.25687 -10.25465 -10.25358 -10.25293
 Alpha  occ. eigenvalues --  -10.24429  -3.17828  -3.16406  -1.92676  -1.92289
 Alpha  occ. eigenvalues --   -1.92135  -1.91291  -1.90873  -1.90720  -1.15923
 Alpha  occ. eigenvalues --   -1.15297  -1.11660  -1.10761  -1.10152  -1.09384
 Alpha  occ. eigenvalues --   -1.07796  -1.05538  -1.05181  -1.04530  -1.04293
 Alpha  occ. eigenvalues --   -1.03583  -1.03510  -1.02707  -1.02402  -1.01446
 Alpha  occ. eigenvalues --   -0.92703  -0.92687  -0.89350  -0.89102  -0.88808
 Alpha  occ. eigenvalues --   -0.88393  -0.88250  -0.88039  -0.87543  -0.87438
 Alpha  occ. eigenvalues --   -0.86963  -0.86254  -0.86164  -0.85582  -0.84523
 Alpha  occ. eigenvalues --   -0.84421  -0.83903  -0.83817  -0.82472  -0.82425
 Alpha  occ. eigenvalues --   -0.82260  -0.81780  -0.81257  -0.80490  -0.80292
 Alpha  occ. eigenvalues --   -0.80136  -0.78210  -0.78105  -0.77421  -0.77311
 Alpha  occ. eigenvalues --   -0.76907  -0.76731  -0.76272  -0.75908  -0.75393
 Alpha  occ. eigenvalues --   -0.75157  -0.72778  -0.72580  -0.72122  -0.71715
 Alpha  occ. eigenvalues --   -0.69497  -0.69239  -0.68861  -0.68790  -0.67904
 Alpha  occ. eigenvalues --   -0.67848  -0.67208  -0.66642  -0.66042  -0.65886
 Alpha  occ. eigenvalues --   -0.65538  -0.65022  -0.64853  -0.64475  -0.64435
 Alpha  occ. eigenvalues --   -0.64250  -0.62256  -0.61758  -0.60228  -0.59831
 Alpha  occ. eigenvalues --   -0.59730  -0.59486  -0.59140  -0.59125  -0.58997
 Alpha  occ. eigenvalues --   -0.58629  -0.58261  -0.57967  -0.57586  -0.57144
 Alpha  occ. eigenvalues --   -0.56474  -0.56314  -0.55917  -0.55596  -0.55432
 Alpha  occ. eigenvalues --   -0.55366  -0.54355  -0.54264  -0.53912  -0.53795
 Alpha  occ. eigenvalues --   -0.53425  -0.53293  -0.53206  -0.53014  -0.52903
 Alpha  occ. eigenvalues --   -0.52765  -0.52547  -0.52213  -0.52176  -0.51769
 Alpha  occ. eigenvalues --   -0.51658  -0.51594  -0.51422  -0.51233  -0.51036
 Alpha  occ. eigenvalues --   -0.51017  -0.50860  -0.50722  -0.50378  -0.50378
 Alpha  occ. eigenvalues --   -0.50160  -0.50016  -0.49876  -0.49801  -0.49670
 Alpha  occ. eigenvalues --   -0.49413  -0.49242  -0.49054  -0.49042  -0.48915
 Alpha  occ. eigenvalues --   -0.48639  -0.48529  -0.48474  -0.48114  -0.48105
 Alpha  occ. eigenvalues --   -0.48011  -0.47629  -0.47411  -0.47253  -0.47022
 Alpha  occ. eigenvalues --   -0.46915  -0.46865  -0.46496  -0.46351  -0.46336
 Alpha  occ. eigenvalues --   -0.46314  -0.46118  -0.45991  -0.45901  -0.45900
 Alpha  occ. eigenvalues --   -0.45759  -0.45707  -0.45514  -0.45179  -0.45141
 Alpha  occ. eigenvalues --   -0.44886  -0.44875  -0.44587  -0.44026  -0.43723
 Alpha  occ. eigenvalues --   -0.43705  -0.43551  -0.43546  -0.43470  -0.43385
 Alpha  occ. eigenvalues --   -0.43240  -0.43088  -0.42867  -0.42851  -0.42836
 Alpha  occ. eigenvalues --   -0.42648  -0.42580  -0.42490  -0.42360  -0.42199
 Alpha  occ. eigenvalues --   -0.42068  -0.41901  -0.41856  -0.41488  -0.41336
 Alpha  occ. eigenvalues --   -0.41188  -0.41062  -0.40808  -0.40752  -0.40575
 Alpha  occ. eigenvalues --   -0.40510  -0.40311  -0.40198  -0.39589  -0.39229
 Alpha  occ. eigenvalues --   -0.38774  -0.38383  -0.37835  -0.37629  -0.37373
 Alpha  occ. eigenvalues --   -0.37272  -0.37086  -0.36990  -0.36441  -0.35741
 Alpha  occ. eigenvalues --   -0.35490  -0.35210  -0.34977  -0.34331  -0.33974
 Alpha  occ. eigenvalues --   -0.33926  -0.33119  -0.32963  -0.31720  -0.31538
 Alpha  occ. eigenvalues --   -0.31309  -0.31044  -0.30533  -0.30432  -0.30324
 Alpha  occ. eigenvalues --   -0.29609  -0.29599  -0.28675  -0.24242  -0.24177
 Alpha  occ. eigenvalues --   -0.21108  -0.21060
 Alpha virt. eigenvalues --   -0.08921  -0.08431  -0.02291  -0.01433  -0.00285
 Alpha virt. eigenvalues --    0.00531   0.01306   0.02413   0.02700   0.03151
 Alpha virt. eigenvalues --    0.04467   0.04503   0.04798   0.05150   0.05670

 Mulliken charges:
               1
     1  Mg   0.852768
     2  C    0.059562
     3  C   -0.070798
     4  C   -0.057510
     5  C   -0.106734
     6  N   -0.271040
     7  C    0.000323
     8  C   -0.067201
     9  C   -0.030290
    10  C    0.007074
    11  C    0.073746
    12  C    0.057187
    13  C   -0.089366
    14  H    0.003616
    15  N   -0.473330
    16  C    0.175994
    17  C   -0.108120
    18  C   -0.095536
    19  C    0.154272
    20  C    0.089101
    21  C    0.047414
    22  O   -0.209033
    23  C    0.040328
    24  N   -0.291848
    25  C    0.056784
    26  C   -0.031489
    27  C   -0.009883
    28  C    0.037015
    29  C    0.062901
    30  C    0.033908
    31  C   -0.009099
    32  N   -0.270826
    33  C    0.124390
    34  C   -0.199708
    35  C    0.032752
    36  C    0.059090
    37  C    0.139553
    38  C    0.025880
    39  O   -0.148424
    40  C   -0.069254
    41  C    0.203304
    42  O   -0.256750
    43  O   -0.319615
    44  C    0.175277
    45  H   -0.039465
    46  H    0.000552
    47  H   -0.042880
    48  H    0.012045
    49  H    0.003415
    50  H    0.020778
    51  H    0.015870
    52  H    0.020656
    53  H    0.007549
    54  H    0.035263
    55  H    0.036406
    56  H    0.033701
    57  H    0.029925
    58  H    0.006241
    59  H    0.032715
    60  H    0.052555
    61  H    0.030750
    62  H    0.020708
    63  H    0.015871
    64  H    0.001415
    65  H   -0.000307
    66  H    0.021535
    67  H    0.019830
    68  H    0.012283
    69  H    0.017904
    70  H    0.013108
    71  H    0.020631
    72  H    0.010287
    73  H    0.013448
    74  H    0.043307
    75  H    0.041278
    76  H    0.043705
    77  H    0.032122
    78  H    0.059117
    79  H    0.031299
    80  Mg   0.850093
    81  C   -0.068686
    82  C   -0.046495
    83  C   -0.070220
    84  C   -0.117859
    85  N   -0.248525
    86  C   -0.056108
    87  C   -0.029237
    88  C   -0.067567
    89  C    0.027904
    90  C    0.088630
    91  C    0.079494
    92  C   -0.054429
    93  H    0.009286
    94  N   -0.346054
    95  C    0.095254
    96  C   -0.125836
    97  C   -0.029204
    98  C    0.139893
    99  C    0.130456
   100  C   -0.009045
   101  O   -0.204445
   102  C    0.048568
   103  N   -0.372422
   104  C    0.069209
   105  C   -0.081030
   106  C    0.022217
   107  C    0.057897
   108  C    0.063565
   109  C    0.049716
   110  C    0.008749
   111  N   -0.354577
   112  C    0.126939
   113  C   -0.181116
   114  C   -0.063984
   115  C    0.147691
   116  C    0.135427
   117  C    0.053024
   118  O   -0.136383
   119  C    0.059810
   120  C    0.212873
   121  O   -0.206916
   122  O   -0.375187
   123  C    0.175416
   124  H   -0.030633
   125  H   -0.056775
   126  H   -0.037454
   127  H    0.003951
   128  H    0.002213
   129  H    0.021808
   130  H    0.020490
   131  H    0.014458
   132  H    0.012741
   133  H    0.016603
   134  H    0.032586
   135  H    0.027080
   136  H    0.030676
   137  H    0.030959
   138  H    0.014865
   139  H    0.023995
   140  H    0.029644
   141  H    0.037102
   142  H    0.024833
   143  H    0.007036
   144  H    0.023731
   145  H    0.015689
   146  H    0.009049
   147  H    0.014463
   148  H   -0.000420
   149  H    0.015687
   150  H    0.013647
   151  H    0.015107
   152  H    0.047815
   153  H    0.030490
   154  H    0.012931
   155  H    0.042126
   156  H    0.044545
   157  H    0.034771
   158  H    0.047405
 Sum of Mulliken charges =  -0.00000

 Dipole moment (field-independent basis, Debye):
    X=              1.9087    Y=             -4.3793    Z=             -2.0145  Tot=              5.1846
 Quadrupole moment (field-independent basis, Debye-Ang):
   XX=           -425.3213   YY=           -523.1733   ZZ=           -477.8961
   XY=             25.9166   XZ=            -41.2900   YZ=             -0.1075

 Normal termination of Gaussian 16 at Wed Sep  1 20:15:17 2021.
