 Gaussian 16, Revision A.03,
 Gaussian 16:  ES64L-G16RevA.03 25-Dec-2016

 -----------------------------------
 #p cam-b3lyp/Def2SVP td=(nstates=5)
 -----------------------------------

 --------------------------------
 TDDFT excited states in gaussian
 --------------------------------
 Symbolic Z-matrix:
 Charge =  0 Multiplicity = 1

                         Standard orientation:
 ---------------------------------------------------------------------
 Center     Atomic      Atomic             Coordinates (Angstroms)
 Number     Number       Type             X           Y           Z
 ---------------------------------------------------------------------
      1         12           0       26.828738   -0.812760    0.160008
      2          6           0       27.457672    2.224801   -1.256790
      3          6           0       25.309241    0.864216    2.878978
      4          6           0       26.398719   -3.757658    1.694897
      5          6           0       28.267863   -2.333282   -2.563172
      6          7           0       26.703906    1.278273    0.902690
      7          6           0       26.941213    2.370721    0.058709
      8          6           0       26.574257    3.720596    0.737778
      9          6           0       25.969575    3.171092    2.057097
     10          6           0       26.046142    1.656367    1.993261
     11          6           0       26.462200    3.687013    3.475957
     12          6           0       25.567480    4.669199   -0.050322
     13          6           0       25.250299    5.965457    0.742518
     14          1           0       25.898230    7.214138    0.142661
     15          7           0       25.905453   -1.374528    2.053983
     16          6           0       25.156960   -0.548022    2.864153
     17          6           0       24.724895   -1.377603    3.982866
     18          6           0       25.056900   -2.724540    3.627512
     19          6           0       25.797668   -2.688352    2.405950
     20          6           0       24.007921   -0.787649    5.135480
     21          6           0       24.771532   -3.951672    4.562017
     22          8           0       25.238895   -5.092145    4.367537
     23          6           0       23.953658   -3.769248    5.813932
     24          7           0       27.270099   -2.657274   -0.315975
     25          6           0       27.005716   -3.793269    0.499746
     26          6           0       27.728424   -5.014278   -0.022481
     27          6           0       27.856170   -4.632594   -1.495976
     28          6           0       27.747173   -3.114465   -1.506952
     29          6           0       29.113337   -5.248002    0.669356
     30          6           0       26.708638   -5.198337   -2.362226
     31          6           0       26.842088   -6.595698   -2.905419
     32          7           0       27.756769   -0.269356   -1.598967
     33          6           0       28.154705   -0.961956   -2.678341
     34          6           0       28.665987   -0.054917   -3.663081
     35          6           0       28.404990    1.209362   -3.179032
     36          6           0       27.803932    1.032239   -1.923125
     37          6           0       29.236469   -0.516579   -4.958595
     38          6           0       28.519665    2.570303   -3.489254
     39          8           0       28.939765    3.142706   -4.476295
     40          6           0       27.890468    3.316773   -2.221013
     41          6           0       28.921088    4.242373   -1.678505
     42          8           0       29.960778    3.943549   -1.143221
     43          8           0       28.499499    5.510008   -1.713772
     44          6           0       29.440337    6.547107   -1.138873
     45          1           0       24.722663    1.439548    3.598065
     46          1           0       26.259486   -4.725819    2.180087
     47          1           0       28.621145   -2.741241   -3.512123
     48          1           0       27.496585    4.261884    0.948779
     49          1           0       24.896626    3.364891    2.071906
     50          1           0       25.697633    3.782522    4.247400
     51          1           0       27.109069    4.555199    3.348559
     52          1           0       27.076812    2.869822    3.853281
     53          1           0       24.713157    4.021631   -0.243668
     54          1           0       26.018390    4.920706   -1.010195
     55          1           0       25.468191    5.816961    1.800146
     56          1           0       24.175989    6.124616    0.654405
     57          1           0       24.665975   -0.844262    6.002790
     58          1           0       23.046187   -1.298852    5.178645
     59          1           0       23.750840    0.253446    4.939671
     60          1           0       23.806449   -4.731753    6.303854
     61          1           0       22.967146   -3.490432    5.441048
     62          1           0       24.303082   -3.026406    6.530523
     63          1           0       27.135599   -5.917112    0.126910
     64          1           0       28.808883   -4.923759   -1.937838
     65          1           0       29.853643   -4.530241    0.318137
     66          1           0       29.456605   -6.267861    0.493684
     67          1           0       28.925706   -5.124865    1.735432
     68          1           0       26.450357   -4.550962   -3.199296
     69          1           0       25.774481   -5.150084   -1.802476
     70          1           0       26.000249   -7.163672   -2.510454
     71          1           0       27.713716   -6.980915   -2.376066
     72          1           0       26.967378   -6.652298   -3.986837
     73          1           0       28.483332   -0.464995   -5.743905
     74          1           0       29.787134   -1.457569   -4.977357
     75          1           0       29.980034    0.235814   -5.222069
     76          1           0       27.021015    3.883150   -2.555526
     77          1           0       29.729483    6.198095   -0.147324
     78          1           0       28.972618    7.522176   -1.000074
     79          1           0       30.303452    6.614993   -1.801451
     80         12           0      -27.535914   -0.469167   -0.303762
     81          6           0      -25.438762    2.354051   -0.423619
     82          6           0      -28.907450    0.841198    2.610414
     83          6           0      -29.257608   -3.297935   -0.055945
     84          6           0      -25.452547   -2.049812   -2.763769
     85          7           0      -27.198065    1.346287    0.944767
     86          6           0      -26.359345    2.416898    0.604450
     87          6           0      -26.783799    3.648143    1.383329
     88          6           0      -27.682566    3.108010    2.531886
     89          6           0      -27.954497    1.670584    1.994578
     90          6           0      -27.099094    3.209511    3.976184
     91          6           0      -27.450447    4.772712    0.517466
     92          6           0      -27.193464    6.248654    1.056243
     93          1           0      -26.394977    6.407428    2.352861
     94          7           0      -28.937912   -1.053511    0.973245
     95          6           0      -29.425914   -0.352122    2.062308
     96          6           0      -30.526935   -1.048188    2.663116
     97          6           0      -30.575592   -2.313799    1.995694
     98          6           0      -29.604884   -2.235450    0.918662
     99          6           0      -31.309367   -0.520800    3.904431
    100          6           0      -31.432127   -3.499405    2.299068
    101          8           0      -31.254724   -4.600303    1.725021
    102          6           0      -32.565871   -3.648178    3.355963
    103          7           0      -27.227898   -2.496683   -1.062919
    104          6           0      -28.155998   -3.456328   -0.888001
    105          6           0      -27.929131   -4.618666   -1.887083
    106          6           0      -26.709386   -4.242555   -2.735922
    107          6           0      -26.467029   -2.774757   -2.168532
    108          6           0      -27.923624   -5.951155   -1.201952
    109          6           0      -26.876047   -4.293296   -4.269867
    110          6           0      -27.986622   -3.380552   -4.845804
    111          7           0      -25.739650   -0.027425   -1.376063
    112          6           0      -25.157001   -0.684819   -2.405692
    113          6           0      -24.190787    0.238299   -2.998976
    114          6           0      -24.245541    1.477595   -2.301772
    115          6           0      -25.185979    1.256590   -1.266329
    116          6           0      -23.362042   -0.025152   -4.253438
    117          6           0      -23.716251    2.801319   -2.217838
    118          8           0      -22.959706    3.463338   -2.923342
    119          6           0      -24.465427    3.446270   -0.878359
    120          6           0      -23.410636    3.962271    0.082266
    121          8           0      -22.790124    3.248976    0.846062
    122          8           0      -23.335755    5.335859    0.036251
    123          6           0      -22.153086    5.997060    0.578156
    124          1           0      -29.349741    1.402496    3.435888
    125          1           0      -29.919939   -4.163082    0.012795
    126          1           0      -24.952624   -2.547636   -3.596901
    127          1           0      -25.903543    4.116408    1.823519
    128          1           0      -28.614648    3.671174    2.495300
    129          1           0      -27.142156    2.175506    4.316703
    130          1           0      -27.773071    3.770329    4.624866
    131          1           0      -26.081790    3.571583    4.124651
    132          1           0      -28.536998    4.692652    0.529159
    133          1           0      -27.123086    4.655129   -0.514745
    134          1           0      -28.162122    6.664216    1.334366
    135          1           0      -26.716617    6.806989    0.251018
    136          1           0      -31.532765   -1.378906    4.539521
    137          1           0      -32.263800   -0.068556    3.637040
    138          1           0      -30.890354    0.246876    4.554798
    139          1           0      -33.326823   -2.880268    3.213954
    140          1           0      -32.186843   -3.646863    4.377905
    141          1           0      -33.246407   -4.478191    3.169821
    142          1           0      -28.857884   -4.699761   -2.450372
    143          1           0      -25.887916   -4.817496   -2.307000
    144          1           0      -28.859992   -6.495251   -1.326953
    145          1           0      -27.676308   -5.825426   -0.147729
    146          1           0      -27.137260   -6.625628   -1.542627
    147          1           0      -27.162678   -5.329189   -4.452312
    148          1           0      -25.924206   -4.083209   -4.758584
    149          1           0      -27.472867   -2.703036   -5.527507
    150          1           0      -28.428753   -2.853103   -4.000525
    151          1           0      -28.820033   -3.917670   -5.298874
    152          1           0      -23.333848    0.832478   -4.924980
    153          1           0      -23.817398   -0.792760   -4.878503
    154          1           0      -22.383690   -0.391141   -3.940814
    155          1           0      -25.002721    4.312000   -1.266406
    156          1           0      -21.890824    5.461519    1.490959
    157          1           0      -22.295163    7.044866    0.842992
    158          1           0      -21.410488    5.961563   -0.218995
 ---------------------------------------------------------------------

 SCF Done:  E(RCAM-B3LYP) =  -4069.84054118     A.U. after   17 cycles

 Excitation energies and oscillator strengths:

 Excited State   1:      Singlet-A      1.6534 eV  749.87 nm  f=0.3903  <S**2>=0.000
     309 -> 315        0.16013
     312 -> 314        0.69080
     309 <- 315        0.10388
 This state for optimization and/or second-order correction.
 Total Energy, E(TD-HF/TD-DFT) =  -4069.77977927
 Copying the excited state density for this state as the 1-particle RhoCI density.

 Excited State   2:      Singlet-A      1.6591 eV  747.29 nm  f=0.4030  <S**2>=0.000
     310 -> 316       -0.16730
     311 -> 313        0.68827
     310 <- 316       -0.10534

 Excited State   3:      Singlet-A      2.1919 eV  565.66 nm  f=0.1543  <S**2>=0.000
     310 -> 313        0.65715
     311 -> 316        0.24517

 Excited State   4:      Singlet-A      2.2510 eV  550.79 nm  f=0.1082  <S**2>=0.000
     309 -> 314        0.63838
     312 -> 315       -0.28837

 Excited State   5:      Singlet-A      3.0562 eV  405.67 nm  f=0.0000  <S**2>=0.000
     312 -> 313        0.70711

 The electronic state is 1-A.
 Alpha  occ. eigenvalues --  -46.88912 -46.87501 -19.24915 -19.24261 -19.19374
 Alpha  occ. eigenvalues --  -19.19362 -19.19262 -19.18738 -19.18551 -19.18366
 Alpha  occ. eigenvalues --  -14.42718 -14.42554 -14.41739 -14.41436 -14.40277
 Alpha  occ. eigenvalues --  -14.39382 -14.38864 -14.38849 -10.39123 -10.38527
 Alpha  occ. eigenvalues --  -10.35592 -10.35480 -10.35211 -10.34939 -10.32290
 Alpha  occ. eigenvalues --  -10.32052 -10.31545 -10.31419 -10.31356 -10.30941
 Alpha  occ. eigenvalues --  -10.30803 -10.30735 -10.30563 -10.30472 -10.30355
 Alpha  occ. eigenvalues --  -10.30009 -10.29856 -10.29560 -10.29520 -10.29469
 Alpha  occ. eigenvalues --  -10.29295 -10.29265 -10.29042 -10.28991 -10.28979
 Alpha  occ. eigenvalues --  -10.28599 -10.28478 -10.28248 -10.28205 -10.28158
 Alpha  occ. eigenvalues --  -10.28095 -10.28056 -10.27980 -10.27949 -10.27855
 Alpha  occ. eigenvalues --  -10.27786 -10.27756 -10.27527 -10.27523 -10.27479
 Alpha  occ. eigenvalues --  -10.27459 -10.27454 -10.27367 -10.27366 -10.27116
 Alpha  occ. eigenvalues --  -10.26888 -10.26762 -10.26729 -10.26669 -10.26595
 Alpha  occ. eigenvalues --  -10.26530 -10.26350 -10.26335 -10.26262 -10.26164
 Alpha  occ. eigenvalues --  -10.26075 -10.25831 -10.25736 -10.25619 -10.25604
 Alpha  occ. eigenvalues --  -10.25574 -10.25525 -10.25297 -10.25098 -10.25015
 Alpha  occ. eigenvalues --  -10.24910  -3.17483  -3.16281  -1.92353  -1.91938
 Alpha  occ. eigenvalues --   -1.91796  -1.91183  -1.90752  -1.90580  -1.16910
 Alpha  occ. eigenvalues --   -1.15453  -1.10437  -1.09452  -1.08416  -1.08277
 Alpha  occ. eigenvalues --   -1.07460  -1.07140  -1.05439  -1.04333  -1.03921
 Alpha  occ. eigenvalues --   -1.03472  -1.03220  -1.03099  -1.02118  -1.01959
 Alpha  occ. eigenvalues --   -0.93333  -0.92192  -0.89213  -0.89081  -0.88778
 Alpha  occ. eigenvalues --   -0.88661  -0.88555  -0.88152  -0.87905  -0.87372
 Alpha  occ. eigenvalues --   -0.87171  -0.86805  -0.86567  -0.85319  -0.84326
 Alpha  occ. eigenvalues --   -0.83968  -0.83822  -0.83342  -0.82528  -0.82191
 Alpha  occ. eigenvalues --   -0.81580  -0.81213  -0.81070  -0.80635  -0.80632
 Alpha  occ. eigenvalues --   -0.80043  -0.78712  -0.78385  -0.77555  -0.77216
 Alpha  occ. eigenvalues --   -0.76955  -0.76777  -0.76210  -0.75842  -0.75201
 Alpha  occ. eigenvalues --   -0.74990  -0.73219  -0.72546  -0.71809  -0.71089
 Alpha  occ. eigenvalues --   -0.69930  -0.69445  -0.69141  -0.68956  -0.68339
 Alpha  occ. eigenvalues --   -0.68316  -0.67531  -0.66081  -0.65799  -0.65223
 Alpha  occ. eigenvalues --   -0.64953  -0.64918  -0.64622  -0.64185  -0.64157
 Alpha  occ. eigenvalues --   -0.64138  -0.62083  -0.61640  -0.60911  -0.60251
 Alpha  occ. eigenvalues --   -0.59991  -0.59494  -0.59116  -0.58880  -0.58799
 Alpha  occ. eigenvalues --   -0.58325  -0.58077  -0.58018  -0.57424  -0.56958
 Alpha  occ. eigenvalues --   -0.56550  -0.56082  -0.55903  -0.55768  -0.55023
 Alpha  occ. eigenvalues --   -0.54928  -0.54755  -0.54748  -0.54247  -0.53950
 Alpha  occ. eigenvalues --   -0.53480  -0.53464  -0.53350  -0.53055  -0.52936
 Alpha  occ. eigenvalues --   -0.52781  -0.52714  -0.52550  -0.52353  -0.52286
 Alpha  occ. eigenvalues --   -0.51993  -0.51763  -0.51668  -0.51326  -0.51325
 Alpha  occ. eigenvalues --   -0.51031  -0.50726  -0.50371  -0.50250  -0.50022
 Alpha  occ. eigenvalues --   -0.49984  -0.49902  -0.49732  -0.49521  -0.49286
 Alpha  occ. eigenvalues --   -0.49273  -0.49209  -0.49032  -0.48944  -0.48772
 Alpha  occ. eigenvalues --   -0.48760  -0.48610  -0.48260  -0.48193  -0.48082
 Alpha  occ. eigenvalues --   -0.47878  -0.47757  -0.47740  -0.47500  -0.47420
 Alpha  occ. eigenvalues --   -0.47120  -0.46926  -0.46688  -0.46519  -0.46455
 Alpha  occ. eigenvalues --   -0.46380  -0.46299  -0.46032  -0.45853  -0.45836
 Alpha  occ. eigenvalues --   -0.45498  -0.45468  -0.45273  -0.45208  -0.44724
 Alpha  occ. eigenvalues --   -0.44694  -0.44554  -0.44244  -0.44226  -0.44081
 Alpha  occ. eigenvalues --   -0.44003  -0.43751  -0.43713  -0.43555  -0.43408
 Alpha  occ. eigenvalues --   -0.43335  -0.43140  -0.43047  -0.42846  -0.42643
 Alpha  occ. eigenvalues --   -0.42419  -0.42004  -0.41929  -0.41852  -0.41807
 Alpha  occ. eigenvalues --   -0.41625  -0.41606  -0.41552  -0.41536  -0.41123
 Alpha  occ. eigenvalues --   -0.40877  -0.40739  -0.40638  -0.40611  -0.40411
 Alpha  occ. eigenvalues --   -0.40104  -0.40042  -0.39821  -0.39637  -0.39248
 Alpha  occ. eigenvalues --   -0.38684  -0.38437  -0.38060  -0.37808  -0.37639
 Alpha  occ. eigenvalues --   -0.37476  -0.36933  -0.36827  -0.36663  -0.36566
 Alpha  occ. eigenvalues --   -0.36315  -0.35973  -0.34216  -0.34017  -0.34008
 Alpha  occ. eigenvalues --   -0.33747  -0.33276  -0.33064  -0.31473  -0.31459
 Alpha  occ. eigenvalues --   -0.31244  -0.30798  -0.30742  -0.30649  -0.30475
 Alpha  occ. eigenvalues --   -0.30299  -0.29496  -0.29095  -0.24606  -0.24127
 Alpha  occ. eigenvalues --   -0.21388  -0.21114
 Alpha virt. eigenvalues --   -0.09249  -0.09068  -0.01544  -0.01415  -0.00055
 Alpha virt. eigenvalues --    0.00409   0.01357   0.02162   0.02360   0.03416
 Alpha virt. eigenvalues --    0.04660   0.05201   0.05366   0.05382   0.06069

 Mulliken charges:
               1
     1  Mg   0.828527
     2  C    0.007438
     3  C   -0.059502
     4  C   -0.069237
     5  C   -0.093590
     6  N   -0.267912
     7  C   -0.051175
     8  C    0.020233
     9  C   -0.103969
    10  C    0.038321
    11  C    0.063726
    12  C    0.034971
    13  C   -0.056577
    14  H    0.031801
    15  N   -0.358570
    16  C    0.139189
    17  C   -0.203019
    18  C   -0.035935
    19  C    0.110410
    20  C    0.139558
    21  C    0.019212
    22  O   -0.225615
    23  C    0.056037
    24  N   -0.391525
    25  C    0.083641
    26  C   -0.019365
    27  C   -0.020643
    28  C    0.118464
    29  C    0.088229
    30  C   -0.004936
    31  C    0.053337
    32  N   -0.339567
    33  C    0.089628
    34  C   -0.168128
    35  C    0.069276
    36  C    0.103925
    37  C    0.107998
    38  C    0.017651
    39  O   -0.153790
    40  C   -0.052417
    41  C    0.180649
    42  O   -0.217062
    43  O   -0.331552
    44  C    0.179195
    45  H   -0.027498
    46  H   -0.006591
    47  H   -0.026951
    48  H    0.017569
    49  H    0.009473
    50  H    0.020292
    51  H    0.021738
    52  H    0.015383
    53  H    0.010981
    54  H    0.033011
    55  H    0.030012
    56  H    0.029344
    57  H    0.042911
    58  H    0.027719
    59  H    0.001105
    60  H    0.024413
    61  H    0.024871
    62  H    0.039974
    63  H    0.000242
    64  H   -0.003832
    65  H    0.020441
    66  H    0.019231
    67  H    0.019154
    68  H   -0.002516
    69  H   -0.003864
    70  H    0.012717
    71  H   -0.002496
    72  H    0.028754
    73  H    0.038347
    74  H    0.023658
    75  H    0.027407
    76  H    0.043198
    77  H    0.041477
    78  H    0.041638
    79  H    0.051355
    80  Mg   0.835537
    81  C    0.031210
    82  C   -0.057059
    83  C   -0.053476
    84  C   -0.058924
    85  N   -0.269247
    86  C   -0.044959
    87  C    0.001989
    88  C   -0.047186
    89  C   -0.014837
    90  C    0.074628
    91  C    0.034752
    92  C   -0.076609
    93  H    0.020617
    94  N   -0.405728
    95  C    0.178229
    96  C   -0.125140
    97  C   -0.000859
    98  C    0.109731
    99  C    0.101759
   100  C   -0.004291
   101  O   -0.244034
   102  C    0.051028
   103  N   -0.270212
   104  C    0.053230
   105  C   -0.078188
   106  C    0.027900
   107  C   -0.007804
   108  C    0.069547
   109  C    0.031237
   110  C    0.009340
   111  N   -0.344252
   112  C    0.135700
   113  C   -0.189197
   114  C    0.048249
   115  C    0.088846
   116  C    0.113938
   117  C    0.042997
   118  O   -0.170964
   119  C   -0.068810
   120  C    0.209043
   121  O   -0.207549
   122  O   -0.347375
   123  C    0.172025
   124  H   -0.027402
   125  H   -0.004045
   126  H   -0.028299
   127  H    0.008144
   128  H    0.006982
   129  H    0.010115
   130  H    0.012681
   131  H    0.036558
   132  H    0.005614
   133  H    0.014512
   134  H    0.032444
   135  H    0.046719
   136  H    0.016023
   137  H    0.027851
   138  H    0.023619
   139  H    0.009468
   140  H    0.052516
   141  H    0.023005
   142  H    0.010408
   143  H    0.009994
   144  H    0.021283
   145  H    0.019810
   146  H   -0.000302
   147  H    0.007289
   148  H    0.015363
   149  H    0.024406
   150  H    0.019924
   151  H    0.019865
   152  H    0.034814
   153  H   -0.002148
   154  H    0.035956
   155  H    0.036131
   156  H    0.043638
   157  H    0.035892
   158  H    0.046341
 Sum of Mulliken charges =  -0.00000

 Dipole moment (field-independent basis, Debye):
    X=             -7.8523    Y=              2.9846    Z=              2.8005  Tot=              8.8549
 Quadrupole moment (field-independent basis, Debye-Ang):
   XX=           -440.0794   YY=           -496.9079   ZZ=           -499.4258
   XY=            -35.2565   XZ=             10.8702   YZ=             58.1674

 Normal termination of Gaussian 16 at Thu Sep  2 09:28:54 2021.
