 Gaussian 16, Revision A.03,
 Gaussian 16:  ES64L-G16RevA.03 25-Dec-2016

 -----------------------------------
 #p cam-b3lyp/Def2SVP td=(nstates=5)
 -----------------------------------

 --------------------------------
 TDDFT excited states in gaussian
 --------------------------------
 Symbolic Z-matrix:
 Charge =  0 Multiplicity = 1

                         Standard orientation:
 ---------------------------------------------------------------------
 Center     Atomic      Atomic             Coordinates (Angstroms)
 Number     Number       Type             X           Y           Z
 ---------------------------------------------------------------------
      1         12           0      -10.807165    0.532338    0.156669
      2          6           0       -9.137447   -1.951613   -1.465682
      3          6           0      -11.002369   -1.581089    2.899764
      4          6           0      -12.108165    3.108414    1.872427
      5          6           0       -9.968884    2.792784   -2.407202
      6          7           0       -9.903903   -1.453702    0.732632
      7          6           0       -9.299733   -2.267876   -0.155893
      8          6           0       -8.809209   -3.524499    0.465124
      9          6           0       -9.777972   -3.541238    1.804422
     10          6           0      -10.287606   -2.085192    1.846016
     11          6           0      -10.890642   -4.628326    1.732304
     12          6           0       -7.336260   -3.383403    0.814803
     13          6           0       -6.865534   -2.166399    1.738412
     14          1           0       -5.802792   -2.377487    2.809588
     15          7           0      -11.461714    0.746277    2.100195
     16          6           0      -11.592868   -0.290044    3.058900
     17          6           0      -12.338880    0.242794    4.149633
     18          6           0      -12.634574    1.582987    3.933316
     19          6           0      -12.119055    1.894983    2.589635
     20          6           0      -12.654175   -0.676138    5.312363
     21          6           0      -13.279541    2.550816    4.896411
     22          8           0      -13.592881    2.075505    6.016284
     23          6           0      -13.370519    3.962825    4.732127
     24          7           0      -10.803420    2.698062   -0.148093
     25          6           0      -11.476375    3.529786    0.697882
     26          6           0      -11.433857    4.993436    0.197262
     27          6           0      -10.730552    4.855153   -1.194940
     28          6           0      -10.408503    3.370862   -1.234481
     29          6           0      -12.795188    5.653253    0.142735
     30          6           0       -9.428774    5.816093   -1.292429
     31          6           0       -9.278934    6.530594   -2.640397
     32          7           0       -9.751827    0.511507   -1.658638
     33          6           0       -9.660016    1.406519   -2.676069
     34          6           0       -9.153435    0.692472   -3.816413
     35          6           0       -8.946546   -0.682864   -3.451528
     36          6           0       -9.306139   -0.717850   -2.114397
     37          6           0       -8.657255    1.320155   -5.073826
     38          6           0       -8.460933   -1.975616   -3.813488
     39          8           0       -8.053814   -2.280240   -4.941680
     40          6           0       -8.600969   -2.834160   -2.570040
     41          6           0       -9.479682   -3.985882   -2.888152
     42          8           0       -9.176754   -4.728440   -3.801285
     43          8           0      -10.530877   -4.149484   -2.038563
     44          6           0      -11.392629   -5.297139   -2.328714
     45          1           0      -11.305735   -2.318896    3.645304
     46          1           0      -12.740169    3.863298    2.344483
     47          1           0       -9.833945    3.386058   -3.314348
     48          1           0       -8.883973   -4.447000   -0.110727
     49          1           0       -9.225691   -3.887931    2.678828
     50          1           0      -10.800357   -5.309822    2.577394
     51          1           0      -10.711218   -5.202162    0.822729
     52          1           0      -11.907557   -4.237147    1.680820
     53          1           0       -6.782213   -3.422504   -0.123295
     54          1           0       -7.101682   -4.371617    1.210230
     55          1           0       -7.650636   -1.681899    2.319057
     56          1           0       -6.411460   -1.500582    1.005092
     57          1           0      -11.777186   -0.634718    5.958605
     58          1           0      -12.752550   -1.694939    4.939657
     59          1           0      -13.551921   -0.442519    5.885491
     60          1           0      -13.361737    4.483691    5.690103
     61          1           0      -14.180571    4.274564    4.071523
     62          1           0      -12.410872    4.251481    4.305492
     63          1           0      -10.776300    5.479789    0.918651
     64          1           0      -11.461018    5.019334   -1.986897
     65          1           0      -13.598980    5.047375    0.560133
     66          1           0      -13.163798    6.115618   -0.772535
     67          1           0      -12.714961    6.417035    0.916787
     68          1           0       -8.484500    5.298774   -1.122313
     69          1           0       -9.409617    6.561093   -0.497199
     70          1           0       -9.519851    7.582892   -2.492102
     71          1           0      -10.043708    6.145968   -3.315481
     72          1           0       -8.277178    6.441084   -3.060888
     73          1           0       -9.393743    1.777716   -5.733276
     74          1           0       -8.123157    0.525271   -5.595766
     75          1           0       -7.958869    2.133944   -4.878323
     76          1           0       -7.599363   -3.199114   -2.340807
     77          1           0      -10.770219   -6.192264   -2.311975
     78          1           0      -11.953585   -5.194805   -3.257807
     79          1           0      -12.223792   -5.340733   -1.625042
     80         12           0       10.722787    0.426362    0.414240
     81          6           0        7.934996   -1.303338   -0.640460
     82          6           0       10.844286    1.855434   -2.692211
     83          6           0       13.616516    1.902316    1.337441
     84          6           0       10.836406   -1.509896    3.299916
     85          7           0        9.529040    0.125162   -1.494992
     86          6           0        8.387456   -0.433658   -1.621509
     87          6           0        7.639681   -0.235830   -3.039281
     88          6           0        8.785476    0.559397   -3.781156
     89          6           0        9.862505    0.822607   -2.624870
     90          6           0        9.524983   -0.251924   -4.969422
     91          6           0        6.252572    0.539086   -2.978106
     92          6           0        5.155637    0.158667   -4.034815
     93          1           0        5.592034   -0.716116   -5.171009
     94          7           0       11.977903    1.725359   -0.479059
     95          6           0       11.831573    2.308869   -1.798634
     96          6           0       12.922184    3.261639   -1.977747
     97          6           0       13.797848    3.204331   -0.864922
     98          6           0       13.125009    2.285642    0.081080
     99          6           0       12.902617    4.084976   -3.215075
    100          6           0       15.097089    3.982246   -0.550140
    101          8           0       15.819990    3.785654    0.380979
    102          6           0       15.546931    4.966178   -1.649043
    103          7           0       12.152175    0.191876    2.027701
    104          6           0       13.237377    0.877135    2.203861
    105          6           0       14.097052    0.305706    3.366902
    106          6           0       13.154837   -0.707527    4.060022
    107          6           0       11.943491   -0.686790    3.098269
    108          6           0       15.406000   -0.316273    2.835591
    109          6           0       12.840515   -0.317944    5.537045
    110          6           0       14.010661   -0.494656    6.518223
    111          7           0        9.620202   -1.119326    1.221607
    112          6           0        9.740223   -1.729253    2.457659
    113          6           0        8.627385   -2.634005    2.577821
    114          6           0        7.864323   -2.571710    1.373509
    115          6           0        8.547606   -1.577730    0.621230
    116          6           0        8.388475   -3.486281    3.684165
    117          6           0        6.702945   -2.992515    0.656607
    118          8           0        5.867162   -3.892054    0.969461
    119          6           0        6.789048   -2.254161   -0.735244
    120          6           0        6.857068   -3.273342   -1.760636
    121          8           0        7.886597   -3.862856   -2.088195
    122          8           0        5.569428   -3.539397   -2.151434
    123          6           0        5.459532   -4.740296   -3.006352
    124          1           0       10.923803    2.307830   -3.682439
    125          1           0       14.539223    2.436000    1.577456
    126          1           0       10.878010   -2.040861    4.253710
    127          1           0        7.573230   -1.250484   -3.432741
    128          1           0        8.381525    1.467314   -4.228613
    129          1           0        9.337607   -1.315162   -4.816705
    130          1           0       10.596677   -0.056599   -4.935082
    131          1           0        9.220454   -0.004187   -5.986799
    132          1           0        6.534347    1.577120   -3.152697
    133          1           0        5.821067    0.681818   -1.986786
    134          1           0        4.667398    1.019791   -4.490932
    135          1           0        4.389643   -0.444614   -3.547484
    136          1           0       13.364854    3.546083   -4.042633
    137          1           0       13.262981    5.101486   -3.056496
    138          1           0       11.854803    4.244310   -3.468523
    139          1           0       14.958594    5.882417   -1.707690
    140          1           0       15.451770    4.346798   -2.540330
    141          1           0       16.594814    5.263413   -1.620662
    142          1           0       14.256098    1.184217    3.991766
    143          1           0       13.588093   -1.706081    4.003222
    144          1           0       15.384384   -0.650728    1.798165
    145          1           0       15.765349   -1.232707    3.304869
    146          1           0       16.159394    0.463194    2.948930
    147          1           0       12.046274   -0.964567    5.907510
    148          1           0       12.483283    0.711588    5.578202
    149          1           0       14.887254   -0.778924    5.936073
    150          1           0       13.849993   -1.405680    7.094892
    151          1           0       14.219270    0.295189    7.239436
    152          1           0        8.564554   -2.855495    4.555575
    153          1           0        9.051380   -4.345518    3.784673
    154          1           0        7.392987   -3.918675    3.578319
    155          1           0        5.825335   -1.748365   -0.800193
    156          1           0        5.727018   -5.586247   -2.372544
    157          1           0        6.021385   -4.633106   -3.933625
    158          1           0        4.410077   -4.843866   -3.282509
 ---------------------------------------------------------------------

 SCF Done:  E(RCAM-B3LYP) =  -4069.82383065     A.U. after   18 cycles

 Excitation energies and oscillator strengths:

 Excited State   1:      Singlet-A      1.7417 eV  711.84 nm  f=0.3966  <S**2>=0.000
     309 -> 315       -0.17676
     311 -> 313        0.68516
     309 <- 315       -0.10380
 This state for optimization and/or second-order correction.
 Total Energy, E(TD-HF/TD-DFT) =  -4069.75982271
 Copying the excited state density for this state as the 1-particle RhoCI density.

 Excited State   2:      Singlet-A      1.7722 eV  699.60 nm  f=0.3714  <S**2>=0.000
     310 -> 316       -0.19898
     312 -> 314        0.67922
     310 <- 316       -0.10973

 Excited State   3:      Singlet-A      2.2143 eV  559.93 nm  f=0.1158  <S**2>=0.000
     310 -> 314        0.63860
     312 -> 316        0.27924

 Excited State   4:      Singlet-A      2.2175 eV  559.11 nm  f=0.1252  <S**2>=0.000
     309 -> 313        0.64596
     311 -> 315        0.25138

 Excited State   5:      Singlet-A      2.8419 eV  436.28 nm  f=0.0000  <S**2>=0.000
     312 -> 313        0.70706

 The electronic state is 1-A.
 Alpha  occ. eigenvalues --  -46.89082 -46.88319 -19.26356 -19.24667 -19.20098
 Alpha  occ. eigenvalues --  -19.19441 -19.19191 -19.18253 -19.18150 -19.18140
 Alpha  occ. eigenvalues --  -14.42137 -14.42056 -14.42029 -14.41463 -14.39763
 Alpha  occ. eigenvalues --  -14.39601 -14.38865 -14.38580 -10.39431 -10.38438
 Alpha  occ. eigenvalues --  -10.36207 -10.34815 -10.34670 -10.34423 -10.32706
 Alpha  occ. eigenvalues --  -10.31753 -10.31660 -10.31195 -10.31153 -10.31122
 Alpha  occ. eigenvalues --  -10.30602 -10.30594 -10.30501 -10.30403 -10.30361
 Alpha  occ. eigenvalues --  -10.30349 -10.30250 -10.30175 -10.29359 -10.29177
 Alpha  occ. eigenvalues --  -10.29070 -10.28951 -10.28890 -10.28847 -10.28825
 Alpha  occ. eigenvalues --  -10.28524 -10.28450 -10.28370 -10.28288 -10.28254
 Alpha  occ. eigenvalues --  -10.28180 -10.28105 -10.28019 -10.27963 -10.27708
 Alpha  occ. eigenvalues --  -10.27688 -10.27670 -10.27550 -10.27494 -10.27375
 Alpha  occ. eigenvalues --  -10.27331 -10.27269 -10.27147 -10.27143 -10.27106
 Alpha  occ. eigenvalues --  -10.27038 -10.27025 -10.27001 -10.26835 -10.26751
 Alpha  occ. eigenvalues --  -10.26607 -10.26541 -10.26504 -10.26450 -10.26289
 Alpha  occ. eigenvalues --  -10.26215 -10.26056 -10.25635 -10.25605 -10.25524
 Alpha  occ. eigenvalues --  -10.25342 -10.25252 -10.24969 -10.24580 -10.24527
 Alpha  occ. eigenvalues --  -10.24372  -3.17535  -3.16932  -1.92411  -1.92010
 Alpha  occ. eigenvalues --   -1.91826  -1.91817  -1.91394  -1.91236  -1.17380
 Alpha  occ. eigenvalues --   -1.15398  -1.12452  -1.09022  -1.08376  -1.07962
 Alpha  occ. eigenvalues --   -1.07108  -1.06654  -1.05300  -1.04950  -1.04521
 Alpha  occ. eigenvalues --   -1.04241  -1.03379  -1.02706  -1.01490  -1.00796
 Alpha  occ. eigenvalues --   -0.94041  -0.92434  -0.89253  -0.89252  -0.89037
 Alpha  occ. eigenvalues --   -0.88705  -0.88286  -0.87757  -0.87748  -0.87400
 Alpha  occ. eigenvalues --   -0.86883  -0.86780  -0.86303  -0.85826  -0.85077
 Alpha  occ. eigenvalues --   -0.84118  -0.83820  -0.83411  -0.83327  -0.82771
 Alpha  occ. eigenvalues --   -0.82242  -0.81653  -0.81425  -0.80959  -0.80867
 Alpha  occ. eigenvalues --   -0.80193  -0.78603  -0.78475  -0.77968  -0.77316
 Alpha  occ. eigenvalues --   -0.77048  -0.76281  -0.76110  -0.75648  -0.74930
 Alpha  occ. eigenvalues --   -0.74762  -0.72490  -0.72128  -0.72097  -0.71382
 Alpha  occ. eigenvalues --   -0.70094  -0.69350  -0.69114  -0.68830  -0.68690
 Alpha  occ. eigenvalues --   -0.68089  -0.67105  -0.66910  -0.66550  -0.65724
 Alpha  occ. eigenvalues --   -0.65341  -0.65306  -0.65180  -0.64675  -0.64351
 Alpha  occ. eigenvalues --   -0.63996  -0.63797  -0.61444  -0.60219  -0.59951
 Alpha  occ. eigenvalues --   -0.59700  -0.59318  -0.59286  -0.59046  -0.58792
 Alpha  occ. eigenvalues --   -0.58356  -0.58193  -0.57999  -0.57790  -0.57579
 Alpha  occ. eigenvalues --   -0.56812  -0.56567  -0.55915  -0.55778  -0.55611
 Alpha  occ. eigenvalues --   -0.55135  -0.55079  -0.54482  -0.54461  -0.54224
 Alpha  occ. eigenvalues --   -0.53904  -0.53725  -0.53466  -0.53266  -0.53086
 Alpha  occ. eigenvalues --   -0.53051  -0.52846  -0.52645  -0.52455  -0.51978
 Alpha  occ. eigenvalues --   -0.51872  -0.51836  -0.51812  -0.51385  -0.51273
 Alpha  occ. eigenvalues --   -0.51061  -0.51035  -0.50911  -0.50852  -0.50632
 Alpha  occ. eigenvalues --   -0.50315  -0.50305  -0.49572  -0.49449  -0.49354
 Alpha  occ. eigenvalues --   -0.49093  -0.49047  -0.48874  -0.48724  -0.48667
 Alpha  occ. eigenvalues --   -0.48452  -0.48445  -0.48392  -0.48115  -0.48103
 Alpha  occ. eigenvalues --   -0.47741  -0.47690  -0.47603  -0.47071  -0.46948
 Alpha  occ. eigenvalues --   -0.46704  -0.46542  -0.46403  -0.46387  -0.46374
 Alpha  occ. eigenvalues --   -0.46155  -0.46029  -0.45956  -0.45724  -0.45616
 Alpha  occ. eigenvalues --   -0.45526  -0.45187  -0.45029  -0.44830  -0.44774
 Alpha  occ. eigenvalues --   -0.44640  -0.44598  -0.44508  -0.44340  -0.44199
 Alpha  occ. eigenvalues --   -0.44067  -0.43707  -0.43668  -0.43517  -0.43448
 Alpha  occ. eigenvalues --   -0.43131  -0.42839  -0.42774  -0.42706  -0.42582
 Alpha  occ. eigenvalues --   -0.42420  -0.42296  -0.42224  -0.42158  -0.41885
 Alpha  occ. eigenvalues --   -0.41765  -0.41605  -0.41569  -0.41369  -0.41238
 Alpha  occ. eigenvalues --   -0.41112  -0.41097  -0.40914  -0.40581  -0.40464
 Alpha  occ. eigenvalues --   -0.40110  -0.39706  -0.39526  -0.39318  -0.39184
 Alpha  occ. eigenvalues --   -0.38630  -0.38136  -0.37877  -0.37792  -0.37649
 Alpha  occ. eigenvalues --   -0.37530  -0.37482  -0.36851  -0.36802  -0.36433
 Alpha  occ. eigenvalues --   -0.36241  -0.35922  -0.34661  -0.34230  -0.33964
 Alpha  occ. eigenvalues --   -0.33784  -0.33358  -0.33079  -0.31752  -0.31687
 Alpha  occ. eigenvalues --   -0.31124  -0.30857  -0.30417  -0.30295  -0.30075
 Alpha  occ. eigenvalues --   -0.30066  -0.29088  -0.28966  -0.24271  -0.23590
 Alpha  occ. eigenvalues --   -0.21641  -0.21162
 Alpha virt. eigenvalues --   -0.09115  -0.08344  -0.01858  -0.01615   0.00046
 Alpha virt. eigenvalues --    0.00178   0.01369   0.02040   0.02170   0.02676
 Alpha virt. eigenvalues --    0.05032   0.05563   0.05567   0.06041   0.06146

 Mulliken charges:
               1
     1  Mg   0.798099
     2  C    0.011973
     3  C   -0.057503
     4  C   -0.074978
     5  C   -0.069616
     6  N   -0.239848
     7  C   -0.031330
     8  C   -0.030408
     9  C   -0.077670
    10  C    0.066857
    11  C    0.065501
    12  C    0.047065
    13  C   -0.075321
    14  H    0.020715
    15  N   -0.433557
    16  C    0.129009
    17  C   -0.132383
    18  C   -0.006669
    19  C    0.148083
    20  C    0.133177
    21  C   -0.016234
    22  O   -0.242220
    23  C    0.084030
    24  N   -0.253737
    25  C    0.012230
    26  C   -0.005358
    27  C   -0.034243
    28  C    0.078970
    29  C    0.065285
    30  C    0.032843
    31  C   -0.000059
    32  N   -0.354073
    33  C    0.076933
    34  C   -0.161117
    35  C    0.052190
    36  C    0.082302
    37  C    0.092259
    38  C   -0.004226
    39  O   -0.166394
    40  C   -0.004914
    41  C    0.184417
    42  O   -0.197418
    43  O   -0.322804
    44  C    0.181854
    45  H   -0.028660
    46  H   -0.058675
    47  H   -0.033406
    48  H   -0.003060
    49  H    0.011110
    50  H    0.015966
    51  H    0.005827
    52  H    0.017786
    53  H    0.000337
    54  H    0.008065
    55  H    0.056855
    56  H    0.043661
    57  H    0.029147
    58  H    0.009196
    59  H    0.039415
    60  H    0.033916
    61  H    0.054537
    62  H    0.027230
    63  H    0.023262
    64  H    0.016193
    65  H    0.015959
    66  H    0.028932
    67  H    0.005041
    68  H    0.011740
    69  H    0.004091
    70  H    0.012449
    71  H    0.012509
    72  H    0.024722
    73  H    0.015167
    74  H    0.034264
    75  H    0.015451
    76  H    0.060032
    77  H    0.045834
    78  H    0.040460
    79  H    0.032933
    80  Mg   0.833994
    81  C    0.046734
    82  C   -0.061050
    83  C   -0.071448
    84  C   -0.093782
    85  N   -0.207338
    86  C   -0.140071
    87  C    0.027108
    88  C   -0.087856
    89  C    0.045261
    90  C    0.043953
    91  C    0.065416
    92  C   -0.077416
    93  H    0.020854
    94  N   -0.449196
    95  C    0.144285
    96  C   -0.127454
    97  C   -0.063172
    98  C    0.122858
    99  C    0.101072
   100  C    0.037154
   101  O   -0.159187
   102  C    0.015526
   103  N   -0.261544
   104  C    0.011082
   105  C    0.001191
   106  C   -0.019795
   107  C    0.031462
   108  C    0.063973
   109  C    0.026451
   110  C    0.015668
   111  N   -0.333844
   112  C    0.151061
   113  C   -0.161067
   114  C    0.054098
   115  C    0.083137
   116  C    0.103611
   117  C    0.016039
   118  O   -0.219907
   119  C   -0.011424
   120  C    0.205106
   121  O   -0.234030
   122  O   -0.335938
   123  C    0.186157
   124  H   -0.027657
   125  H   -0.015513
   126  H   -0.031385
   127  H    0.026041
   128  H    0.014688
   129  H    0.026910
   130  H    0.017475
   131  H    0.017784
   132  H   -0.007644
   133  H    0.015124
   134  H    0.035174
   135  H    0.042844
   136  H    0.043223
   137  H    0.020328
   138  H    0.020683
   139  H    0.049273
   140  H    0.033243
   141  H    0.022710
   142  H    0.011257
   143  H    0.008359
   144  H    0.021678
   145  H    0.013165
   146  H    0.028352
   147  H    0.004103
   148  H    0.007142
   149  H    0.004348
   150  H    0.003602
   151  H    0.027787
   152  H    0.017217
   153  H    0.026211
   154  H    0.033209
   155  H    0.033090
   156  H    0.049612
   157  H    0.038746
   158  H    0.031091
 Sum of Mulliken charges =  -0.00000

 Dipole moment (field-independent basis, Debye):
    X=             -2.1219    Y=              6.8797    Z=             -0.0363  Tot=              7.1996
 Quadrupole moment (field-independent basis, Debye-Ang):
   XX=           -453.1988   YY=           -480.6273   ZZ=           -536.3283
   XY=              7.6113   XZ=             -5.9529   YZ=            -37.2105

 Normal termination of Gaussian 16 at Wed Sep 15 19:21:23 2021.
