 Gaussian 16, Revision A.03,
 Gaussian 16:  ES64L-G16RevA.03 25-Dec-2016

 -----------------------------------------------------
 #p cam-b3lyp/Def2SVP td=(nstates=5) density=(current)
 -----------------------------------------------------

 --------------------------------
 TDDFT excited states in gaussian
 --------------------------------
 Symbolic Z-matrix:
 Charge =  0 Multiplicity = 1

                         Standard orientation:
 ---------------------------------------------------------------------
 Center     Atomic      Atomic             Coordinates (Angstroms)
 Number     Number       Type             X           Y           Z
 ---------------------------------------------------------------------
      1         12           0        0.726126    0.134897   -0.235187
      2          6           0       -2.741697   -0.039582   -0.352043
      3          6           0        0.704300   -3.326894   -0.447791
      4          6           0        4.067724    0.236754    0.388978
      5          6           0        0.510568    3.565270    0.141605
      6          7           0       -0.850476   -1.494532   -0.327415
      7          6           0       -2.226230   -1.338868   -0.402815
      8          6           0       -3.022596   -2.702525   -0.413450
      9          6           0       -1.841516   -3.705030   -0.113933
     10          6           0       -0.564535   -2.798488   -0.263433
     11          6           0       -1.764153   -4.460529    1.216007
     12          6           0       -3.761525   -2.896712   -1.750202
     13          6           0       -5.259710   -2.743869   -1.734680
     14          1           0       -6.062900   -3.690571   -2.644189
     15          7           0        2.239140   -1.282637   -0.239273
     16          6           0        1.992439   -2.607350   -0.423530
     17          6           0        3.308741   -3.268468   -0.330451
     18          6           0        4.274485   -2.306845    0.005418
     19          6           0        3.593966   -1.071516    0.057336
     20          6           0        3.470114   -4.690611   -0.686615
     21          6           0        5.736908   -2.466782    0.301525
     22          8           0        6.520287   -1.493864    0.484171
     23          6           0        6.388780   -3.730954    0.440797
     24          7           0        2.074034    1.643870    0.112657
     25          6           0        3.406848    1.455143    0.313986
     26          6           0        4.151092    2.707301    0.564695
     27          6           0        3.034571    3.804058    0.429299
     28          6           0        1.822957    2.962382    0.283048
     29          6           0        5.017425    2.945521    1.836406
     30          6           0        3.288681    4.911215   -0.709151
     31          6           0        2.905824    4.697466   -2.203765
     32          7           0       -0.749467    1.527408   -0.080831
     33          6           0       -0.695373    2.886969    0.030543
     34          6           0       -1.969122    3.435513   -0.142294
     35          6           0       -2.819520    2.265333   -0.207714
     36          6           0       -2.015835    1.142798   -0.193714
     37          6           0       -2.352111    4.910745   -0.244490
     38          6           0       -4.184605    1.887964   -0.437112
     39          8           0       -5.206723    2.494241   -0.686209
     40          6           0       -4.203020    0.324822   -0.303418
     41          6           0       -4.846116   -0.062630    0.967789
     42          8           0       -4.288912   -0.603769    1.948067
     43          8           0       -6.160843    0.238399    1.044845
     44          6           0       -6.984385   -0.310613    2.175625
     45          1           0        0.687743   -4.418178   -0.450318
     46          1           0        5.128414    0.333082    0.630822
     47          1           0        0.372717    4.647325    0.081547
     48          1           0       -3.603467   -2.845890    0.498270
     49          1           0       -1.854876   -4.421437   -0.935266
     50          1           0       -0.932234   -4.086282    1.813096
     51          1           0       -1.439222   -5.470299    0.969607
     52          1           0       -2.676694   -4.456956    1.813125
     53          1           0       -3.571836   -3.934086   -2.028317
     54          1           0       -3.278586   -2.268396   -2.498592
     55          1           0       -5.485781   -1.723130   -2.044161
     56          1           0       -5.730476   -2.819164   -0.754371
     57          1           0        4.143685   -4.687162   -1.542610
     58          1           0        2.592020   -5.288470   -0.934174
     59          1           0        3.960179   -5.217577    0.132029
     60          1           0        5.719268   -4.330391    1.057109
     61          1           0        7.429188   -3.600056    0.735505
     62          1           0        6.386206   -4.280077   -0.500809
     63          1           0        4.803295    2.695796   -0.308086
     64          1           0        2.921065    4.320576    1.381685
     65          1           0        6.077585    3.034024    1.598904
     66          1           0        4.941361    2.105723    2.527928
     67          1           0        4.699186    3.807801    2.422212
     68          1           0        4.375096    5.001079   -0.695644
     69          1           0        2.822822    5.780622   -0.245002
     70          1           0        2.308106    3.810201   -2.410956
     71          1           0        3.714610    4.809930   -2.926348
     72          1           0        2.304658    5.575321   -2.436896
     73          1           0       -3.091717    5.192521    0.505698
     74          1           0       -2.837388    5.056098   -1.209486
     75          1           0       -1.507517    5.600236   -0.236907
     76          1           0       -4.899125   -0.055100   -1.051410
     77          1           0       -7.960370   -0.104347    1.736073
     78          1           0       -6.833237    0.178293    3.137470
     79          1           0       -6.778617   -1.374559    2.297036
 ---------------------------------------------------------------------

 SCF Done:  E(RCAM-B3LYP) =  -2034.91036350     A.U. after   16 cycles

 Excitation energies and oscillator strengths:

 Excited State   1:      Singlet-A      1.7035 eV  727.83 nm  f=0.3865  <S**2>=0.000
     155 ->158        -0.17729
     156 ->157         0.68475
     155 <-158        -0.10755
 This state for optimization and/or second-order correction.
 Total Energy, E(TD-HF/TD-DFT) =  -2034.84776221
 Copying the excited state density for this state as the 1-particle RhoCI density.

 Excited State   2:      Singlet-A      2.2075 eV  561.65 nm  f=0.1418  <S**2>=0.000
     155 ->157         0.65096
     156 ->158         0.26114

 Excited State   3:      Singlet-A      3.3274 eV  372.61 nm  f=0.0049  <S**2>=0.000
     153 ->157         0.17557
     154 ->157         0.66387

 Excited State   4:      Singlet-A      3.4476 eV  359.63 nm  f=0.0153  <S**2>=0.000
     152 ->157         0.42568
     152 ->159         0.19204
     152 ->160         0.13022
     153 ->157         0.40035
     153 ->159         0.18569
     153 ->160         0.11864
     156 ->158        -0.12875

 Excited State   5:      Singlet-A      3.4762 eV  356.66 nm  f=0.0188  <S**2>=0.000
     152 ->157        -0.38932
     153 ->157         0.45260
     154 ->157        -0.18366
     156 ->158         0.26647

 The electronic state is 1-A.
 Alpha  occ. eigenvalues --  -46.87531 -19.24066 -19.18261 -19.18226 -19.17953
 Alpha  occ. eigenvalues --  -14.42004 -14.41862 -14.39533 -14.38360 -10.38541
 Alpha  occ. eigenvalues --  -10.34519 -10.34180 -10.32016 -10.30959 -10.30805
 Alpha  occ. eigenvalues --  -10.30595 -10.30468 -10.30124 -10.30026 -10.28906
 Alpha  occ. eigenvalues --  -10.28558 -10.28367 -10.28294 -10.28150 -10.27839
 Alpha  occ. eigenvalues --  -10.27733 -10.27665 -10.27379 -10.27257 -10.27254
 Alpha  occ. eigenvalues --  -10.27144 -10.27093 -10.26907 -10.26883 -10.26750
 Alpha  occ. eigenvalues --  -10.26698 -10.26316 -10.26001 -10.25914 -10.25891
 Alpha  occ. eigenvalues --  -10.25720 -10.25668 -10.24611  -3.16247  -1.91157
 Alpha  occ. eigenvalues --   -1.90705  -1.90550  -1.15136  -1.09527  -1.07951
 Alpha  occ. eigenvalues --   -1.05132  -1.04840  -1.04086  -1.03239  -1.02229
 Alpha  occ. eigenvalues --   -0.93083  -0.89037  -0.88448  -0.88299  -0.87576
 Alpha  occ. eigenvalues --   -0.87009  -0.86098  -0.84380  -0.83646  -0.82808
 Alpha  occ. eigenvalues --   -0.82462  -0.80987  -0.80545  -0.78556  -0.77510
 Alpha  occ. eigenvalues --   -0.76868  -0.76210  -0.75296  -0.73112  -0.71334
 Alpha  occ. eigenvalues --   -0.70105  -0.68775  -0.68002  -0.67100  -0.65200
 Alpha  occ. eigenvalues --   -0.65088  -0.64611  -0.64366  -0.61491  -0.59960
 Alpha  occ. eigenvalues --   -0.59644  -0.59148  -0.58593  -0.57795  -0.57305
 Alpha  occ. eigenvalues --   -0.56169  -0.55637  -0.54896  -0.54442  -0.53828
 Alpha  occ. eigenvalues --   -0.53247  -0.52911  -0.52527  -0.52438  -0.52075
 Alpha  occ. eigenvalues --   -0.51885  -0.51070  -0.50838  -0.50352  -0.50164
 Alpha  occ. eigenvalues --   -0.49762  -0.49637  -0.49426  -0.48941  -0.48805
 Alpha  occ. eigenvalues --   -0.48477  -0.48187  -0.47928  -0.47765  -0.47227
 Alpha  occ. eigenvalues --   -0.46753  -0.46495  -0.46249  -0.45991  -0.45706
 Alpha  occ. eigenvalues --   -0.45401  -0.45264  -0.45171  -0.44802  -0.44249
 Alpha  occ. eigenvalues --   -0.43981  -0.43817  -0.43793  -0.43416  -0.42893
 Alpha  occ. eigenvalues --   -0.42759  -0.42454  -0.41600  -0.41482  -0.41125
 Alpha  occ. eigenvalues --   -0.40793  -0.40332  -0.39980  -0.39704  -0.38924
 Alpha  occ. eigenvalues --   -0.38204  -0.37818  -0.36912  -0.36504  -0.36389
 Alpha  occ. eigenvalues --   -0.35603  -0.34306  -0.33188  -0.32881  -0.30993
 Alpha  occ. eigenvalues --   -0.30614  -0.30033  -0.29895  -0.29318  -0.23640
 Alpha  occ. eigenvalues --   -0.21110
 Alpha virt. eigenvalues --   -0.08689  -0.01308   0.00686   0.02362   0.03569
 Alpha virt. eigenvalues --    0.05046   0.05642   0.05775   0.06859   0.08063
 Alpha virt. eigenvalues --    0.08563   0.08808   0.09409   0.10125   0.10245

 Mulliken charges:
               1
     1  Mg   0.830297
     2  C   -0.029242
     3  C   -0.060584
     4  C   -0.078298
     5  C   -0.105528
     6  N   -0.279950
     7  C   -0.044602
     8  C   -0.004442
     9  C   -0.087648
    10  C    0.011862
    11  C    0.086465
    12  C    0.098696
    13  C   -0.086614
    14  H    0.020948
    15  N   -0.398398
    16  C    0.159427
    17  C   -0.171705
    18  C    0.026715
    19  C    0.113936
    20  C    0.105444
    21  C   -0.015938
    22  O   -0.254529
    23  C    0.088349
    24  N   -0.309896
    25  C    0.070075
    26  C   -0.045386
    27  C   -0.012713
    28  C    0.057298
    29  C    0.076911
    30  C    0.015413
    31  C    0.011234
    32  N   -0.358399
    33  C    0.126344
    34  C   -0.160764
    35  C   -0.006944
    36  C    0.190329
    37  C    0.132618
    38  C    0.014580
    39  O   -0.154947
    40  C   -0.051327
    41  C    0.190795
    42  O   -0.264141
    43  O   -0.324106
    44  C    0.186641
    45  H   -0.037252
    46  H   -0.007448
    47  H   -0.039955
    48  H    0.015945
    49  H    0.002521
    50  H    0.027066
    51  H    0.011328
    52  H    0.029797
    53  H    0.012899
    54  H    0.022537
    55  H    0.044319
    56  H    0.030474
    57  H    0.033776
    58  H    0.019024
    59  H    0.012997
    60  H    0.021369
    61  H    0.038545
    62  H    0.019967
    63  H    0.026517
    64  H    0.014890
    65  H    0.024505
    66  H    0.021014
    67  H    0.016434
    68  H    0.013281
    69  H    0.019106
    70  H    0.037769
    71  H    0.019118
    72  H    0.009143
    73  H    0.038435
    74  H    0.031399
    75  H    0.002747
    76  H    0.026626
    77  H    0.047437
    78  H    0.048786
    79  H    0.036609
 Sum of Mulliken charges =  -0.00000

 Dipole moment (field-independent basis, Debye):
    X=              1.2445    Y=             -1.8147    Z=             -0.5235  Tot=              2.2619
 Quadrupole moment (field-independent basis, Debye-Ang):
   XX=           -274.2240   YY=           -220.6817   ZZ=           -256.3694
   XY=             20.6267   XZ=             -9.8398   YZ=              3.3442

 Normal termination of Gaussian 16 at Fri Oct  8 12:49:17 2021.
