 Gaussian 16, Revision A.03,
 Gaussian 16:  ES64L-G16RevA.03 25-Dec-2016

 -----------------------------------
 #p cam-b3lyp/Def2SVP td=(nstates=5)
 -----------------------------------

 --------------------------------
 TDDFT excited states in gaussian
 --------------------------------
 Symbolic Z-matrix:
 Charge =  0 Multiplicity = 1

                         Standard orientation:
 ---------------------------------------------------------------------
 Center     Atomic      Atomic             Coordinates (Angstroms)
 Number     Number       Type             X           Y           Z
 ---------------------------------------------------------------------
      1         12           0      -13.086867   -0.412051    0.402878
      2          6           0      -13.299308    2.666164   -1.211740
      3          6           0      -11.915461    1.174834    3.221468
      4          6           0      -12.678612   -3.491028    1.727861
      5          6           0      -13.926720   -1.972215   -2.700386
      6          7           0      -12.570778    1.650838    0.860738
      7          6           0      -12.757391    2.751621    0.082999
      8          6           0      -12.440833    4.040936    0.851858
      9          6           0      -11.863672    3.462091    2.218664
     10          6           0      -12.159026    1.964921    2.080354
     11          6           0      -10.370877    3.728985    2.369313
     12          6           0      -13.672412    4.946627    1.210444
     13          6           0      -13.423374    6.424591    1.363818
     14          1           0      -12.053288    6.915109    1.515432
     15          7           0      -12.489511   -1.040903    2.221401
     16          6           0      -12.028980   -0.209923    3.262248
     17          6           0      -11.873132   -1.058276    4.414658
     18          6           0      -12.131096   -2.404426    4.051867
     19          6           0      -12.451698   -2.366174    2.603750
     20          6           0      -11.281197   -0.577913    5.722427
     21          6           0      -12.149897   -3.639387    4.851243
     22          8           0      -12.194559   -4.748324    4.362745
     23          6           0      -11.945338   -3.582179    6.408610
     24          7           0      -13.435317   -2.509804   -0.307575
     25          6           0      -13.166313   -3.549967    0.423455
     26          6           0      -13.403444   -4.875078   -0.361651
     27          6           0      -13.868302   -4.424759   -1.734636
     28          6           0      -13.703439   -2.864529   -1.651403
     29          6           0      -12.102328   -5.805539   -0.294143
     30          6           0      -15.290302   -4.912670   -2.083559
     31          6           0      -15.409966   -6.228704   -2.939495
     32          7           0      -13.759053    0.141028   -1.425807
     33          6           0      -14.062433   -0.590775   -2.600716
     34          6           0      -14.452537    0.268234   -3.652969
     35          6           0      -14.072024    1.579723   -3.137815
     36          6           0      -13.699518    1.393232   -1.775867
     37          6           0      -14.753517   -0.149610   -5.080710
     38          6           0      -13.977773    2.928260   -3.560620
     39          8           0      -14.261246    3.481680   -4.615626
     40          6           0      -13.516075    3.754915   -2.187873
     41          6           0      -12.311827    4.550815   -2.597623
     42          8           0      -11.270408    4.062059   -3.048193
     43          8           0      -12.537850    5.958177   -2.541890
     44          6           0      -11.383204    6.818905   -2.948341
     45          1           0      -11.547213    1.744004    4.078402
     46          1           0      -12.345409   -4.435114    2.163075
     47          1           0      -14.238300   -2.394539   -3.657624
     48          1           0      -11.675906    4.558488    0.272528
     49          1           0      -12.337761    3.897736    3.098087
     50          1           0      -10.030681    4.481283    1.658198
     51          1           0       -9.772855    2.818301    2.326117
     52          1           0      -10.107447    4.248379    3.290718
     53          1           0      -14.113395    4.550548    2.124523
     54          1           0      -14.436798    4.737412    0.461764
     55          1           0      -13.895537    6.728244    2.297881
     56          1           0      -13.856754    6.948043    0.511560
     57          1           0      -10.309656   -1.020423    5.942150
     58          1           0      -12.004310   -0.781147    6.513412
     59          1           0      -11.064815    0.488234    5.788384
     60          1           0      -10.868365   -3.510025    6.562544
     61          1           0      -12.203086   -4.542269    6.855911
     62          1           0      -12.419994   -2.697589    6.831480
     63          1           0      -14.197077   -5.356262    0.210239
     64          1           0      -13.152572   -4.689784   -2.511311
     65          1           0      -11.755278   -6.052811   -1.297299
     66          1           0      -12.291132   -6.787879    0.139276
     67          1           0      -11.361166   -5.196871    0.225476
     68          1           0      -15.756512   -4.100378   -2.642282
     69          1           0      -15.824444   -5.012275   -1.138522
     70          1           0      -15.335212   -5.945763   -3.990068
     71          1           0      -16.261799   -6.889218   -2.776501
     72          1           0      -14.463005   -6.707749   -2.693033
     73          1           0      -15.804723   -0.433419   -5.037870
     74          1           0      -14.157779   -1.012079   -5.377267
     75          1           0      -14.437309    0.539063   -5.865245
     76          1           0      -14.351516    4.370803   -1.852680
     77          1           0      -11.116335    6.665185   -3.993308
     78          1           0      -10.454688    6.743203   -2.381829
     79          1           0      -11.859016    7.794745   -2.851198
     80         12           0       12.670423   -0.854714   -0.237640
     81          6           0       14.899713    1.871762   -0.062247
     82          6           0       10.186540    1.204512    0.946139
     83          6           0       10.503140   -3.419760   -0.300424
     84          6           0       15.338274   -3.025833   -0.879511
     85          7           0       12.617040    1.284680    0.211170
     86          6           0       13.542585    2.239429    0.235908
     87          6           0       13.066999    3.650653    0.639434
     88          6           0       11.630763    3.214517    1.207962
     89          6           0       11.479938    1.770354    0.796503
     90          6           0       11.489104    3.391106    2.700304
     91          6           0       12.962308    4.702414   -0.598469
     92          6           0       13.122406    6.161661   -0.162100
     93          1           0       14.335144    6.885491   -0.801792
     94          7           0       10.550684   -1.071080    0.099736
     95          6           0        9.720869   -0.061514    0.647252
     96          6           0        8.359036   -0.529680    0.520902
     97          6           0        8.413218   -1.866784    0.137741
     98          6           0        9.859167   -2.194664   -0.066026
     99          6           0        7.147407    0.260053    0.978850
    100          6           0        7.322697   -2.877655   -0.133668
    101          8           0        7.609538   -3.966910   -0.536871
    102          6           0        5.872261   -2.541160    0.013119
    103          7           0       12.890910   -2.943961   -0.344937
    104          6           0       11.832267   -3.801079   -0.424603
    105          6           0       12.429057   -5.206169   -0.714983
    106          6           0       13.752053   -4.965161   -1.419627
    107          6           0       14.076114   -3.563018   -0.852398
    108          6           0       12.684762   -5.929734    0.606346
    109          6           0       13.688155   -5.030692   -2.900718
    110          6           0       12.581264   -4.300638   -3.620371
    111          7           0       14.708878   -0.676444   -0.473549
    112          6           0       15.685730   -1.622827   -0.719718
    113          6           0       16.988550   -0.945909   -0.812219
    114          6           0       16.704506    0.412114   -0.586015
    115          6           0       15.354049    0.518008   -0.393582
    116          6           0       18.289887   -1.586416   -1.036312
    117          6           0       17.236148    1.748286   -0.615996
    118          8           0       18.404391    2.169736   -0.862075
    119          6           0       16.026002    2.747807   -0.297317
    120          6           0       16.399483    3.477104    0.967183
    121          8           0       16.810759    2.919439    1.941125
    122          8           0       16.174325    4.880342    0.954797
    123          6           0       16.233380    5.544598    2.292369
    124          1           0        9.397298    1.828072    1.369887
    125          1           0        9.852848   -4.294826   -0.232895
    126          1           0       16.184164   -3.611030   -1.246935
    127          1           0       13.769139    4.092916    1.347290
    128          1           0       10.934647    3.871315    0.684833
    129          1           0       10.976375    4.342005    2.844320
    130          1           0       12.436851    3.294565    3.230403
    131          1           0       10.743365    2.646945    2.979750
    132          1           0       11.988141    4.610992   -1.079825
    133          1           0       13.687379    4.455300   -1.374172
    134          1           0       13.181866    6.056784    0.921408
    135          1           0       12.213481    6.740832   -0.323816
    136          1           0        7.503371    1.288340    1.029654
    137          1           0        7.003258   -0.093220    1.999492
    138          1           0        6.312583    0.184263    0.281828
    139          1           0        5.755046   -1.885437   -0.849832
    140          1           0        5.624055   -1.983728    0.915910
    141          1           0        5.264342   -3.443607   -0.059701
    142          1           0       11.784499   -5.877117   -1.281794
    143          1           0       14.541556   -5.678779   -1.186312
    144          1           0       13.697339   -5.984956    1.006153
    145          1           0       12.316700   -6.949378    0.492989
    146          1           0       12.056854   -5.466622    1.368354
    147          1           0       13.697833   -6.058902   -3.263142
    148          1           0       14.631161   -4.587869   -3.220723
    149          1           0       13.068374   -3.487157   -4.158794
    150          1           0       11.729460   -3.844042   -3.115463
    151          1           0       12.178155   -4.967375   -4.382482
    152          1           0       18.548648   -2.149348   -0.139573
    153          1           0       18.952972   -0.750900   -1.260373
    154          1           0       18.241517   -2.317641   -1.844321
    155          1           0       15.934242    3.358078   -1.195978
    156          1           0       17.269717    5.680385    2.601509
    157          1           0       15.703647    4.992610    3.070104
    158          1           0       15.858034    6.566664    2.334552
 ---------------------------------------------------------------------

 SCF Done:  E(RCAM-B3LYP) =  -4069.83518253     A.U. after   19 cycles

 Excitation energies and oscillator strengths:

 Excited State   1:      Singlet-A      1.6957 eV  731.19 nm  f=0.3768  <S**2>=0.000
     310 -> 316       -0.17390
     312 -> 314        0.68693
     310 <- 316       -0.10598
 This state for optimization and/or second-order correction.
 Total Energy, E(TD-HF/TD-DFT) =  -4069.77286818
 Copying the excited state density for this state as the 1-particle RhoCI density.

 Excited State   2:      Singlet-A      1.7262 eV  718.25 nm  f=0.3684  <S**2>=0.000
     309 -> 315        0.17528
     311 -> 313        0.68567
     309 <- 315        0.10545

 Excited State   3:      Singlet-A      2.1841 eV  567.67 nm  f=0.1138  <S**2>=0.000
     310 -> 314        0.64714
     312 -> 316        0.27031

 Excited State   4:      Singlet-A      2.2227 eV  557.82 nm  f=0.1481  <S**2>=0.000
     309 -> 313        0.65056
     311 -> 315       -0.26131

 Excited State   5:      Singlet-A      2.9701 eV  417.44 nm  f=0.0000  <S**2>=0.000
     312 -> 313        0.70708

 The electronic state is 1-A.
 Alpha  occ. eigenvalues --  -46.88635 -46.88095 -19.24514 -19.24267 -19.20058
 Alpha  occ. eigenvalues --  -19.19569 -19.19376 -19.19092 -19.18327 -19.18252
 Alpha  occ. eigenvalues --  -14.43427 -14.42796 -14.41757 -14.41352 -14.40278
 Alpha  occ. eigenvalues --  -14.39718 -14.39459 -14.39068 -10.39412 -10.39181
 Alpha  occ. eigenvalues --  -10.35576 -10.35197 -10.34753 -10.34446 -10.31863
 Alpha  occ. eigenvalues --  -10.31805 -10.31720 -10.31700 -10.31308 -10.31283
 Alpha  occ. eigenvalues --  -10.31266 -10.31133 -10.30963 -10.30959 -10.30914
 Alpha  occ. eigenvalues --  -10.30798 -10.30621 -10.30530 -10.29807 -10.29449
 Alpha  occ. eigenvalues --  -10.29401 -10.29007 -10.28977 -10.28871 -10.28818
 Alpha  occ. eigenvalues --  -10.28599 -10.28399 -10.28379 -10.28322 -10.28259
 Alpha  occ. eigenvalues --  -10.28214 -10.28213 -10.28158 -10.28143 -10.28051
 Alpha  occ. eigenvalues --  -10.27955 -10.27888 -10.27881 -10.27871 -10.27713
 Alpha  occ. eigenvalues --  -10.27601 -10.27584 -10.27540 -10.27237 -10.27138
 Alpha  occ. eigenvalues --  -10.27129 -10.26991 -10.26916 -10.26702 -10.26662
 Alpha  occ. eigenvalues --  -10.26598 -10.26456 -10.26451 -10.26437 -10.26436
 Alpha  occ. eigenvalues --  -10.26093 -10.25985 -10.25960 -10.25888 -10.25632
 Alpha  occ. eigenvalues --  -10.25402 -10.25127 -10.25118 -10.24640 -10.24465
 Alpha  occ. eigenvalues --  -10.24438  -3.17130  -3.16791  -1.92052  -1.91702
 Alpha  occ. eigenvalues --   -1.91562  -1.91446  -1.91239  -1.91109  -1.15629
 Alpha  occ. eigenvalues --   -1.13564  -1.12127  -1.11231  -1.08733  -1.07396
 Alpha  occ. eigenvalues --   -1.06667  -1.05942  -1.05310  -1.05308  -1.04061
 Alpha  occ. eigenvalues --   -1.03550  -1.03489  -1.02947  -1.02534  -1.01780
 Alpha  occ. eigenvalues --   -0.92964  -0.92216  -0.90061  -0.89452  -0.89406
 Alpha  occ. eigenvalues --   -0.89090  -0.88846  -0.88519  -0.87880  -0.87861
 Alpha  occ. eigenvalues --   -0.87597  -0.86947  -0.86377  -0.86233  -0.84720
 Alpha  occ. eigenvalues --   -0.84449  -0.83582  -0.83094  -0.82641  -0.82487
 Alpha  occ. eigenvalues --   -0.82317  -0.81604  -0.81125  -0.80503  -0.80146
 Alpha  occ. eigenvalues --   -0.79937  -0.78926  -0.78904  -0.77380  -0.77361
 Alpha  occ. eigenvalues --   -0.77119  -0.76980  -0.76300  -0.75985  -0.75173
 Alpha  occ. eigenvalues --   -0.75002  -0.73235  -0.72470  -0.71734  -0.71346
 Alpha  occ. eigenvalues --   -0.69714  -0.69679  -0.69079  -0.68863  -0.68101
 Alpha  occ. eigenvalues --   -0.67856  -0.67405  -0.67136  -0.65908  -0.65844
 Alpha  occ. eigenvalues --   -0.65361  -0.65067  -0.64953  -0.64726  -0.64217
 Alpha  occ. eigenvalues --   -0.63420  -0.61783  -0.61516  -0.60464  -0.60396
 Alpha  occ. eigenvalues --   -0.59954  -0.59759  -0.59434  -0.59159  -0.58995
 Alpha  occ. eigenvalues --   -0.58649  -0.58623  -0.57896  -0.57607  -0.57469
 Alpha  occ. eigenvalues --   -0.56409  -0.56374  -0.55775  -0.55090  -0.54801
 Alpha  occ. eigenvalues --   -0.54745  -0.54552  -0.54124  -0.54105  -0.53994
 Alpha  occ. eigenvalues --   -0.53733  -0.53629  -0.53510  -0.53351  -0.53059
 Alpha  occ. eigenvalues --   -0.53019  -0.52606  -0.52488  -0.52447  -0.52374
 Alpha  occ. eigenvalues --   -0.52155  -0.51894  -0.51711  -0.51646  -0.51544
 Alpha  occ. eigenvalues --   -0.51131  -0.50856  -0.50747  -0.50676  -0.50251
 Alpha  occ. eigenvalues --   -0.50215  -0.50021  -0.49975  -0.49722  -0.49707
 Alpha  occ. eigenvalues --   -0.49628  -0.49600  -0.49402  -0.49224  -0.49215
 Alpha  occ. eigenvalues --   -0.49090  -0.48685  -0.48499  -0.48315  -0.48260
 Alpha  occ. eigenvalues --   -0.48235  -0.47771  -0.47749  -0.47666  -0.47609
 Alpha  occ. eigenvalues --   -0.47331  -0.47260  -0.47189  -0.47046  -0.46824
 Alpha  occ. eigenvalues --   -0.46724  -0.46368  -0.45891  -0.45884  -0.45572
 Alpha  occ. eigenvalues --   -0.45418  -0.45234  -0.45191  -0.45165  -0.44971
 Alpha  occ. eigenvalues --   -0.44804  -0.44653  -0.44372  -0.44334  -0.44205
 Alpha  occ. eigenvalues --   -0.44184  -0.44010  -0.43744  -0.43516  -0.43489
 Alpha  occ. eigenvalues --   -0.43167  -0.43126  -0.43119  -0.43005  -0.42867
 Alpha  occ. eigenvalues --   -0.42726  -0.42589  -0.42538  -0.42480  -0.42122
 Alpha  occ. eigenvalues --   -0.41958  -0.41837  -0.41605  -0.41571  -0.41414
 Alpha  occ. eigenvalues --   -0.41056  -0.40944  -0.40924  -0.40393  -0.40390
 Alpha  occ. eigenvalues --   -0.40283  -0.39983  -0.39759  -0.39538  -0.39533
 Alpha  occ. eigenvalues --   -0.38730  -0.38357  -0.37895  -0.37728  -0.37348
 Alpha  occ. eigenvalues --   -0.37299  -0.37143  -0.37103  -0.36446  -0.36279
 Alpha  occ. eigenvalues --   -0.36208  -0.35907  -0.34699  -0.34532  -0.34490
 Alpha  occ. eigenvalues --   -0.33973  -0.33630  -0.33219  -0.31774  -0.31726
 Alpha  occ. eigenvalues --   -0.31380  -0.31188  -0.30625  -0.30328  -0.30023
 Alpha  occ. eigenvalues --   -0.29890  -0.29597  -0.29343  -0.24304  -0.24156
 Alpha  occ. eigenvalues --   -0.21660  -0.21401
 Alpha virt. eigenvalues --   -0.09172  -0.08975  -0.01769  -0.01752   0.00096
 Alpha virt. eigenvalues --    0.00424   0.02160   0.02284   0.03251   0.03628
 Alpha virt. eigenvalues --    0.04586   0.04639   0.05086   0.05285   0.05603

 Mulliken charges:
               1
     1  Mg   0.837687
     2  C   -0.064392
     3  C   -0.102011
     4  C   -0.064599
     5  C   -0.069217
     6  N   -0.258945
     7  C   -0.042852
     8  C    0.004737
     9  C   -0.089076
    10  C    0.049825
    11  C    0.063063
    12  C    0.057685
    13  C   -0.049589
    14  H    0.021198
    15  N   -0.445120
    16  C    0.218405
    17  C   -0.136286
    18  C    0.001378
    19  C    0.123209
    20  C    0.099328
    21  C   -0.029020
    22  O   -0.193624
    23  C    0.055187
    24  N   -0.251935
    25  C    0.025421
    26  C   -0.042209
    27  C    0.006488
    28  C    0.003622
    29  C    0.061026
    30  C    0.040768
    31  C    0.012923
    32  N   -0.354115
    33  C    0.120116
    34  C   -0.140469
    35  C   -0.036399
    36  C    0.156054
    37  C    0.107129
    38  C    0.042583
    39  O   -0.174697
    40  C   -0.012628
    41  C    0.224452
    42  O   -0.232491
    43  O   -0.374518
    44  C    0.182379
    45  H   -0.020991
    46  H    0.005734
    47  H   -0.023726
    48  H    0.019702
    49  H    0.013885
    50  H    0.011903
    51  H    0.027679
    52  H    0.000555
    53  H    0.000890
    54  H    0.001850
    55  H    0.026271
    56  H    0.043929
    57  H    0.040534
    58  H    0.027953
    59  H    0.006377
    60  H    0.030625
    61  H    0.029604
    62  H    0.018325
    63  H    0.022024
    64  H    0.001249
    65  H    0.008374
    66  H    0.023304
    67  H    0.031095
    68  H    0.001487
    69  H    0.002432
    70  H    0.015230
    71  H    0.031899
    72  H    0.007741
    73  H    0.031171
    74  H    0.017773
    75  H    0.040097
    76  H    0.042024
    77  H    0.040477
    78  H    0.036690
    79  H    0.035365
    80  Mg   0.813788
    81  C   -0.040360
    82  C   -0.100330
    83  C   -0.056058
    84  C   -0.065206
    85  N   -0.248681
    86  C   -0.044800
    87  C   -0.042278
    88  C   -0.088349
    89  C    0.097222
    90  C    0.104650
    91  C    0.047568
    92  C   -0.047318
    93  H    0.045061
    94  N   -0.365834
    95  C    0.130069
    96  C   -0.165447
    97  C   -0.010043
    98  C    0.116010
    99  C    0.118428
   100  C   -0.027549
   101  O   -0.177888
   102  C    0.053337
   103  N   -0.336438
   104  C    0.059156
   105  C   -0.036024
   106  C    0.001041
   107  C    0.092620
   108  C    0.078999
   109  C    0.053801
   110  C   -0.014016
   111  N   -0.352975
   112  C    0.068149
   113  C   -0.192082
   114  C    0.046545
   115  C    0.100740
   116  C    0.125863
   117  C    0.023025
   118  O   -0.217203
   119  C    0.037671
   120  C    0.193547
   121  O   -0.181847
   122  O   -0.372677
   123  C    0.178988
   124  H   -0.015881
   125  H   -0.006734
   126  H   -0.026787
   127  H    0.020184
   128  H    0.010248
   129  H    0.008528
   130  H    0.034943
   131  H    0.001544
   132  H    0.003241
   133  H    0.019097
   134  H    0.008107
   135  H    0.020931
   136  H    0.008429
   137  H    0.052304
   138  H    0.037232
   139  H    0.038292
   140  H    0.030695
   141  H    0.035363
   142  H   -0.003150
   143  H   -0.009958
   144  H    0.023898
   145  H    0.009701
   146  H    0.009268
   147  H    0.006502
   148  H   -0.008893
   149  H    0.008076
   150  H    0.038130
   151  H    0.006423
   152  H    0.030634
   153  H    0.042278
   154  H    0.013620
   155  H    0.046853
   156  H    0.037690
   157  H    0.032941
   158  H    0.033376
 Sum of Mulliken charges =  -0.00000

 Dipole moment (field-independent basis, Debye):
    X=             -6.3022    Y=              0.6611    Z=              6.2686  Tot=              8.9135
 Quadrupole moment (field-independent basis, Debye-Ang):
   XX=           -721.9584   YY=           -486.7173   ZZ=           -508.5729
   XY=             -4.1259   XZ=            -63.0716   YZ=             46.8967

 Normal termination of Gaussian 16 at Thu Sep 16 05:06:54 2021.
