 Gaussian 16, Revision A.03,
 Gaussian 16:  ES64L-G16RevA.03 25-Dec-2016

 -----------------------------------------------------------
 #p cam-b3lyp/Def2SVP td=(nstates=5, root=1) density=current
 -----------------------------------------------------------

 --------------------------------
 TDDFT excited states in gaussian
 --------------------------------
 Symbolic Z-matrix:
 Charge =  0 Multiplicity = 1

                         Standard orientation:
 ---------------------------------------------------------------------
 Center     Atomic      Atomic             Coordinates (Angstroms)
 Number     Number       Type             X           Y           Z
 ---------------------------------------------------------------------
      1         12           0        0.675377    0.204888   -0.109655
      2          6           0       -2.728843    0.317183   -0.277950
      3          6           0        0.483683   -3.323030   -0.285640
      4          6           0        3.996189    0.036366    0.286631
      5          6           0        0.741296    3.637796   -0.011830
      6          7           0       -0.917181   -1.336812    0.053133
      7          6           0       -2.266643   -1.020048   -0.148547
      8          6           0       -3.159683   -2.291591   -0.208640
      9          6           0       -2.047795   -3.371679   -0.135770
     10          6           0       -0.717139   -2.645975   -0.051876
     11          6           0       -2.100119   -4.548544    0.929251
     12          6           0       -4.090119   -2.454256   -1.490193
     13          6           0       -4.903623   -3.775734   -1.452939
     14          1           0       -6.393425   -3.560435   -1.182785
     15          7           0        2.078006   -1.464076   -0.060949
     16          6           0        1.788956   -2.771777   -0.386677
     17          6           0        3.043408   -3.501092   -0.242280
     18          6           0        4.060145   -2.507943   -0.067217
     19          6           0        3.419256   -1.235180    0.040480
     20          6           0        3.087292   -4.974250   -0.378280
     21          6           0        5.575067   -2.860242    0.136449
     22          8           0        6.434832   -2.031735    0.498815
     23          6           0        6.045917   -4.281219   -0.032708
     24          7           0        2.074484    1.550975    0.123034
     25          6           0        3.458816    1.264913    0.289084
     26          6           0        4.216081    2.495754    0.733460
     27          6           0        3.302335    3.582696    0.170596
     28          6           0        1.948136    2.903475    0.023893
     29          6           0        4.382759    2.583556    2.287731
     30          6           0        3.743836    4.070732   -1.227324
     31          6           0        4.780084    5.159029   -1.312677
     32          7           0       -0.662108    1.773761   -0.092610
     33          6           0       -0.517412    3.103998   -0.204999
     34          6           0       -1.809868    3.722995   -0.220517
     35          6           0       -2.719892    2.688558   -0.271706
     36          6           0       -1.969009    1.503321   -0.235176
     37          6           0       -1.990687    5.199573   -0.283455
     38          6           0       -4.089940    2.408447   -0.349518
     39          8           0       -5.060775    3.135156   -0.437561
     40          6           0       -4.164175    0.809720   -0.359613
     41          6           0       -5.024899    0.385582    0.777263
     42          8           0       -4.782308    0.490957    1.954899
     43          8           0       -6.093925   -0.291892    0.348205
     44          6           0       -7.024284   -0.825453    1.416384
     45          1           0        0.353551   -4.385552   -0.500761
     46          1           0        5.080345   -0.002395    0.410051
     47          1           0        0.685936    4.723314   -0.113477
     48          1           0       -3.770976   -2.326027    0.693213
     49          1           0       -1.986276   -3.893008   -1.091504
     50          1           0       -1.738473   -5.520684    0.593150
     51          1           0       -3.071992   -4.556258    1.423033
     52          1           0       -1.354767   -4.263720    1.671712
     53          1           0       -3.390847   -2.361975   -2.320313
     54          1           0       -4.767266   -1.601089   -1.529074
     55          1           0       -4.428071   -4.485995   -0.776563
     56          1           0       -4.848243   -4.199198   -2.455361
     57          1           0        3.314904   -5.393612    0.601921
     58          1           0        3.773151   -5.174955   -1.201348
     59          1           0        2.128842   -5.359495   -0.726516
     60          1           0        7.128414   -4.329403    0.085570
     61          1           0        5.869566   -4.488994   -1.088983
     62          1           0        5.561395   -5.040377    0.580750
     63          1           0        5.215720    2.521807    0.298820
     64          1           0        3.198111    4.444799    0.829078
     65          1           0        3.444693    2.858918    2.768145
     66          1           0        5.167058    3.296159    2.544400
     67          1           0        4.703098    1.589683    2.598351
     68          1           0        2.906537    4.373687   -1.854731
     69          1           0        4.107125    3.223319   -1.808881
     70          1           0        5.620573    4.744072   -1.868263
     71          1           0        5.134923    5.239041   -0.285045
     72          1           0        4.407356    6.112310   -1.687769
     73          1           0       -2.163142    5.516553   -1.311254
     74          1           0       -1.264898    5.833617    0.226708
     75          1           0       -2.928587    5.390171    0.238482
     76          1           0       -4.611893    0.495194   -1.302615
     77          1           0       -6.406918   -1.368464    2.132334
     78          1           0       -7.754742   -1.538575    1.033402
     79          1           0       -7.515078    0.027981    1.884737
 ---------------------------------------------------------------------

 SCF Done:  E(RCAM-B3LYP) =  -2034.92852461     A.U. after   17 cycles

 Excitation energies and oscillator strengths:

 Excited State   1:      Singlet-A      1.6534 eV  749.86 nm  f=0.3907  <S**2>=0.000
     155 ->158        -0.16021
     156 ->157         0.69078
     155 <-158        -0.10390
 This state for optimization and/or second-order correction.
 Total Energy, E(TD-HF/TD-DFT) =  -2034.86776246
 Copying the excited state density for this state as the 1-particle RhoCI density.

 Excited State   2:      Singlet-A      2.2510 eV  550.79 nm  f=0.1084  <S**2>=0.000
     155 ->157         0.63839
     156 ->158         0.28827

 Excited State   3:      Singlet-A      3.1747 eV  390.54 nm  f=0.0021  <S**2>=0.000
     154 ->157         0.68826

 Excited State   4:      Singlet-A      3.4780 eV  356.48 nm  f=0.0525  <S**2>=0.000
     151 ->157         0.42926
     151 ->159        -0.23567
     151 ->160        -0.11877
     152 ->157         0.28720
     153 ->157        -0.25589
     156 ->158        -0.25160

 Excited State   5:      Singlet-A      3.4910 eV  355.15 nm  f=0.2121  <S**2>=0.000
     151 ->157         0.37461
     151 ->159        -0.18704
     152 ->157        -0.20630
     153 ->157         0.21507
     155 ->157        -0.15895
     156 ->158         0.41796

 The electronic state is 1-A.
 Alpha  occ. eigenvalues --  -46.87520 -19.24933 -19.19393 -19.18756 -19.18570
 Alpha  occ. eigenvalues --  -14.42737 -14.41758 -14.38883 -14.38868 -10.38545
 Alpha  occ. eigenvalues --  -10.35231 -10.34957 -10.32308 -10.32071 -10.31374
 Alpha  occ. eigenvalues --  -10.30581 -10.30027 -10.29579 -10.29488 -10.29284
 Alpha  occ. eigenvalues --  -10.29010 -10.28998 -10.28618 -10.28497 -10.28114
 Alpha  occ. eigenvalues --  -10.28074 -10.27805 -10.27774 -10.27473 -10.27385
 Alpha  occ. eigenvalues --  -10.27385 -10.27135 -10.26782 -10.26688 -10.26549
 Alpha  occ. eigenvalues --  -10.26369 -10.26182 -10.25851 -10.25754 -10.25594
 Alpha  occ. eigenvalues --  -10.25544 -10.25117 -10.25034  -3.16300  -1.91202
 Alpha  occ. eigenvalues --   -1.90771  -1.90598  -1.16928  -1.10456  -1.08296
 Alpha  occ. eigenvalues --   -1.07158  -1.05458  -1.03940  -1.03118  -1.01978
 Alpha  occ. eigenvalues --   -0.93351  -0.89100  -0.88797  -0.88679  -0.87923
 Alpha  occ. eigenvalues --   -0.87189  -0.86587  -0.84345  -0.83987  -0.82546
 Alpha  occ. eigenvalues --   -0.81599  -0.81231  -0.80654  -0.78404  -0.77573
 Alpha  occ. eigenvalues --   -0.77235  -0.76229  -0.75220  -0.73237  -0.71828
 Alpha  occ. eigenvalues --   -0.69463  -0.68975  -0.68335  -0.66100  -0.65817
 Alpha  occ. eigenvalues --   -0.64972  -0.64640  -0.64204  -0.62101  -0.60270
 Alpha  occ. eigenvalues --   -0.60010  -0.59134  -0.58899  -0.58344  -0.58037
 Alpha  occ. eigenvalues --   -0.56569  -0.56100  -0.55042  -0.54774  -0.54265
 Alpha  occ. eigenvalues --   -0.53482  -0.53368  -0.52955  -0.52733  -0.52304
 Alpha  occ. eigenvalues --   -0.51782  -0.51687  -0.51345  -0.50390  -0.50269
 Alpha  occ. eigenvalues --   -0.50003  -0.49920  -0.49751  -0.49292  -0.48963
 Alpha  occ. eigenvalues --   -0.48779  -0.48279  -0.48100  -0.47759  -0.47519
 Alpha  occ. eigenvalues --   -0.47139  -0.46944  -0.46538  -0.46473  -0.46051
 Alpha  occ. eigenvalues --   -0.45872  -0.45516  -0.45291  -0.44713  -0.44244
 Alpha  occ. eigenvalues --   -0.43770  -0.43732  -0.43574  -0.43354  -0.42865
 Alpha  occ. eigenvalues --   -0.42023  -0.41826  -0.41644  -0.41570  -0.41142
 Alpha  occ. eigenvalues --   -0.40896  -0.40657  -0.40430  -0.40061  -0.39840
 Alpha  occ. eigenvalues --   -0.38456  -0.38079  -0.37495  -0.36951  -0.36682
 Alpha  occ. eigenvalues --   -0.36584  -0.34235  -0.34026  -0.33295  -0.31478
 Alpha  occ. eigenvalues --   -0.31262  -0.30668  -0.30494  -0.29114  -0.24625
 Alpha  occ. eigenvalues --   -0.21133
 Alpha virt. eigenvalues --   -0.09087  -0.01563   0.00391   0.02341   0.03397
 Alpha virt. eigenvalues --    0.04641   0.05347   0.06203   0.06781   0.07896
 Alpha virt. eigenvalues --    0.08637   0.09061   0.09351   0.10217   0.10654

 Mulliken charges:
               1
     1  Mg   0.816660
     2  C   -0.003741
     3  C   -0.069509
     4  C   -0.077931
     5  C   -0.096884
     6  N   -0.281418
     7  C   -0.035839
     8  C    0.015837
     9  C   -0.106912
    10  C    0.053331
    11  C    0.063625
    12  C    0.035419
    13  C   -0.057089
    14  H    0.033560
    15  N   -0.359885
    16  C    0.146903
    17  C   -0.202673
    18  C   -0.035787
    19  C    0.118797
    20  C    0.139650
    21  C    0.017335
    22  O   -0.226499
    23  C    0.056347
    24  N   -0.402719
    25  C    0.097919
    26  C   -0.023171
    27  C   -0.022665
    28  C    0.128151
    29  C    0.089758
    30  C   -0.004249
    31  C    0.053034
    32  N   -0.340476
    33  C    0.091172
    34  C   -0.169740
    35  C    0.070305
    36  C    0.109181
    37  C    0.108336
    38  C    0.011058
    39  O   -0.160189
    40  C   -0.051404
    41  C    0.179393
    42  O   -0.218372
    43  O   -0.332052
    44  C    0.179336
    45  H   -0.029355
    46  H   -0.007636
    47  H   -0.027543
    48  H    0.022368
    49  H    0.014048
    50  H    0.022048
    51  H    0.023858
    52  H    0.016762
    53  H    0.011831
    54  H    0.035723
    55  H    0.029447
    56  H    0.029840
    57  H    0.042967
    58  H    0.028313
    59  H    0.001431
    60  H    0.024205
    61  H    0.024491
    62  H    0.039600
    63  H    0.002867
    64  H   -0.001016
    65  H    0.021506
    66  H    0.020517
    67  H    0.021122
    68  H   -0.000385
    69  H   -0.003896
    70  H    0.013458
    71  H   -0.002201
    72  H    0.029938
    73  H    0.036545
    74  H    0.021610
    75  H    0.026855
    76  H    0.042129
    77  H    0.040408
    78  H    0.040737
    79  H    0.051506
 Sum of Mulliken charges =  -0.00000

 Dipole moment (field-independent basis, Debye):
    X=              0.5807    Y=             -3.6199    Z=             -2.0994  Tot=              4.2247
 Quadrupole moment (field-independent basis, Debye-Ang):
   XX=           -277.1434   YY=           -226.5366   ZZ=           -258.3646
   XY=             28.5201   XZ=             -4.5882   YZ=              1.4903

 Normal termination of Gaussian 16 at Tue Oct 12 15:46:51 2021.
