 Gaussian 16, Revision A.03,
 Gaussian 16:  ES64L-G16RevA.03 25-Dec-2016

 -----------------------------------------------------
 #p cam-b3lyp/Def2SVP td=(nstates=5) density=(current)
 -----------------------------------------------------

 --------------------------------
 TDDFT excited states in gaussian
 --------------------------------
 Symbolic Z-matrix:
 Charge =  0 Multiplicity = 1

                         Standard orientation:
 ---------------------------------------------------------------------
 Center     Atomic      Atomic             Coordinates (Angstroms)
 Number     Number       Type             X           Y           Z
 ---------------------------------------------------------------------
      1         12           0       -0.604360    0.118690   -0.323739
      2          6           0        2.807269   -0.186891    0.276938
      3          6           0       -0.843531   -3.332422   -0.086461
      4          6           0       -3.905098    0.292604   -0.333576
      5          6           0       -0.319550    3.556314   -0.040625
      6          7           0        0.770289   -1.544885    0.208384
      7          6           0        2.145005   -1.446914    0.275113
      8          6           0        2.821518   -2.784063    0.343428
      9          6           0        1.662870   -3.754660   -0.157342
     10          6           0        0.438566   -2.867649    0.025816
     11          6           0        1.775408   -4.577170   -1.527709
     12          6           0        3.480438   -3.147231    1.754082
     13          6           0        2.794650   -2.593216    3.038295
     14          1           0        2.730615   -3.577157    4.181694
     15          7           0       -2.179883   -1.310249   -0.106059
     16          6           0       -2.060164   -2.703740   -0.034853
     17          6           0       -3.340850   -3.335598    0.127129
     18          6           0       -4.280855   -2.278550    0.081048
     19          6           0       -3.500762   -1.017671   -0.096696
     20          6           0       -3.467672   -4.856843    0.031397
     21          6           0       -5.801988   -2.537519    0.171719
     22          8           0       -6.263802   -3.663174    0.384768
     23          6           0       -6.668432   -1.373301   -0.067039
     24          7           0       -1.874947    1.730723   -0.077996
     25          6           0       -3.207883    1.544035   -0.403435
     26          6           0       -3.987212    2.870927   -0.536524
     27          6           0       -2.803619    3.865632   -0.193226
     28          6           0       -1.612985    3.026865   -0.045340
     29          6           0       -4.670625    3.196235   -1.827091
     30          6           0       -3.049034    4.686251    1.172345
     31          6           0       -2.743052    6.149794    0.988232
     32          7           0        0.948285    1.497448   -0.148870
     33          6           0        0.906359    2.875530   -0.045753
     34          6           0        2.277130    3.410344    0.120905
     35          6           0        3.071699    2.218481    0.251000
     36          6           0        2.212119    1.126332    0.084778
     37          6           0        2.741709    4.779415    0.411871
     38          6           0        4.402122    1.642135    0.540083
     39          8           0        5.430531    2.201899    0.842448
     40          6           0        4.289610    0.083610    0.526900
     41          6           0        5.231373   -0.485597   -0.437776
     42          8           0        6.182790   -1.246914   -0.261099
     43          8           0        5.052663    0.225787   -1.653183
     44          6           0        5.879530   -0.238592   -2.787621
     45          1           0       -0.838129   -4.411280   -0.258278
     46          1           0       -4.962995    0.470100   -0.537451
     47          1           0       -0.330475    4.647710   -0.041171
     48          1           0        3.666655   -2.814619   -0.344167
     49          1           0        1.658818   -4.485229    0.651970
     50          1           0        2.730533   -4.504763   -2.047593
     51          1           0        1.069913   -4.254202   -2.293151
     52          1           0        1.747620   -5.644708   -1.307604
     53          1           0        4.540965   -2.897635    1.756811
     54          1           0        3.491362   -4.235826    1.807790
     55          1           0        1.792489   -2.227508    2.812541
     56          1           0        3.355450   -1.738609    3.415774
     57          1           0       -4.279331   -5.269597    0.631350
     58          1           0       -2.577968   -5.316651    0.460838
     59          1           0       -3.653570   -5.071397   -1.021251
     60          1           0       -6.604862   -1.105750   -1.121358
     61          1           0       -6.374521   -0.554610    0.590569
     62          1           0       -7.674699   -1.720078    0.167891
     63          1           0       -4.645578    2.948417    0.329037
     64          1           0       -2.666007    4.396220   -1.135352
     65          1           0       -4.959288    4.244800   -1.752557
     66          1           0       -5.609145    2.641987   -1.838330
     67          1           0       -4.024517    2.957494   -2.672701
     68          1           0       -2.428235    4.209973    1.931095
     69          1           0       -4.026579    4.582905    1.645026
     70          1           0       -1.843279    6.376144    1.559807
     71          1           0       -3.451690    6.791384    1.513017
     72          1           0       -2.497948    6.347295   -0.055129
     73          1           0        1.964198    5.542216    0.474525
     74          1           0        3.370844    5.064526   -0.430623
     75          1           0        3.103493    4.648150    1.431468
     76          1           0        4.535287   -0.214676    1.545832
     77          1           0        5.151857   -0.263020   -3.599600
     78          1           0        6.386222   -1.203220   -2.757017
     79          1           0        6.496792    0.623634   -3.040602
 ---------------------------------------------------------------------

 SCF Done:  E(RCAM-B3LYP) =  -2034.90481882     A.U. after   19 cycles

 Excitation energies and oscillator strengths:

 Excited State   1:      Singlet-A      1.7179 eV  721.73 nm  f=0.3716  <S**2>=0.000
     155 ->158         0.18185
     156 ->157         0.68359
     155 <-158         0.10502
 This state for optimization and/or second-order correction.
 Total Energy, E(TD-HF/TD-DFT) =  -2034.84168844
 Copying the excited state density for this state as the 1-particle RhoCI density.

 Excited State   2:      Singlet-A      2.2043 eV  562.48 nm  f=0.0883  <S**2>=0.000
     155 ->157         0.62958
     156 ->158        -0.30520

 Excited State   3:      Singlet-A      3.3981 eV  364.87 nm  f=0.0299  <S**2>=0.000
     153 ->157        -0.19443
     154 ->157         0.64128
     156 ->158         0.17020

 Excited State   4:      Singlet-A      3.4172 eV  362.83 nm  f=0.3348  <S**2>=0.000
     153 ->157         0.40222
     155 ->157         0.21296
     156 ->158         0.52147

 Excited State   5:      Singlet-A      3.5764 eV  346.68 nm  f=0.3948  <S**2>=0.000
     153 ->157         0.52406
     154 ->157         0.25728
     155 ->157        -0.22239
     156 ->158        -0.30487

 The electronic state is 1-A.
 Alpha  occ. eigenvalues --  -46.89114 -19.24351 -19.20546 -19.19032 -19.18829
 Alpha  occ. eigenvalues --  -14.42243 -14.42214 -14.39652 -14.39193 -10.39740
 Alpha  occ. eigenvalues --  -10.35126 -10.35114 -10.31631 -10.31306 -10.31191
 Alpha  occ. eigenvalues --  -10.30688 -10.30642 -10.30201 -10.30087 -10.29362
 Alpha  occ. eigenvalues --  -10.28967 -10.28686 -10.28550 -10.28437 -10.28421
 Alpha  occ. eigenvalues --  -10.28349 -10.28216 -10.28169 -10.28083 -10.27680
 Alpha  occ. eigenvalues --  -10.27308 -10.27170 -10.27146 -10.27136 -10.26975
 Alpha  occ. eigenvalues --  -10.26914 -10.26737 -10.26225 -10.26064 -10.26030
 Alpha  occ. eigenvalues --  -10.25970 -10.25761 -10.25394  -3.17639  -1.92523
 Alpha  occ. eigenvalues --   -1.92110  -1.91932  -1.14826  -1.10370  -1.09381
 Alpha  occ. eigenvalues --   -1.06909  -1.05080  -1.03726  -1.03193  -1.02351
 Alpha  occ. eigenvalues --   -0.92472  -0.89664  -0.89230  -0.87994  -0.87677
 Alpha  occ. eigenvalues --   -0.86888  -0.86193  -0.84840  -0.84464  -0.82730
 Alpha  occ. eigenvalues --   -0.82394  -0.80852  -0.80160  -0.78328  -0.77510
 Alpha  occ. eigenvalues --   -0.76856  -0.76225  -0.75757  -0.72652  -0.72148
 Alpha  occ. eigenvalues --   -0.69434  -0.69371  -0.68097  -0.66837  -0.66421
 Alpha  occ. eigenvalues --   -0.64911  -0.64517  -0.64008  -0.62552  -0.60285
 Alpha  occ. eigenvalues --   -0.59387  -0.58951  -0.58295  -0.57536  -0.57259
 Alpha  occ. eigenvalues --   -0.56333  -0.55832  -0.55357  -0.55108  -0.54618
 Alpha  occ. eigenvalues --   -0.53899  -0.52915  -0.52722  -0.52634  -0.52184
 Alpha  occ. eigenvalues --   -0.51991  -0.51624  -0.51119  -0.50858  -0.50481
 Alpha  occ. eigenvalues --   -0.50285  -0.49642  -0.49561  -0.49280  -0.48831
 Alpha  occ. eigenvalues --   -0.48572  -0.48306  -0.48180  -0.47748  -0.47261
 Alpha  occ. eigenvalues --   -0.46925  -0.46511  -0.46281  -0.46218  -0.45739
 Alpha  occ. eigenvalues --   -0.45395  -0.45129  -0.45000  -0.44985  -0.44699
 Alpha  occ. eigenvalues --   -0.44655  -0.43936  -0.43428  -0.43229  -0.43118
 Alpha  occ. eigenvalues --   -0.42758  -0.42488  -0.42140  -0.41971  -0.41719
 Alpha  occ. eigenvalues --   -0.41693  -0.41232  -0.40467  -0.40001  -0.39113
 Alpha  occ. eigenvalues --   -0.38519  -0.37985  -0.37441  -0.36904  -0.36568
 Alpha  occ. eigenvalues --   -0.35664  -0.35163  -0.34807  -0.33329  -0.31282
 Alpha  occ. eigenvalues --   -0.31214  -0.30821  -0.29966  -0.29664  -0.24105
 Alpha  occ. eigenvalues --   -0.21224
 Alpha virt. eigenvalues --   -0.08674  -0.02256   0.00623   0.01707   0.02519
 Alpha virt. eigenvalues --    0.04076   0.04941   0.05941   0.06817   0.08165
 Alpha virt. eigenvalues --    0.08528   0.08796   0.09528   0.09694   0.10433

 Mulliken charges:
               1
     1  Mg   0.809873
     2  C   -0.037578
     3  C   -0.102281
     4  C   -0.094903
     5  C   -0.104275
     6  N   -0.296880
     7  C   -0.013706
     8  C   -0.044518
     9  C   -0.001124
    10  C    0.011546
    11  C    0.065776
    12  C    0.030054
    13  C   -0.078001
    14  H    0.024692
    15  N   -0.361515
    16  C    0.169311
    17  C   -0.139459
    18  C   -0.064682
    19  C    0.189294
    20  C    0.127454
    21  C   -0.003654
    22  O   -0.208934
    23  C    0.056035
    24  N   -0.307071
    25  C    0.013135
    26  C   -0.037085
    27  C   -0.066624
    28  C    0.027828
    29  C    0.107136
    30  C    0.035777
    31  C    0.030315
    32  N   -0.344966
    33  C    0.159932
    34  C   -0.189249
    35  C   -0.003441
    36  C    0.097300
    37  C    0.130918
    38  C    0.025755
    39  O   -0.151794
    40  C    0.031235
    41  C    0.221052
    42  O   -0.209355
    43  O   -0.379814
    44  C    0.180329
    45  H   -0.031040
    46  H   -0.044005
    47  H   -0.044962
    48  H    0.014298
    49  H    0.009200
    50  H    0.011660
    51  H    0.028529
    52  H    0.023234
    53  H    0.030422
    54  H    0.012111
    55  H    0.048879
    56  H    0.031703
    57  H    0.034340
    58  H    0.013881
    59  H    0.038540
    60  H    0.046665
    61  H    0.042754
    62  H    0.022331
    63  H    0.009627
    64  H    0.012093
    65  H    0.020525
    66  H    0.017564
    67  H    0.026237
    68  H    0.017643
    69  H    0.009552
    70  H    0.006986
    71  H    0.016181
    72  H    0.024162
    73  H   -0.003665
    74  H    0.044671
    75  H    0.053592
    76  H    0.037537
    77  H    0.018412
    78  H    0.058228
    79  H    0.038280
 Sum of Mulliken charges =  -0.00000

 Dipole moment (field-independent basis, Debye):
    X=             -3.3946    Y=              2.7732    Z=             -3.5829  Tot=              5.6614
 Quadrupole moment (field-independent basis, Debye-Ang):
   XX=           -299.6208   YY=           -242.6652   ZZ=           -248.3279
   XY=            -40.5620   XZ=             -7.6079   YZ=              5.1538

 Normal termination of Gaussian 16 at Fri Oct  8 14:48:25 2021.
