 Gaussian 16, Revision A.03,
 Gaussian 16:  ES64L-G16RevA.03 25-Dec-2016

 -----------------------------------
 #p cam-b3lyp/Def2SVP td=(nstates=5)
 -----------------------------------

 --------------------------------
 TDDFT excited states in gaussian
 --------------------------------
 Symbolic Z-matrix:
 Charge =  0 Multiplicity = 1

                         Standard orientation:
 ---------------------------------------------------------------------
 Center     Atomic      Atomic             Coordinates (Angstroms)
 Number     Number       Type             X           Y           Z
 ---------------------------------------------------------------------
      1         12           0      -24.919943   -0.354663    0.508221
      2          6           0      -23.539304    1.902381   -1.667819
      3          6           0      -24.861138   -2.706926   -1.871437
      4          6           0      -26.502394   -2.381808    2.687598
      5          6           0      -25.431444    2.370752    2.859763
      6          7           0      -24.498194   -0.286472   -1.666488
      7          6           0      -23.845036    0.685646   -2.314508
      8          6           0      -23.484972    0.225284   -3.819206
      9          6           0      -23.949490   -1.277932   -3.759662
     10          6           0      -24.527756   -1.468595   -2.342958
     11          6           0      -24.879180   -1.685495   -4.919196
     12          6           0      -21.984054    0.399596   -4.186864
     13          6           0      -21.442573   -0.330588   -5.459085
     14          1           0      -21.207809    0.534377   -6.755238
     15          7           0      -25.638888   -2.284983    0.398930
     16          6           0      -25.435596   -3.115974   -0.602119
     17          6           0      -25.987392   -4.414658   -0.246976
     18          6           0      -26.586218   -4.351105    1.047103
     19          6           0      -26.249950   -2.964590    1.438589
     20          6           0      -26.080156   -5.616837   -1.172077
     21          6           0      -27.397292   -5.384961    1.821297
     22          8           0      -28.078227   -5.059773    2.789599
     23          6           0      -27.354291   -6.805663    1.378699
     24          7           0      -25.878549   -0.025452    2.482313
     25          6           0      -26.406075   -1.030941    3.170446
     26          6           0      -26.782172   -0.616582    4.602702
     27          6           0      -26.228146    0.805212    4.643496
     28          6           0      -25.857652    1.066673    3.231367
     29          6           0      -28.252939   -0.741706    5.027260
     30          6           0      -25.220614    1.042930    5.739726
     31          6           0      -25.625232    2.088920    6.838916
     32          7           0      -24.536866    1.649615    0.633387
     33          6           0      -24.712439    2.630693    1.666172
     34          6           0      -24.110581    3.892688    1.295778
     35          6           0      -23.636908    3.589696   -0.011062
     36          6           0      -23.927120    2.261134   -0.346137
     37          6           0      -23.862523    5.135964    2.074903
     38          6           0      -22.787878    4.176773   -1.016749
     39          8           0      -22.087790    5.199036   -1.068808
     40          6           0      -22.762981    3.226069   -2.187390
     41          6           0      -23.602285    3.838597   -3.330309
     42          8           0      -24.697858    4.413713   -3.240936
     43          8           0      -22.924427    3.630069   -4.494598
     44          6           0      -23.523565    4.170831   -5.755771
     45          1           0      -24.786097   -3.588536   -2.511444
     46          1           0      -27.185205   -2.896478    3.366822
     47          1           0      -25.496546    3.102380    3.667111
     48          1           0      -24.151425    0.824789   -4.438253
     49          1           0      -23.053444   -1.897678   -3.792350
     50          1           0      -24.547700   -2.665958   -5.259388
     51          1           0      -24.787518   -1.012218   -5.771555
     52          1           0      -25.917902   -1.722872   -4.590704
     53          1           0      -21.438721   -0.109593   -3.392249
     54          1           0      -21.752448    1.456989   -4.314344
     55          1           0      -22.222496   -1.021869   -5.780035
     56          1           0      -20.485663   -0.790911   -5.215489
     57          1           0      -25.643206   -5.402770   -2.147424
     58          1           0      -27.125942   -5.888157   -1.314296
     59          1           0      -25.574906   -6.488163   -0.757345
     60          1           0      -26.294538   -7.034763    1.263272
     61          1           0      -27.834979   -7.158731    0.466856
     62          1           0      -27.790869   -7.488163    2.107076
     63          1           0      -26.212617   -1.245362    5.286207
     64          1           0      -27.060943    1.467105    4.880420
     65          1           0      -28.199459   -1.099414    6.055207
     66          1           0      -28.798141   -1.386881    4.338498
     67          1           0      -28.828511    0.179025    4.932538
     68          1           0      -24.379179    1.498170    5.218349
     69          1           0      -24.937286    0.138287    6.276957
     70          1           0      -26.603237    2.512139    6.608256
     71          1           0      -24.891033    2.894312    6.802300
     72          1           0      -25.573408    1.731278    7.867367
     73          1           0      -24.088499    4.970096    3.127912
     74          1           0      -24.620639    5.840220    1.734233
     75          1           0      -22.811804    5.369505    1.897037
     76          1           0      -21.707190    3.155496   -2.449658
     77          1           0      -24.586635    3.968366   -5.888388
     78          1           0      -22.999682    3.877193   -6.664800
     79          1           0      -23.466527    5.254865   -5.658675
     80         12           0       25.513595    0.394516   -0.128700
     81          6           0       23.219659   -2.245356   -0.531656
     82          6           0       22.780620    2.539908   -0.276865
     83          6           0       27.508846    2.933204    0.687144
     84          6           0       27.861342   -1.948991    0.890834
     85          7           0       23.229261    0.088755   -0.216322
     86          6           0       22.496653   -1.046248   -0.504323
     87          6           0       21.080006   -0.801586   -0.980020
     88          6           0       20.947574    0.738909   -0.920273
     89          6           0       22.366121    1.184252   -0.435379
     90          6           0       20.528952    1.411690   -2.290192
     91          6           0       19.917882   -1.504953   -0.146423
     92          6           0       20.139530   -1.719704    1.359684
     93          1           0       19.402548   -0.777172    2.356713
     94          7           0       25.191834    2.406363    0.148136
     95          6           0       24.028175    3.103035   -0.013956
     96          6           0       24.280757    4.542718    0.139321
     97          6           0       25.674268    4.681577    0.421383
     98          6           0       26.186109    3.276828    0.437544
     99          6           0       23.203686    5.609902   -0.014970
    100          6           0       26.253050    6.110206    0.740992
    101          8           0       25.472046    7.051070    0.770313
    102          6           0       27.787311    6.288602    1.103291
    103          7           0       27.331589    0.465094    0.777003
    104          6           0       28.057748    1.649832    0.874633
    105          6           0       29.582126    1.351004    1.374039
    106          6           0       29.519924   -0.261514    1.553316
    107          6           0       28.156628   -0.587355    1.033905
    108          6           0       30.653865    1.835279    0.353545
    109          6           0       29.721709   -0.787497    3.038869
    110          6           0       30.770034   -1.878620    3.306207
    111          7           0       25.622396   -1.708527    0.027754
    112          6           0       26.616177   -2.547912    0.461903
    113          6           0       26.112866   -3.936803    0.410800
    114          6           0       24.791351   -3.835016   -0.100729
    115          6           0       24.551468   -2.441739   -0.261599
    116          6           0       26.829573   -5.190951    0.828259
    117          6           0       23.597590   -4.645746   -0.406488
    118          8           0       23.400594   -5.868564   -0.459112
    119          6           0       22.590943   -3.614403   -0.894133
    120          6           0       22.240811   -3.785292   -2.263954
    121          8           0       22.986987   -3.391253   -3.197367
    122          8           0       20.979077   -4.397014   -2.402419
    123          6           0       20.402090   -4.496041   -3.739226
    124          1           0       21.995467    3.269178   -0.485443
    125          1           0       28.226661    3.747285    0.803881
    126          1           0       28.673690   -2.623532    1.167692
    127          1           0       21.101398   -1.197208   -1.994758
    128          1           0       20.299353    0.941914   -0.068574
    129          1           0       19.517523    1.808829   -2.204666
    130          1           0       20.579939    0.620739   -3.038935
    131          1           0       21.191654    2.238886   -2.546666
    132          1           0       19.891821   -2.489549   -0.615039
    133          1           0       18.976627   -0.992073   -0.345469
    134          1           0       21.201866   -1.673777    1.601632
    135          1           0       19.874490   -2.749417    1.595911
    136          1           0       22.837172    6.028130    0.922528
    137          1           0       22.436578    5.293327   -0.721782
    138          1           0       23.582010    6.460455   -0.581737
    139          1           0       28.353724    5.738184    0.351696
    140          1           0       27.935088    5.876089    2.100982
    141          1           0       28.081862    7.321497    1.288946
    142          1           0       29.734376    1.977431    2.252460
    143          1           0       30.254547   -0.683846    0.867328
    144          1           0       30.911369    0.984027   -0.276318
    145          1           0       31.512974    2.304963    0.832673
    146          1           0       30.320972    2.650135   -0.289122
    147          1           0       28.738162   -1.097036    3.393764
    148          1           0       30.043002    0.123034    3.544625
    149          1           0       30.589596   -2.398318    4.247596
    150          1           0       31.694927   -1.303577    3.344855
    151          1           0       30.679771   -2.548141    2.450557
    152          1           0       27.544826   -4.848548    1.575618
    153          1           0       27.375652   -5.455977   -0.077073
    154          1           0       26.185463   -6.025427    1.107079
    155          1           0       21.745833   -3.814198   -0.235738
    156          1           0       20.919894   -5.124690   -4.463691
    157          1           0       20.303298   -3.501837   -4.175987
    158          1           0       19.354340   -4.763281   -3.600763
 ---------------------------------------------------------------------

 SCF Done:  E(RCAM-B3LYP) =  -4069.80413242     A.U. after   19 cycles

 Excitation energies and oscillator strengths:

 Excited State   1:      Singlet-A      1.7180 eV  721.70 nm  f=0.3189  <S**2>=0.000
     309 -> 315       -0.18094
     312 -> 314        0.68301
     309 <- 315       -0.10758
 This state for optimization and/or second-order correction.
 Total Energy, E(TD-HF/TD-DFT) =  -4069.74099864
 Copying the excited state density for this state as the 1-particle RhoCI density.

 Excited State   2:      Singlet-A      1.7216 eV  720.18 nm  f=0.4584  <S**2>=0.000
     310 -> 316       -0.17528
     311 -> 313        0.68178
     310 <- 316       -0.10289

 Excited State   3:      Singlet-A      2.2690 eV  546.42 nm  f=0.1128  <S**2>=0.000
     310 -> 313        0.63910
     311 -> 316        0.28652

 Excited State   4:      Singlet-A      2.3104 eV  536.64 nm  f=0.0714  <S**2>=0.000
     309 -> 314        0.61633
     312 -> 315        0.33582

 Excited State   5:      Singlet-A      3.1563 eV  392.82 nm  f=0.0000  <S**2>=0.000
     312 -> 313        0.70710

 The electronic state is 1-A.
 Alpha  occ. eigenvalues --  -46.89185 -46.88935 -19.25803 -19.25622 -19.20246
 Alpha  occ. eigenvalues --  -19.19622 -19.19536 -19.19450 -19.19202 -19.17674
 Alpha  occ. eigenvalues --  -14.42646 -14.42091 -14.42066 -14.41728 -14.40085
 Alpha  occ. eigenvalues --  -14.39966 -14.39324 -14.39275 -10.40034 -10.39552
 Alpha  occ. eigenvalues --  -10.36501 -10.36094 -10.35360 -10.33340 -10.32178
 Alpha  occ. eigenvalues --  -10.32127 -10.31888 -10.31679 -10.31358 -10.30966
 Alpha  occ. eigenvalues --  -10.30944 -10.30646 -10.30594 -10.30487 -10.30381
 Alpha  occ. eigenvalues --  -10.30308 -10.30097 -10.30018 -10.29982 -10.29848
 Alpha  occ. eigenvalues --  -10.29349 -10.29307 -10.29010 -10.28802 -10.28579
 Alpha  occ. eigenvalues --  -10.28473 -10.28383 -10.28378 -10.28316 -10.28314
 Alpha  occ. eigenvalues --  -10.28314 -10.28096 -10.28062 -10.28040 -10.27987
 Alpha  occ. eigenvalues --  -10.27771 -10.27769 -10.27751 -10.27536 -10.27490
 Alpha  occ. eigenvalues --  -10.27477 -10.27400 -10.27162 -10.27146 -10.27024
 Alpha  occ. eigenvalues --  -10.27021 -10.26804 -10.26751 -10.26740 -10.26705
 Alpha  occ. eigenvalues --  -10.26667 -10.26592 -10.26578 -10.26523 -10.26491
 Alpha  occ. eigenvalues --  -10.26255 -10.26241 -10.26223 -10.26179 -10.26063
 Alpha  occ. eigenvalues --  -10.25869 -10.25710 -10.25660 -10.25464 -10.25182
 Alpha  occ. eigenvalues --  -10.24395  -3.17710  -3.17561  -1.92602  -1.92419
 Alpha  occ. eigenvalues --   -1.92159  -1.92032  -1.92024  -1.91866  -1.15556
 Alpha  occ. eigenvalues --   -1.14983  -1.10422  -1.10385  -1.09066  -1.07964
 Alpha  occ. eigenvalues --   -1.07033  -1.06535  -1.05726  -1.04382  -1.04155
 Alpha  occ. eigenvalues --   -1.03873  -1.03556  -1.02953  -1.02622  -1.01888
 Alpha  occ. eigenvalues --   -0.93143  -0.91267  -0.89917  -0.89173  -0.88857
 Alpha  occ. eigenvalues --   -0.88726  -0.88168  -0.88057  -0.87549  -0.87153
 Alpha  occ. eigenvalues --   -0.86999  -0.86815  -0.86089  -0.85569  -0.84533
 Alpha  occ. eigenvalues --   -0.84186  -0.83923  -0.83330  -0.82810  -0.82356
 Alpha  occ. eigenvalues --   -0.82164  -0.81670  -0.81105  -0.81017  -0.80092
 Alpha  occ. eigenvalues --   -0.80037  -0.78532  -0.78177  -0.77554  -0.77227
 Alpha  occ. eigenvalues --   -0.76779  -0.76737  -0.76530  -0.76095  -0.75348
 Alpha  occ. eigenvalues --   -0.74912  -0.72631  -0.72341  -0.71759  -0.71682
 Alpha  occ. eigenvalues --   -0.69440  -0.69303  -0.69108  -0.68919  -0.68442
 Alpha  occ. eigenvalues --   -0.67707  -0.67574  -0.66819  -0.65842  -0.65788
 Alpha  occ. eigenvalues --   -0.65196  -0.64886  -0.64587  -0.64459  -0.64209
 Alpha  occ. eigenvalues --   -0.63941  -0.62633  -0.62451  -0.60727  -0.60241
 Alpha  occ. eigenvalues --   -0.59654  -0.59632  -0.59074  -0.58878  -0.58661
 Alpha  occ. eigenvalues --   -0.58635  -0.57985  -0.57749  -0.57436  -0.57192
 Alpha  occ. eigenvalues --   -0.56307  -0.56151  -0.55658  -0.55613  -0.55141
 Alpha  occ. eigenvalues --   -0.54956  -0.54537  -0.54441  -0.54201  -0.54190
 Alpha  occ. eigenvalues --   -0.53774  -0.53739  -0.53398  -0.53093  -0.52797
 Alpha  occ. eigenvalues --   -0.52623  -0.52570  -0.52350  -0.52163  -0.52134
 Alpha  occ. eigenvalues --   -0.51680  -0.51571  -0.51195  -0.51186  -0.51112
 Alpha  occ. eigenvalues --   -0.50955  -0.50716  -0.50704  -0.50480  -0.50308
 Alpha  occ. eigenvalues --   -0.49987  -0.49966  -0.49787  -0.49691  -0.49367
 Alpha  occ. eigenvalues --   -0.49364  -0.49360  -0.49264  -0.49039  -0.48972
 Alpha  occ. eigenvalues --   -0.48966  -0.48581  -0.48567  -0.48354  -0.48164
 Alpha  occ. eigenvalues --   -0.48144  -0.47791  -0.47656  -0.47373  -0.47299
 Alpha  occ. eigenvalues --   -0.47207  -0.46785  -0.46619  -0.46454  -0.46381
 Alpha  occ. eigenvalues --   -0.46246  -0.46167  -0.46138  -0.45966  -0.45776
 Alpha  occ. eigenvalues --   -0.45388  -0.44982  -0.44974  -0.44796  -0.44694
 Alpha  occ. eigenvalues --   -0.44618  -0.44562  -0.44516  -0.44404  -0.44187
 Alpha  occ. eigenvalues --   -0.44127  -0.44006  -0.43930  -0.43861  -0.43591
 Alpha  occ. eigenvalues --   -0.43234  -0.43039  -0.42934  -0.42919  -0.42757
 Alpha  occ. eigenvalues --   -0.42681  -0.42399  -0.42266  -0.42206  -0.42103
 Alpha  occ. eigenvalues --   -0.42016  -0.41986  -0.41835  -0.41568  -0.41527
 Alpha  occ. eigenvalues --   -0.41094  -0.41068  -0.40837  -0.40612  -0.40424
 Alpha  occ. eigenvalues --   -0.40279  -0.39862  -0.39702  -0.39275  -0.39088
 Alpha  occ. eigenvalues --   -0.38909  -0.38265  -0.37867  -0.37649  -0.37516
 Alpha  occ. eigenvalues --   -0.37084  -0.37050  -0.37016  -0.36678  -0.36633
 Alpha  occ. eigenvalues --   -0.36203  -0.35955  -0.34760  -0.34415  -0.34285
 Alpha  occ. eigenvalues --   -0.34001  -0.33357  -0.33201  -0.31966  -0.31415
 Alpha  occ. eigenvalues --   -0.31205  -0.31106  -0.30982  -0.30589  -0.30266
 Alpha  occ. eigenvalues --   -0.29968  -0.29667  -0.29605  -0.24144  -0.23913
 Alpha  occ. eigenvalues --   -0.21104  -0.20832
 Alpha virt. eigenvalues --   -0.08551  -0.08187  -0.01808  -0.01771   0.00275
 Alpha virt. eigenvalues --    0.00576   0.01648   0.01894   0.02051   0.02552
 Alpha virt. eigenvalues --    0.03433   0.04901   0.05032   0.05219   0.05679

 Mulliken charges:
               1
     1  Mg   0.832075
     2  C   -0.058918
     3  C   -0.068393
     4  C   -0.048467
     5  C   -0.064226
     6  N   -0.282651
     7  C   -0.070738
     8  C    0.037194
     9  C   -0.103337
    10  C    0.096668
    11  C    0.074353
    12  C    0.030387
    13  C   -0.078901
    14  H   -0.000472
    15  N   -0.351749
    16  C    0.093650
    17  C   -0.163048
    18  C   -0.023583
    19  C    0.114229
    20  C    0.115763
    21  C    0.042812
    22  O   -0.195749
    23  C    0.027077
    24  N   -0.202736
    25  C   -0.029782
    26  C   -0.063757
    27  C   -0.010493
    28  C   -0.014918
    29  C    0.083990
    30  C    0.049331
    31  C   -0.014705
    32  N   -0.364338
    33  C    0.117921
    34  C   -0.165067
    35  C   -0.033217
    36  C    0.166867
    37  C    0.154753
    38  C    0.031396
    39  O   -0.204146
    40  C    0.011464
    41  C    0.227325
    42  O   -0.237193
    43  O   -0.334650
    44  C    0.179436
    45  H   -0.045396
    46  H    0.005822
    47  H   -0.021653
    48  H    0.012738
    49  H    0.012068
    50  H    0.012174
    51  H    0.020274
    52  H    0.026678
    53  H    0.007753
    54  H    0.051198
    55  H    0.027694
    56  H    0.042475
    57  H    0.007536
    58  H    0.029960
    59  H    0.019386
    60  H    0.028800
    61  H    0.041996
    62  H    0.025828
    63  H    0.012607
    64  H   -0.000584
    65  H    0.024229
    66  H    0.022911
    67  H    0.008034
    68  H    0.006248
    69  H    0.012164
    70  H    0.013274
    71  H    0.012265
    72  H    0.019506
    73  H   -0.002864
    74  H    0.041555
    75  H    0.058656
    76  H    0.040254
    77  H    0.041161
    78  H    0.045314
    79  H    0.038481
    80  Mg   0.851592
    81  C   -0.100135
    82  C   -0.078319
    83  C   -0.099237
    84  C   -0.088974
    85  N   -0.279396
    86  C   -0.081182
    87  C   -0.019348
    88  C   -0.002841
    89  C   -0.000079
    90  C    0.073898
    91  C    0.027109
    92  C   -0.064900
    93  H    0.020891
    94  N   -0.362122
    95  C    0.140218
    96  C   -0.140667
    97  C   -0.078373
    98  C    0.187261
    99  C    0.142632
   100  C    0.026526
   101  O   -0.197116
   102  C    0.035344
   103  N   -0.347416
   104  C    0.055857
   105  C   -0.054216
   106  C   -0.028388
   107  C    0.061122
   108  C    0.055230
   109  C    0.021388
   110  C    0.018572
   111  N   -0.317871
   112  C    0.107216
   113  C   -0.195302
   114  C   -0.057889
   115  C    0.233636
   116  C    0.136021
   117  C    0.071821
   118  O   -0.182106
   119  C    0.008132
   120  C    0.252098
   121  O   -0.249965
   122  O   -0.351341
   123  C    0.193052
   124  H   -0.033182
   125  H   -0.057971
   126  H   -0.041243
   127  H    0.023636
   128  H    0.018855
   129  H    0.021287
   130  H    0.018752
   131  H    0.026172
   132  H    0.015693
   133  H    0.022979
   134  H    0.041905
   135  H    0.033106
   136  H    0.040421
   137  H    0.001806
   138  H    0.020858
   139  H    0.054660
   140  H    0.038699
   141  H    0.026090
   142  H    0.018366
   143  H    0.011702
   144  H    0.016645
   145  H    0.016008
   146  H    0.011111
   147  H    0.024242
   148  H    0.000210
   149  H    0.028351
   150  H    0.019648
   151  H    0.018971
   152  H    0.013660
   153  H    0.031441
   154  H    0.042842
   155  H    0.030553
   156  H    0.050914
   157  H    0.016635
   158  H    0.033747
 Sum of Mulliken charges =  -0.00000

 Dipole moment (field-independent basis, Debye):
    X=              2.0371    Y=             -3.1284    Z=             -0.5807  Tot=              3.7781
 Quadrupole moment (field-independent basis, Debye-Ang):
   XX=           -437.9796   YY=           -568.2109   ZZ=           -477.5644
   XY=            162.6524   XZ=             22.4422   YZ=             15.2296

 Normal termination of Gaussian 16 at Wed Sep  1 12:30:38 2021.
