 Gaussian 16, Revision A.03,
 Gaussian 16:  ES64L-G16RevA.03 25-Dec-2016

 ----------------------------------------------------------
 #p cam-b3lyp/Def2SVP td=(nstates=5) density=(transition=1)
 ----------------------------------------------------------

 --------------------------------
 TDDFT excited states in gaussian
 --------------------------------
 Symbolic Z-matrix:
 Charge =  0 Multiplicity = 1

                         Standard orientation:
 ---------------------------------------------------------------------
 Center     Atomic      Atomic             Coordinates (Angstroms)
 Number     Number       Type             X           Y           Z
 ---------------------------------------------------------------------
      1         12           0       31.977034    0.488239   -0.540952
      2          6           0       29.312531   -1.815300    0.488491
      3          6           0       29.529693    2.929440   -0.365611
      4          6           0       34.356108    2.605538   -0.376882
      5          6           0       34.183621   -2.319827   -0.144079
      6          7           0       29.621911    0.509263    0.171600
      7          6           0       28.774846   -0.519170    0.522408
      8          6           0       27.379946    0.074805    0.939805
      9          6           0       27.395723    1.514483    0.397324
     10          6           0       28.924562    1.669280    0.047234
     11          6           0       26.522488    1.852286   -0.881831
     12          6           0       27.077675   -0.043685    2.472932
     13          6           0       25.654005   -0.389219    2.853167
     14          1           0       24.755838    0.785995    3.351895
     15          7           0       31.968798    2.467307   -0.517958
     16          6           0       30.897558    3.317854   -0.557206
     17          6           0       31.373268    4.728289   -0.570088
     18          6           0       32.788383    4.622398   -0.547715
     19          6           0       33.087124    3.196895   -0.435306
     20          6           0       30.510108    5.999824   -0.526871
     21          6           0       33.825581    5.738429   -0.393364
     22          8           0       33.410306    6.894130   -0.390258
     23          6           0       35.217039    5.538709   -0.287788
     24          7           0       34.006334    0.157703   -0.019800
     25          6           0       34.795675    1.255065   -0.301307
     26          6           0       36.303953    0.793299   -0.266944
     27          6           0       36.215732   -0.726696    0.119400
     28          6           0       34.711936   -0.995419   -0.128169
     29          6           0       37.118052    1.054217   -1.563936
     30          6           0       36.707093   -1.180981    1.552758
     31          6           0       38.219128   -1.355737    1.777414
     32          7           0       31.874833   -1.659346   -0.004897
     33          6           0       32.833402   -2.652712   -0.023520
     34          6           0       32.254253   -3.962613    0.151283
     35          6           0       30.850273   -3.678844    0.342841
     36          6           0       30.618143   -2.259591    0.304485
     37          6           0       33.046012   -5.232775    0.204034
     38          6           0       29.627446   -4.279154    0.640553
     39          8           0       29.354090   -5.423488    0.976612
     40          6           0       28.606106   -3.129437    0.878730
     41          6           0       27.476074   -3.422127   -0.080507
     42          8           0       26.288025   -3.429764    0.251261
     43          8           0       27.856610   -3.535589   -1.478125
     44          6           0       26.706817   -3.455039   -2.377576
     45          1           0       28.764881    3.707868   -0.389715
     46          1           0       35.266008    3.196897   -0.498630
     47          1           0       34.966588   -3.080895   -0.139622
     48          1           0       26.609263   -0.392200    0.324912
     49          1           0       27.207134    2.245846    1.183219
     50          1           0       25.681797    2.427666   -0.494750
     51          1           0       26.109395    0.947557   -1.326894
     52          1           0       27.048985    2.356765   -1.691951
     53          1           0       27.190784    0.885503    3.032014
     54          1           0       27.691601   -0.825580    2.920479
     55          1           0       25.707735   -1.216348    3.561055
     56          1           0       25.160664   -0.772730    1.959495
     57          1           0       30.932225    6.754769   -1.190711
     58          1           0       30.507455    6.275986    0.527498
     59          1           0       29.507234    5.804737   -0.904280
     60          1           0       35.572678    5.139414   -1.238158
     61          1           0       35.531006    4.941860    0.568596
     62          1           0       35.548111    6.547890   -0.040361
     63          1           0       36.891543    1.273406    0.514857
     64          1           0       36.717922   -1.353073   -0.617466
     65          1           0       37.489406    0.075335   -1.867544
     66          1           0       37.952072    1.710303   -1.316770
     67          1           0       36.386137    1.504406   -2.235673
     68          1           0       36.212010   -2.142362    1.693486
     69          1           0       36.437958   -0.443370    2.309085
     70          1           0       38.593083   -1.173878    0.769441
     71          1           0       38.469884   -2.396741    1.986156
     72          1           0       38.695435   -0.688465    2.495323
     73          1           0       33.763335   -5.089327    1.011034
     74          1           0       33.669833   -5.393317   -0.675086
     75          1           0       32.457274   -6.086614    0.539579
     76          1           0       28.231798   -3.246743    1.895520
     77          1           0       27.270392   -3.090316   -3.237167
     78          1           0       25.890966   -2.870771   -1.952051
     79          1           0       26.425815   -4.483390   -2.605139
     80         12           0      -31.983755    0.142805    0.356016
     81          6           0      -29.540926   -1.756817   -1.277589
     82          6           0      -32.733082    1.701377   -2.591859
     83          6           0      -34.026151    2.133935    2.030893
     84          6           0      -30.966553   -1.429066    3.400839
     85          7           0      -31.163070   -0.001694   -1.697609
     86          6           0      -30.221385   -0.877386   -2.190648
     87          6           0      -30.212842   -0.850127   -3.707928
     88          6           0      -31.034384    0.456787   -4.043969
     89          6           0      -31.759127    0.664763   -2.670564
     90          6           0      -30.161644    1.646059   -4.424336
     91          6           0      -30.689960   -2.237666   -4.272703
     92          6           0      -30.916655   -2.233880   -5.810011
     93          1           0      -30.057771   -1.286491   -6.621624
     94          7           0      -33.180348    1.637835   -0.189462
     95          6           0      -33.294450    2.231446   -1.440235
     96          6           0      -34.222165    3.376021   -1.418347
     97          6           0      -34.622072    3.459204   -0.049099
     98          6           0      -33.925280    2.386516    0.655867
     99          6           0      -34.603164    4.136858   -2.632716
    100          6           0      -35.567435    4.474527    0.539436
    101          8           0      -35.903455    4.448125    1.755865
    102          6           0      -36.220210    5.523915   -0.318903
    103          7           0      -32.472056    0.281623    2.440698
    104          6           0      -33.355002    1.204529    2.823036
    105          6           0      -33.464964    1.241335    4.410700
    106          6           0      -32.415900    0.083689    4.873589
    107          6           0      -31.906942   -0.376434    3.506851
    108          6           0      -33.099482    2.700397    4.906138
    109          6           0      -33.081857   -1.140530    5.635783
    110          6           0      -33.260790   -0.966124    7.171300
    111          7           0      -30.550050   -1.217153    1.000637
    112          6           0      -30.307171   -1.867506    2.239300
    113          6           0      -29.215811   -2.921556    2.057163
    114          6           0      -28.832152   -2.867430    0.720981
    115          6           0      -29.737920   -1.864362    0.105102
    116          6           0      -28.680288   -3.873572    3.080290
    117          6           0      -27.995120   -3.434813   -0.310104
    118          8           0      -27.128930   -4.314815   -0.283541
    119          6           0      -28.547391   -2.862905   -1.708696
    120          6           0      -27.444300   -2.360586   -2.611852
    121          8           0      -26.994854   -1.247257   -2.569741
    122          8           0      -27.181548   -3.278041   -3.654177
    123          6           0      -26.486265   -2.764716   -4.844052
    124          1           0      -32.820670    2.134617   -3.590765
    125          1           0      -34.690307    2.804559    2.580372
    126          1           0      -30.536077   -1.870938    4.301999
    127          1           0      -29.177527   -0.734466   -4.026096
    128          1           0      -31.813842    0.342206   -4.797933
    129          1           0      -30.507226    1.959615   -5.409287
    130          1           0      -29.117115    1.343837   -4.352265
    131          1           0      -30.389539    2.539690   -3.843802
    132          1           0      -31.476745   -2.495430   -3.564424
    133          1           0      -29.884670   -2.933053   -4.038361
    134          1           0      -31.974378   -1.986411   -5.900357
    135          1           0      -30.729877   -3.242063   -6.179575
    136          1           0      -34.199526    5.127140   -2.422423
    137          1           0      -35.675113    4.127256   -2.828220
    138          1           0      -34.166954    3.865403   -3.594888
    139          1           0      -36.866777    5.033503   -1.045309
    140          1           0      -35.316165    5.990160   -0.712566
    141          1           0      -36.768738    6.306668    0.204306
    142          1           0      -34.504774    0.935485    4.532639
    143          1           0      -31.470350    0.406477    5.311369
    144          1           0      -32.821829    3.392022    4.110921
    145          1           0      -32.253747    2.656519    5.592890
    146          1           0      -34.019747    3.100306    5.330891
    147          1           0      -32.647758   -2.096131    5.343086
    148          1           0      -34.095794   -1.211378    5.243405
    149          1           0      -34.317316   -1.127924    7.382066
    150          1           0      -32.876246    0.013740    7.454606
    151          1           0      -32.700207   -1.711524    7.735918
    152          1           0      -29.080238   -4.853596    2.819201
    153          1           0      -28.984104   -3.562945    4.080675
    154          1           0      -27.601521   -4.022728    3.121303
    155          1           0      -29.097895   -3.682235   -2.170114
    156          1           0      -25.438583   -2.708794   -4.549727
    157          1           0      -26.956061   -1.848125   -5.201351
    158          1           0      -26.653920   -3.498949   -5.631566
 ---------------------------------------------------------------------

 SCF Done:  E(RCAM-B3LYP) =  -4069.77210335     A.U. after   17 cycles

 Excitation energies and oscillator strengths:

 Excited State   1:      Singlet-A      1.7141 eV  723.32 nm  f=0.3766  <S**2>=0.000
     310 -> 316       -0.19944
     312 -> 314        0.68031
     310 <- 316       -0.11162
 This state for optimization and/or second-order correction.
 Total Energy, E(TD-HF/TD-DFT) =  -4069.70911099
 Copying the excited state density for this state as the 1-particle RhoCI density.

 Excited State   2:      Singlet-A      1.7224 eV  719.84 nm  f=0.3606  <S**2>=0.000
     309 -> 315        0.19687
     311 -> 313        0.67930
     309 <- 315        0.11035

 Excited State   3:      Singlet-A      2.2417 eV  553.08 nm  f=0.0694  <S**2>=0.000
     309 -> 313        0.61606
     311 -> 315       -0.33057

 Excited State   4:      Singlet-A      2.2903 eV  541.35 nm  f=0.0345  <S**2>=0.000
     310 -> 314        0.58797
     312 -> 316        0.38618

 Excited State   5:      Singlet-A      3.0140 eV  411.36 nm  f=0.0000  <S**2>=0.000
     312 -> 313        0.70711

 The electronic state is 1-A.
 Alpha  occ. eigenvalues --  -46.90761 -46.88056 -19.23961 -19.23711 -19.20284
 Alpha  occ. eigenvalues --  -19.20084 -19.19167 -19.18789 -19.18377 -19.17866
 Alpha  occ. eigenvalues --  -14.42714 -14.42135 -14.42015 -14.41544 -14.40810
 Alpha  occ. eigenvalues --  -14.39936 -14.39862 -14.39139 -10.39404 -10.39386
 Alpha  occ. eigenvalues --  -10.35518 -10.35232 -10.34934 -10.33505 -10.32311
 Alpha  occ. eigenvalues --  -10.31883 -10.31743 -10.31586 -10.31526 -10.31365
 Alpha  occ. eigenvalues --  -10.31010 -10.30900 -10.30777 -10.30740 -10.30596
 Alpha  occ. eigenvalues --  -10.30351 -10.30341 -10.30299 -10.30098 -10.29654
 Alpha  occ. eigenvalues --  -10.29605 -10.29462 -10.29394 -10.29237 -10.29211
 Alpha  occ. eigenvalues --  -10.29089 -10.28913 -10.28911 -10.28832 -10.28526
 Alpha  occ. eigenvalues --  -10.28526 -10.28402 -10.28321 -10.28318 -10.28282
 Alpha  occ. eigenvalues --  -10.28214 -10.28176 -10.28124 -10.28062 -10.27723
 Alpha  occ. eigenvalues --  -10.27693 -10.27597 -10.27561 -10.27461 -10.27340
 Alpha  occ. eigenvalues --  -10.27147 -10.26976 -10.26889 -10.26851 -10.26849
 Alpha  occ. eigenvalues --  -10.26801 -10.26656 -10.26646 -10.26604 -10.26427
 Alpha  occ. eigenvalues --  -10.26421 -10.26238 -10.26205 -10.26181 -10.25971
 Alpha  occ. eigenvalues --  -10.25844 -10.25750 -10.25554 -10.25383 -10.25234
 Alpha  occ. eigenvalues --  -10.25136  -3.19172  -3.16738  -1.94017  -1.93679
 Alpha  occ. eigenvalues --   -1.93437  -1.91643  -1.91178  -1.91068  -1.15460
 Alpha  occ. eigenvalues --   -1.13942  -1.10458  -1.09099  -1.08980  -1.07791
 Alpha  occ. eigenvalues --   -1.07759  -1.06344  -1.05032  -1.04313  -1.03452
 Alpha  occ. eigenvalues --   -1.03368  -1.03342  -1.02783  -1.01361  -1.01083
 Alpha  occ. eigenvalues --   -0.92887  -0.91591  -0.89005  -0.88944  -0.88899
 Alpha  occ. eigenvalues --   -0.88562  -0.88510  -0.87813  -0.87549  -0.86994
 Alpha  occ. eigenvalues --   -0.86930  -0.86711  -0.86307  -0.85932  -0.85022
 Alpha  occ. eigenvalues --   -0.84233  -0.83873  -0.83697  -0.82923  -0.82533
 Alpha  occ. eigenvalues --   -0.82177  -0.81915  -0.81155  -0.80740  -0.79986
 Alpha  occ. eigenvalues --   -0.79882  -0.78948  -0.78258  -0.77403  -0.77361
 Alpha  occ. eigenvalues --   -0.77044  -0.76961  -0.75830  -0.75747  -0.75276
 Alpha  occ. eigenvalues --   -0.74529  -0.72842  -0.72052  -0.71927  -0.71454
 Alpha  occ. eigenvalues --   -0.69396  -0.69146  -0.68602  -0.68600  -0.68260
 Alpha  occ. eigenvalues --   -0.67717  -0.67050  -0.67015  -0.65572  -0.65496
 Alpha  occ. eigenvalues --   -0.65380  -0.65113  -0.65053  -0.64030  -0.63928
 Alpha  occ. eigenvalues --   -0.63749  -0.61906  -0.61249  -0.60622  -0.60388
 Alpha  occ. eigenvalues --   -0.59815  -0.59479  -0.59273  -0.58924  -0.58681
 Alpha  occ. eigenvalues --   -0.57780  -0.57496  -0.57167  -0.57003  -0.56765
 Alpha  occ. eigenvalues --   -0.56758  -0.56136  -0.55931  -0.55610  -0.54788
 Alpha  occ. eigenvalues --   -0.54506  -0.54337  -0.54223  -0.53944  -0.53938
 Alpha  occ. eigenvalues --   -0.53788  -0.53667  -0.53554  -0.53302  -0.53228
 Alpha  occ. eigenvalues --   -0.52895  -0.52495  -0.52488  -0.52194  -0.51993
 Alpha  occ. eigenvalues --   -0.51884  -0.51744  -0.51732  -0.51443  -0.51423
 Alpha  occ. eigenvalues --   -0.51139  -0.51025  -0.50816  -0.50625  -0.50465
 Alpha  occ. eigenvalues --   -0.50048  -0.49894  -0.49862  -0.49522  -0.49518
 Alpha  occ. eigenvalues --   -0.49411  -0.49304  -0.49126  -0.48989  -0.48957
 Alpha  occ. eigenvalues --   -0.48866  -0.48644  -0.48487  -0.48394  -0.48163
 Alpha  occ. eigenvalues --   -0.48091  -0.48038  -0.47966  -0.47740  -0.47370
 Alpha  occ. eigenvalues --   -0.47280  -0.46860  -0.46737  -0.46528  -0.46163
 Alpha  occ. eigenvalues --   -0.46146  -0.46059  -0.45906  -0.45714  -0.45578
 Alpha  occ. eigenvalues --   -0.45372  -0.45189  -0.45143  -0.44974  -0.44839
 Alpha  occ. eigenvalues --   -0.44690  -0.44632  -0.44475  -0.44334  -0.44161
 Alpha  occ. eigenvalues --   -0.44120  -0.43975  -0.43806  -0.43595  -0.43450
 Alpha  occ. eigenvalues --   -0.43192  -0.43106  -0.43054  -0.42877  -0.42566
 Alpha  occ. eigenvalues --   -0.42534  -0.42456  -0.42325  -0.42309  -0.42083
 Alpha  occ. eigenvalues --   -0.42065  -0.41936  -0.41497  -0.41493  -0.41352
 Alpha  occ. eigenvalues --   -0.41268  -0.40893  -0.40314  -0.40270  -0.40214
 Alpha  occ. eigenvalues --   -0.40168  -0.39965  -0.39310  -0.39208  -0.39057
 Alpha  occ. eigenvalues --   -0.38861  -0.38481  -0.38204  -0.37970  -0.37865
 Alpha  occ. eigenvalues --   -0.37526  -0.37168  -0.36634  -0.36338  -0.36256
 Alpha  occ. eigenvalues --   -0.35875  -0.35366  -0.34517  -0.34480  -0.34127
 Alpha  occ. eigenvalues --   -0.33861  -0.33198  -0.33158  -0.31753  -0.31401
 Alpha  occ. eigenvalues --   -0.31297  -0.31042  -0.30913  -0.30496  -0.30471
 Alpha  occ. eigenvalues --   -0.30156  -0.30012  -0.28742  -0.24470  -0.23967
 Alpha  occ. eigenvalues --   -0.21458  -0.20410
 Alpha virt. eigenvalues --   -0.08790  -0.07869  -0.02702  -0.02120  -0.00366
 Alpha virt. eigenvalues --   -0.00193   0.00582   0.02168   0.02187   0.03277
 Alpha virt. eigenvalues --    0.04379   0.04508   0.04820   0.04973   0.05482

 Mulliken charges:
               1
     1  Mg  11.999967
     2  C    6.000319
     3  C    5.999942
     4  C    5.999540
     5  C    6.000225
     6  N    7.000117
     7  C    5.999548
     8  C    6.000052
     9  C    5.999935
    10  C    6.000382
    11  C    5.999883
    12  C    6.000042
    13  C    6.000026
    14  H    0.999859
    15  N    6.999805
    16  C    6.000542
    17  C    6.000323
    18  C    6.000056
    19  C    6.000600
    20  C    5.999952
    21  C    6.000187
    22  O    8.000238
    23  C    5.999934
    24  N    7.000009
    25  C    6.000568
    26  C    5.999827
    27  C    6.000089
    28  C    5.999534
    29  C    5.999994
    30  C    6.000053
    31  C    5.999982
    32  N    7.000080
    33  C    5.999565
    34  C    5.999497
    35  C    6.000091
    36  C    5.999394
    37  C    6.000053
    38  C    5.999752
    39  O    7.999587
    40  C    6.000032
    41  C    5.999941
    42  O    7.999850
    43  O    8.000060
    44  C    6.000022
    45  H    1.000160
    46  H    1.000104
    47  H    0.999902
    48  H    0.999995
    49  H    1.000005
    50  H    1.000081
    51  H    1.000182
    52  H    0.999978
    53  H    0.999880
    54  H    1.000105
    55  H    1.000023
    56  H    0.999998
    57  H    1.000229
    58  H    1.000251
    59  H    1.000219
    60  H    1.000116
    61  H    1.000144
    62  H    1.000171
    63  H    1.000075
    64  H    1.000042
    65  H    1.000158
    66  H    1.000031
    67  H    0.999958
    68  H    1.000086
    69  H    0.999868
    70  H    0.999942
    71  H    1.000021
    72  H    0.999934
    73  H    0.999713
    74  H    0.999706
    75  H    0.999782
    76  H    0.999882
    77  H    0.999947
    78  H    0.999900
    79  H    0.999957
    80  Mg  11.997614
    81  C    5.970528
    82  C    6.015540
    83  C    6.027302
    84  C    5.984217
    85  N    6.989285
    86  C    6.040162
    87  C    5.993069
    88  C    6.008016
    89  C    5.968580
    90  C    6.002403
    91  C    5.996376
    92  C    6.000030
    93  H    1.005425
    94  N    7.009653
    95  C    5.956429
    96  C    5.976509
    97  C    5.983467
    98  C    5.966999
    99  C    6.006642
   100  C    5.988468
   101  O    7.969023
   102  C    6.003108
   103  N    7.003763
   104  C    5.966417
   105  C    6.005979
   106  C    5.990038
   107  C    6.036501
   108  C    6.002953
   109  C    5.992390
   110  C    6.001465
   111  N    6.993715
   112  C    6.044229
   113  C    6.028744
   114  C    6.006420
   115  C    6.032459
   116  C    5.994144
   117  C    6.015537
   118  O    8.031122
   119  C    6.003668
   120  C    6.001252
   121  O    8.007247
   122  O    8.000674
   123  C    5.997645
   124  H    0.987032
   125  H    0.995544
   126  H    1.009271
   127  H    1.000279
   128  H    0.999630
   129  H    0.996185
   130  H    0.984385
   131  H    1.005416
   132  H    1.002454
   133  H    0.993621
   134  H    1.007122
   135  H    0.998714
   136  H    0.981231
   137  H    0.979664
   138  H    0.980475
   139  H    0.992872
   140  H    0.995911
   141  H    0.984764
   142  H    1.002650
   143  H    0.999368
   144  H    1.006412
   145  H    0.989569
   146  H    1.000854
   147  H    0.995363
   148  H    1.010235
   149  H    1.005567
   150  H    1.005027
   151  H    0.999625
   152  H    1.020285
   153  H    1.018004
   154  H    1.019597
   155  H    1.005795
   156  H    1.001441
   157  H    1.006447
   158  H    1.003985
 Sum of Mulliken charges = 624.00000

 Dipole moment (field-independent basis, Debye):
    X=              6.6221    Y=             -7.8815    Z=              3.1482  Tot=             10.7648
 Quadrupole moment (field-independent basis, Debye-Ang):
   XX=           -418.4224   YY=             -4.8447   ZZ=              5.1789
   XY=            261.2618   XZ=           -100.6084   YZ=             -1.1952

 Normal termination of Gaussian 16 at Thu Sep 23 03:37:34 2021.
