 Gaussian 16, Revision A.03,
 Gaussian 16:  ES64L-G16RevA.03 25-Dec-2016

 ----------------------------------------------------------
 #p cam-b3lyp/Def2SVP td=(nstates=5) density=(transition=1)
 ----------------------------------------------------------

 --------------------------------
 TDDFT excited states in gaussian
 --------------------------------
 Symbolic Z-matrix:
 Charge =  0 Multiplicity = 1

                         Standard orientation:
 ---------------------------------------------------------------------
 Center     Atomic      Atomic             Coordinates (Angstroms)
 Number     Number       Type             X           Y           Z
 ---------------------------------------------------------------------
      1         12           0       28.394998    0.345188   -0.227762
      2          6           0       26.271089   -2.312516   -0.102798
      3          6           0       25.898220    2.232612    1.266553
      4          6           0       30.617170    2.852178   -0.005172
      5          6           0       31.047302   -1.794770   -1.106187
      6          7           0       26.400599   -0.087809    0.734974
      7          6           0       25.759427   -1.265037    0.592110
      8          6           0       24.455703   -1.293308    1.302660
      9          6           0       24.190091    0.334610    1.411445
     10          6           0       25.593559    0.905687    1.118745
     11          6           0       23.063906    0.828685    0.456149
     12          6           0       24.627498   -1.946612    2.664806
     13          6           0       25.722188   -1.368372    3.676255
     14          1           0       25.418221   -1.266500    5.165759
     15          7           0       28.287297    2.263956    0.519382
     16          6           0       27.117074    2.919782    0.978457
     17          6           0       27.442987    4.298834    1.127267
     18          6           0       28.781527    4.521400    0.828739
     19          6           0       29.313838    3.222561    0.383494
     20          6           0       26.348712    5.243650    1.580782
     21          6           0       29.561353    5.803705    0.995455
     22          8           0       28.911618    6.780318    1.445219
     23          6           0       30.974841    5.945773    0.891031
     24          7           0       30.578741    0.431856   -0.311464
     25          6           0       31.239540    1.623321   -0.247733
     26          6           0       32.760391    1.433534   -0.461496
     27          6           0       32.865561   -0.088116   -0.815769
     28          6           0       31.423302   -0.542272   -0.667342
     29          6           0       33.343203    2.357149   -1.509742
     30          6           0       33.902432   -0.849606    0.170421
     31          6           0       34.812311   -1.859267   -0.538582
     32          7           0       28.697472   -1.703498   -0.575474
     33          6           0       29.734411   -2.399525   -1.109276
     34          6           0       29.223181   -3.690269   -1.482772
     35          6           0       27.823350   -3.749052   -1.159491
     36          6           0       27.574424   -2.513654   -0.584793
     37          6           0       30.053715   -4.864947   -1.872146
     38          6           0       26.626322   -4.523054   -1.081456
     39          8           0       26.512141   -5.680809   -1.503268
     40          6           0       25.589881   -3.619955   -0.438751
     41          6           0       24.448762   -3.470574   -1.374341
     42          8           0       23.864894   -4.463884   -1.760867
     43          8           0       24.104497   -2.182217   -1.648559
     44          6           0       22.964295   -2.021895   -2.553077
     45          1           0       25.044081    2.880988    1.472169
     46          1           0       31.258647    3.723374   -0.152276
     47          1           0       31.772613   -2.479385   -1.551520
     48          1           0       23.623811   -1.817368    0.832003
     49          1           0       23.751907    0.592921    2.376363
     50          1           0       22.273171    1.309821    1.030617
     51          1           0       22.639211   -0.058334   -0.014635
     52          1           0       23.400363    1.495486   -0.338812
     53          1           0       24.756308   -3.015026    2.490380
     54          1           0       23.607197   -1.942814    3.048117
     55          1           0       26.072175   -0.357376    3.467281
     56          1           0       26.511950   -2.114165    3.590683
     57          1           0       26.345355    5.179730    2.669063
     58          1           0       25.390878    4.874085    1.216751
     59          1           0       26.445610    6.283721    1.267949
     60          1           0       31.350814    6.741655    1.534702
     61          1           0       31.332912    6.008288   -0.137385
     62          1           0       31.376081    5.054132    1.370870
     63          1           0       33.173242    1.631941    0.528206
     64          1           0       33.101433   -0.197446   -1.874136
     65          1           0       32.638752    3.095676   -1.891472
     66          1           0       33.911949    1.967955   -2.353797
     67          1           0       33.989857    3.004227   -0.916374
     68          1           0       33.420053   -1.398995    0.978934
     69          1           0       34.524010   -0.150363    0.729423
     70          1           0       35.816645   -1.438295   -0.576790
     71          1           0       34.487171   -1.939315   -1.576094
     72          1           0       34.841484   -2.828897   -0.041282
     73          1           0       30.559816   -4.826920   -2.836027
     74          1           0       29.374437   -5.717389   -1.834099
     75          1           0       30.868637   -5.042023   -1.170174
     76          1           0       25.252666   -4.138679    0.459116
     77          1           0       22.112806   -2.537945   -2.108574
     78          1           0       23.168548   -2.352101   -3.571704
     79          1           0       22.772175   -0.966415   -2.745271
     80         12           0      -28.683209   -0.286311   -0.575805
     81          6           0      -25.312681    0.728617   -0.380800
     82          6           0      -27.785444   -3.140337    1.053831
     83          6           0      -32.007972   -0.910484   -0.088145
     84          6           0      -29.375278    2.994824   -1.782126
     85          7           0      -26.751296   -1.055510    0.382244
     86          6           0      -25.477499   -0.589046    0.226344
     87          6           0      -24.450713   -1.423983    1.010866
     88          6           0      -25.305553   -2.783326    1.073773
     89          6           0      -26.711947   -2.301783    0.817321
     90          6           0      -24.892646   -3.886291    0.062584
     91          6           0      -24.127634   -0.875800    2.473225
     92          6           0      -22.801053   -1.243143    3.120024
     93          1           0      -22.712826   -2.195972    4.331163
     94          7           0      -29.850871   -1.846088    0.333730
     95          6           0      -29.252392   -2.975484    0.811755
     96          6           0      -30.197648   -3.960774    1.101947
     97          6           0      -31.470537   -3.367823    0.757940
     98          6           0      -31.186112   -1.967427    0.334923
     99          6           0      -29.877855   -5.352408    1.634391
    100          6           0      -32.777006   -4.119108    0.879513
    101          8           0      -32.772881   -5.309778    1.285718
    102          6           0      -34.160903   -3.539259    0.419810
    103          7           0      -30.365276    0.892883   -0.907048
    104          6           0      -31.666988    0.382495   -0.652369
    105          6           0      -32.698590    1.261557   -1.303019
    106          6           0      -31.971689    2.605569   -1.525524
    107          6           0      -30.480590    2.160597   -1.487144
    108          6           0      -33.317908    0.848219   -2.657266
    109          6           0      -32.263917    3.667112   -0.339010
    110          6           0      -33.526277    4.512597   -0.415467
    111          7           0      -27.525850    1.430763   -1.164650
    112          6           0      -27.941587    2.666347   -1.637637
    113          6           0      -26.878321    3.533307   -1.805609
    114          6           0      -25.766881    2.793117   -1.367396
    115          6           0      -26.225811    1.527417   -0.965325
    116          6           0      -26.977532    4.928398   -2.336995
    117          6           0      -24.403140    2.802031   -1.274901
    118          8           0      -23.596099    3.619243   -1.671949
    119          6           0      -24.087652    1.572417   -0.397440
    120          6           0      -23.684815    2.140291    0.930725
    121          8           0      -24.375463    2.854236    1.589027
    122          8           0      -22.371922    1.774860    1.233402
    123          6           0      -21.886245    2.425376    2.400415
    124          1           0      -27.517869   -4.147161    1.381919
    125          1           0      -33.075218   -1.136463   -0.145456
    126          1           0      -29.649482    3.925024   -2.283670
    127          1           0      -23.569484   -1.665792    0.417614
    128          1           0      -25.138092   -3.203881    2.064944
    129          1           0      -24.267075   -4.539534    0.671537
    130          1           0      -24.286385   -3.493402   -0.753531
    131          1           0      -25.756084   -4.449130   -0.292461
    132          1           0      -24.864010   -1.243942    3.187656
    133          1           0      -24.281494    0.202902    2.437117
    134          1           0      -22.373621   -0.279996    3.402613
    135          1           0      -22.162745   -1.647415    2.334550
    136          1           0      -30.471639   -6.206211    1.306267
    137          1           0      -29.945525   -5.125249    2.698053
    138          1           0      -28.887134   -5.659254    1.299036
    139          1           0      -34.136961   -3.353129   -0.653573
    140          1           0      -34.247902   -2.641218    1.031096
    141          1           0      -35.042102   -4.111933    0.708698
    142          1           0      -33.476816    1.420691   -0.557306
    143          1           0      -32.235588    3.066299   -2.477532
    144          1           0      -33.055414    1.486238   -3.500961
    145          1           0      -34.328364    0.459459   -2.529293
    146          1           0      -32.792983   -0.073125   -2.909109
    147          1           0      -31.369200    4.284050   -0.420013
    148          1           0      -32.275103    3.170234    0.631271
    149          1           0      -34.076532    4.417453    0.520235
    150          1           0      -34.147857    4.155918   -1.237228
    151          1           0      -33.289554    5.571446   -0.523053
    152          1           0      -26.428478    5.554578   -1.634358
    153          1           0      -28.000411    5.307013   -2.336763
    154          1           0      -26.523291    5.040758   -3.321595
    155          1           0      -23.253019    1.040224   -0.852493
    156          1           0      -21.374236    3.345343    2.119590
    157          1           0      -21.078689    1.884469    2.895211
    158          1           0      -22.681767    2.667376    3.103103
 ---------------------------------------------------------------------

 SCF Done:  E(RCAM-B3LYP) =  -4069.78452441     A.U. after   17 cycles

 Excitation energies and oscillator strengths:

 Excited State   1:      Singlet-A      1.7067 eV  726.47 nm  f=0.4008  <S**2>=0.000
     309 -> 315       -0.18536
     311 -> 313        0.68241
     309 <- 315       -0.10820
 This state for optimization and/or second-order correction.
 Total Energy, E(TD-HF/TD-DFT) =  -4069.72180599
 Copying the excited state density for this state as the 1-particle RhoCI density.

 Excited State   2:      Singlet-A      1.7418 eV  711.81 nm  f=0.3939  <S**2>=0.000
     310 -> 316        0.17692
     312 -> 314        0.68527
     310 <- 316        0.10390

 Excited State   3:      Singlet-A      2.1434 eV  578.46 nm  f=0.1306  <S**2>=0.000
     309 -> 313        0.65033
     311 -> 315        0.26016

 Excited State   4:      Singlet-A      2.2176 eV  559.10 nm  f=0.1293  <S**2>=0.000
     310 -> 314        0.65061
     312 -> 316       -0.25321

 Excited State   5:      Singlet-A      3.1199 eV  397.40 nm  f=0.0000  <S**2>=0.000
     312 -> 313        0.70710

 The electronic state is 1-A.
 Alpha  occ. eigenvalues --  -46.90327 -46.89116 -19.26401 -19.25407 -19.20937
 Alpha  occ. eigenvalues --  -19.19486 -19.18286 -19.18169 -19.18108 -19.17898
 Alpha  occ. eigenvalues --  -14.43191 -14.42684 -14.42087 -14.42069 -14.39834
 Alpha  occ. eigenvalues --  -14.39797 -14.39220 -14.38613 -10.39713 -10.39475
 Alpha  occ. eigenvalues --  -10.35038 -10.34844 -10.34457 -10.33370 -10.32751
 Alpha  occ. eigenvalues --  -10.32415 -10.32340 -10.31687 -10.31649 -10.31226
 Alpha  occ. eigenvalues --  -10.31195 -10.31002 -10.30954 -10.30729 -10.30527
 Alpha  occ. eigenvalues --  -10.30395 -10.30241 -10.30219 -10.29961 -10.29247
 Alpha  occ. eigenvalues --  -10.29208 -10.29110 -10.29054 -10.28568 -10.28466
 Alpha  occ. eigenvalues --  -10.28383 -10.28350 -10.28337 -10.28318 -10.28286
 Alpha  occ. eigenvalues --  -10.28224 -10.28215 -10.28075 -10.28066 -10.28030
 Alpha  occ. eigenvalues --  -10.27972 -10.27877 -10.27853 -10.27739 -10.27681
 Alpha  occ. eigenvalues --  -10.27563 -10.27465 -10.27425 -10.27407 -10.27368
 Alpha  occ. eigenvalues --  -10.27351 -10.27301 -10.27237 -10.27183 -10.27003
 Alpha  occ. eigenvalues --  -10.26780 -10.26602 -10.26553 -10.26505 -10.26493
 Alpha  occ. eigenvalues --  -10.26474 -10.26380 -10.26348 -10.26097 -10.25856
 Alpha  occ. eigenvalues --  -10.25674 -10.25625 -10.25562 -10.24979 -10.24559
 Alpha  occ. eigenvalues --  -10.24180  -3.18619  -3.17569  -1.93517  -1.93067
 Alpha  occ. eigenvalues --   -1.92916  -1.92445  -1.92044  -1.91851  -1.17654
 Alpha  occ. eigenvalues --   -1.17425  -1.10061  -1.09522  -1.09061  -1.08405
 Alpha  occ. eigenvalues --   -1.08001  -1.07334  -1.05770  -1.04992  -1.04664
 Alpha  occ. eigenvalues --   -1.04551  -1.03936  -1.02739  -1.01930  -1.01524
 Alpha  occ. eigenvalues --   -0.94357  -0.94080  -0.89290  -0.89054  -0.88981
 Alpha  occ. eigenvalues --   -0.88758  -0.88738  -0.88697  -0.87800  -0.87581
 Alpha  occ. eigenvalues --   -0.87116  -0.86334  -0.85926  -0.85854  -0.85108
 Alpha  occ. eigenvalues --   -0.84402  -0.84138  -0.83652  -0.83360  -0.82931
 Alpha  occ. eigenvalues --   -0.82812  -0.81905  -0.81467  -0.80908  -0.80708
 Alpha  occ. eigenvalues --   -0.80366  -0.78634  -0.78088  -0.78001  -0.77406
 Alpha  occ. eigenvalues --   -0.77069  -0.76966  -0.76173  -0.75984  -0.75709
 Alpha  occ. eigenvalues --   -0.74967  -0.73629  -0.72522  -0.72272  -0.72134
 Alpha  occ. eigenvalues --   -0.70158  -0.69505  -0.69132  -0.68854  -0.68495
 Alpha  occ. eigenvalues --   -0.68451  -0.67182  -0.67139  -0.66569  -0.66329
 Alpha  occ. eigenvalues --   -0.65384  -0.65346  -0.65225  -0.64767  -0.64400
 Alpha  occ. eigenvalues --   -0.64238  -0.63835  -0.62831  -0.60543  -0.60251
 Alpha  occ. eigenvalues --   -0.60172  -0.59744  -0.59631  -0.59349  -0.59204
 Alpha  occ. eigenvalues --   -0.59043  -0.58836  -0.58396  -0.58080  -0.58031
 Alpha  occ. eigenvalues --   -0.56852  -0.56596  -0.56522  -0.55814  -0.55801
 Alpha  occ. eigenvalues --   -0.55329  -0.55168  -0.55100  -0.54529  -0.54261
 Alpha  occ. eigenvalues --   -0.53864  -0.53764  -0.53571  -0.53493  -0.53216
 Alpha  occ. eigenvalues --   -0.53083  -0.52812  -0.52623  -0.52494  -0.52296
 Alpha  occ. eigenvalues --   -0.51897  -0.51848  -0.51834  -0.51461  -0.51442
 Alpha  occ. eigenvalues --   -0.51238  -0.51089  -0.50929  -0.50837  -0.50626
 Alpha  occ. eigenvalues --   -0.50340  -0.50169  -0.49849  -0.49763  -0.49609
 Alpha  occ. eigenvalues --   -0.49479  -0.49370  -0.49126  -0.49015  -0.48832
 Alpha  occ. eigenvalues --   -0.48762  -0.48694  -0.48485  -0.48453  -0.48168
 Alpha  occ. eigenvalues --   -0.47958  -0.47637  -0.47363  -0.47244  -0.47106
 Alpha  occ. eigenvalues --   -0.47024  -0.46734  -0.46617  -0.46438  -0.46416
 Alpha  occ. eigenvalues --   -0.46415  -0.46364  -0.46062  -0.46039  -0.45801
 Alpha  occ. eigenvalues --   -0.45746  -0.45650  -0.45301  -0.45242  -0.45095
 Alpha  occ. eigenvalues --   -0.44868  -0.44735  -0.44667  -0.44629  -0.44612
 Alpha  occ. eigenvalues --   -0.44549  -0.43867  -0.43785  -0.43742  -0.43557
 Alpha  occ. eigenvalues --   -0.43351  -0.43271  -0.42958  -0.42821  -0.42605
 Alpha  occ. eigenvalues --   -0.42517  -0.42449  -0.42313  -0.42255  -0.42201
 Alpha  occ. eigenvalues --   -0.41914  -0.41793  -0.41564  -0.41339  -0.41283
 Alpha  occ. eigenvalues --   -0.41205  -0.41160  -0.41032  -0.40969  -0.40522
 Alpha  occ. eigenvalues --   -0.40490  -0.40322  -0.39536  -0.39414  -0.39203
 Alpha  occ. eigenvalues --   -0.38688  -0.38505  -0.37839  -0.37822  -0.37702
 Alpha  occ. eigenvalues --   -0.37660  -0.37528  -0.37152  -0.36970  -0.36897
 Alpha  occ. eigenvalues --   -0.36598  -0.35977  -0.35515  -0.35068  -0.34703
 Alpha  occ. eigenvalues --   -0.34002  -0.33425  -0.33114  -0.31788  -0.31459
 Alpha  occ. eigenvalues --   -0.30886  -0.30461  -0.30451  -0.30108  -0.30045
 Alpha  occ. eigenvalues --   -0.29938  -0.29531  -0.28996  -0.24335  -0.24305
 Alpha  occ. eigenvalues --   -0.22050  -0.21675
 Alpha virt. eigenvalues --   -0.09604  -0.09148  -0.02493  -0.01890  -0.00091
 Alpha virt. eigenvalues --    0.00142   0.01335   0.01408   0.02007   0.02585
 Alpha virt. eigenvalues --    0.04286   0.04980   0.05140   0.05493   0.05503

 Mulliken charges:
               1
     1  Mg  11.999993
     2  C    6.000021
     3  C    6.000020
     4  C    5.999926
     5  C    5.999960
     6  N    6.999975
     7  C    5.999937
     8  C    6.000036
     9  C    5.999948
    10  C    6.000066
    11  C    5.999972
    12  C    6.000020
    13  C    6.000014
    14  H    0.999971
    15  N    6.999989
    16  C    6.000151
    17  C    6.000091
    18  C    5.999997
    19  C    6.000197
    20  C    5.999958
    21  C    6.000057
    22  O    8.000091
    23  C    5.999988
    24  N    7.000018
    25  C    6.000078
    26  C    5.999976
    27  C    6.000020
    28  C    5.999946
    29  C    6.000007
    30  C    6.000032
    31  C    6.000008
    32  N    6.999969
    33  C    5.999899
    34  C    5.999844
    35  C    6.000065
    36  C    5.999894
    37  C    6.000045
    38  C    5.999895
    39  O    7.999886
    40  C    6.000005
    41  C    5.999989
    42  O    7.999984
    43  O    7.999997
    44  C    6.000000
    45  H    1.000059
    46  H    1.000012
    47  H    0.999969
    48  H    1.000018
    49  H    1.000032
    50  H    1.000044
    51  H    1.000073
    52  H    1.000001
    53  H    1.000017
    54  H    0.999990
    55  H    0.999939
    56  H    1.000013
    57  H    1.000088
    58  H    1.000106
    59  H    1.000083
    60  H    1.000042
    61  H    1.000044
    62  H    1.000016
    63  H    0.999992
    64  H    0.999992
    65  H    0.999994
    66  H    1.000019
    67  H    0.999989
    68  H    0.999997
    69  H    0.999945
    70  H    0.999960
    71  H    1.000009
    72  H    0.999989
    73  H    0.999883
    74  H    0.999932
    75  H    0.999877
    76  H    0.999958
    77  H    1.000002
    78  H    0.999994
    79  H    0.999984
    80  Mg  12.000012
    81  C    6.001203
    82  C    5.967193
    83  C    5.986907
    84  C    6.036109
    85  N    6.988002
    86  C    5.967239
    87  C    6.011817
    88  C    5.987567
    89  C    6.040684
    90  C    5.996431
    91  C    6.001939
    92  C    6.002120
    93  H    0.987875
    94  N    6.989775
    95  C    6.050715
    96  C    6.016753
    97  C    6.014631
    98  C    6.041686
    99  C    5.998403
   100  C    6.009675
   101  O    8.025467
   102  C    5.998865
   103  N    7.015297
   104  C    6.029603
   105  C    5.988357
   106  C    6.007813
   107  C    5.956748
   108  C    6.002947
   109  C    6.001646
   110  C    5.999627
   111  N    7.001832
   112  C    5.955663
   113  C    5.978721
   114  C    5.990464
   115  C    5.977709
   116  C    6.003930
   117  C    5.982764
   118  O    7.964341
   119  C    6.005842
   120  C    5.995035
   121  O    7.996409
   122  O    7.996818
   123  C    6.004123
   124  H    1.003555
   125  H    1.011166
   126  H    0.996320
   127  H    0.998356
   128  H    1.001860
   129  H    1.004099
   130  H    1.012501
   131  H    0.992375
   132  H    0.987099
   133  H    1.006361
   134  H    1.001895
   135  H    0.998394
   136  H    1.015088
   137  H    1.017483
   138  H    1.020699
   139  H    1.009965
   140  H    1.008220
   141  H    1.014361
   142  H    1.001927
   143  H    1.000093
   144  H    1.014269
   145  H    1.001099
   146  H    0.997451
   147  H    1.007592
   148  H    0.989298
   149  H    0.995626
   150  H    0.995625
   151  H    1.002551
   152  H    0.984464
   153  H    0.979212
   154  H    0.981325
   155  H    0.988122
   156  H    0.997003
   157  H    0.992569
   158  H    0.995221
 Sum of Mulliken charges = 624.00000

 Dipole moment (field-independent basis, Debye):
    X=             -7.2949    Y=             -8.0618    Z=              2.3734  Tot=             11.1284
 Quadrupole moment (field-independent basis, Debye-Ang):
   XX=            413.0952   YY=              5.2363   ZZ=             -3.0974
   XY=            234.8149   XZ=            -66.6830   YZ=              1.6797

 Normal termination of Gaussian 16 at Wed Sep 22 18:07:56 2021.
