 Gaussian 16, Revision A.03,
 Gaussian 16:  ES64L-G16RevA.03 25-Dec-2016

 ---------------------------------------------------
 #p cam-b3lyp/Def2SVP td=(nstates=5) density=(CIS=1)
 ---------------------------------------------------

 --------------------------------
 TDDFT excited states in gaussian
 --------------------------------
 Symbolic Z-matrix:
 Charge =  0 Multiplicity = 1

                         Standard orientation:
 ---------------------------------------------------------------------
 Center     Atomic      Atomic             Coordinates (Angstroms)
 Number     Number       Type             X           Y           Z
 ---------------------------------------------------------------------
      1         12           0        0.776821    0.078024   -0.101362
      2          6           0       -2.784933    0.277494    0.192460
      3          6           0        0.503864   -3.239526    0.648586
      4          6           0        3.940377   -0.027125    0.092235
      5          6           0        0.855727    3.539396    0.296550
      6          7           0       -0.973444   -1.202864    0.341971
      7          6           0       -2.289567   -1.017075    0.363774
      8          6           0       -3.098021   -2.340783    0.510648
      9          6           0       -1.980153   -3.243069    1.202203
     10          6           0       -0.741046   -2.543340    0.672187
     11          6           0       -1.981161   -3.153857    2.724879
     12          6           0       -3.532959   -2.928542   -0.873946
     13          6           0       -4.594455   -4.030670   -0.811557
     14          1           0       -5.592615   -4.102185   -1.867924
     15          7           0        2.014285   -1.460341   -0.171825
     16          6           0        1.729530   -2.744289    0.153257
     17          6           0        2.977477   -3.506646   -0.066113
     18          6           0        4.061408   -2.529423   -0.363140
     19          6           0        3.378939   -1.282200   -0.130656
     20          6           0        3.044391   -5.002696   -0.032866
     21          6           0        5.489121   -2.693801   -0.778770
     22          8           0        6.319565   -1.721929   -0.758732
     23          6           0        5.917912   -4.059690   -1.130232
     24          7           0        2.218687    1.510122    0.375871
     25          6           0        3.523158    1.218433    0.328370
     26          6           0        4.363590    2.456704    0.429848
     27          6           0        3.353207    3.687587    0.312349
     28          6           0        2.024075    2.895951    0.241696
     29          6           0        5.193891    2.598711    1.712987
     30          6           0        3.646944    4.735690   -0.790202
     31          6           0        3.451842    4.113553   -2.154745
     32          7           0       -0.688282    1.675089    0.016531
     33          6           0       -0.433174    3.041005    0.205920
     34          6           0       -1.740560    3.711844    0.327512
     35          6           0       -2.671098    2.680549    0.216265
     36          6           0       -1.987709    1.440494    0.062862
     37          6           0       -1.946261    5.098116    0.573215
     38          6           0       -4.083264    2.334652    0.215992
     39          8           0       -5.133680    2.978172    0.216799
     40          6           0       -4.211250    0.750972    0.322778
     41          6           0       -5.198774    0.303435   -0.720206
     42          8           0       -4.937082    0.408565   -1.935867
     43          8           0       -6.184703   -0.389866   -0.130443
     44          6           0       -7.183355   -0.888313   -1.113500
     45          1           0        0.563127   -4.230501    1.102895
     46          1           0        5.031487   -0.003087    0.055641
     47          1           0        0.799948    4.628732    0.337643
     48          1           0       -3.972286   -2.269939    1.158000
     49          1           0       -2.013409   -4.273702    0.849483
     50          1           0       -2.667049   -2.384120    3.078410
     51          1           0       -0.956227   -2.907203    3.002664
     52          1           0       -2.186051   -4.127928    3.169832
     53          1           0       -2.704190   -3.493137   -1.301071
     54          1           0       -3.875518   -2.135313   -1.539353
     55          1           0       -5.071627   -4.069468    0.168091
     56          1           0       -4.092867   -4.993749   -0.906890
     57          1           0        2.130640   -5.435550    0.372400
     58          1           0        3.815469   -5.270961    0.689064
     59          1           0        3.290696   -5.424230   -1.007532
     60          1           0        5.759771   -4.717670   -0.275478
     61          1           0        6.943098   -3.970373   -1.487816
     62          1           0        5.278360   -4.435943   -1.929204
     63          1           0        5.084869    2.507623   -0.384762
     64          1           0        3.312731    4.272696    1.231415
     65          1           0        6.262791    2.714873    1.532251
     66          1           0        4.995494    1.730364    2.340604
     67          1           0        4.887432    3.413977    2.367846
     68          1           0        4.683750    5.065453   -0.733313
     69          1           0        3.013426    5.620211   -0.722909
     70          1           0        4.404274    3.615926   -2.333831
     71          1           0        3.268321    4.886031   -2.902280
     72          1           0        2.680533    3.343384   -2.134522
     73          1           0       -2.748849    5.410494   -0.094797
     74          1           0       -1.036669    5.671145    0.394656
     75          1           0       -2.226611    5.077134    1.626220
     76          1           0       -4.555251    0.531700    1.333078
     77          1           0       -8.158556   -0.519395   -0.795512
     78          1           0       -7.046079   -1.968065   -1.174303
     79          1           0       -7.122006   -0.468313   -2.118077
 ---------------------------------------------------------------------

 SCF Done:  E(RCAM-B3LYP) =  -2034.90851355     A.U. after   19 cycles

 Excitation energies and oscillator strengths:

 Excited State   1:      Singlet-A      1.6799 eV  738.05 nm  f=0.0000  <S**2>=0.000
     155 ->158         0.17555
     156 ->157         0.68571
     155 <-158         0.10512
 This state for optimization and/or second-order correction.
 Total Energy, E(TD-HF/TD-DFT) =  -2034.84677861
 Copying the excited state density for this state as the 1-particle RhoCI density.

 Excited State   2:      Singlet-A      2.1926 eV  565.48 nm  f=0.0000  <S**2>=0.000
     155 ->157         0.64073
     156 ->158        -0.27825

 Excited State   3:      Singlet-A      3.2824 eV  377.72 nm  f=0.0000  <S**2>=0.000
     153 ->157        -0.36138
     154 ->157         0.56688
     156 ->158        -0.13831

 Excited State   4:      Singlet-A      3.3269 eV  372.67 nm  f=0.0000  <S**2>=0.000
     152 ->157        -0.19634
     152 ->160        -0.12356
     153 ->157         0.46334
     154 ->157         0.34798
     156 ->158         0.27996

 Excited State   5:      Singlet-A      3.4176 eV  362.78 nm  f=0.0000  <S**2>=0.000
     152 ->157         0.56123
     152 ->159        -0.18121
     152 ->160         0.25417
     153 ->157         0.11794
     154 ->157         0.16076
     156 ->158         0.15952

 The electronic state is 1-A.
 Alpha  occ. eigenvalues --  -46.87778 -19.26265 -19.19001 -19.18796 -19.18152
 Alpha  occ. eigenvalues --  -14.42432 -14.41431 -14.39384 -14.38568 -10.39061
 Alpha  occ. eigenvalues --  -10.35430 -10.34371 -10.31660 -10.31387 -10.30890
 Alpha  occ. eigenvalues --  -10.30552 -10.30489 -10.30189 -10.29903 -10.29612
 Alpha  occ. eigenvalues --  -10.29236 -10.28730 -10.28518 -10.28346 -10.28098
 Alpha  occ. eigenvalues --  -10.27775 -10.27709 -10.27566 -10.27483 -10.27462
 Alpha  occ. eigenvalues --  -10.27432 -10.27385 -10.27140 -10.26685 -10.26391
 Alpha  occ. eigenvalues --  -10.26217 -10.26166 -10.26001 -10.25826 -10.25419
 Alpha  occ. eigenvalues --  -10.24815 -10.24769 -10.24669  -3.16521  -1.91403
 Alpha  occ. eigenvalues --   -1.90989  -1.90831  -1.16614  -1.08609  -1.07197
 Alpha  occ. eigenvalues --   -1.06623  -1.04563  -1.03742  -1.03215  -1.02393
 Alpha  occ. eigenvalues --   -0.91954  -0.89502  -0.89169  -0.88269  -0.87852
 Alpha  occ. eigenvalues --   -0.87654  -0.87255  -0.84963  -0.83919  -0.82949
 Alpha  occ. eigenvalues --   -0.82630  -0.81567  -0.80578  -0.78779  -0.77200
 Alpha  occ. eigenvalues --   -0.76916  -0.75905  -0.74880  -0.72756  -0.71654
 Alpha  occ. eigenvalues --   -0.69889  -0.68854  -0.67623  -0.67201  -0.65268
 Alpha  occ. eigenvalues --   -0.64835  -0.64602  -0.64251  -0.62279  -0.60424
 Alpha  occ. eigenvalues --   -0.59786  -0.58969  -0.58485  -0.57566  -0.57291
 Alpha  occ. eigenvalues --   -0.56292  -0.55960  -0.55502  -0.55321  -0.54505
 Alpha  occ. eigenvalues --   -0.53876  -0.53280  -0.53203  -0.52896  -0.52737
 Alpha  occ. eigenvalues --   -0.52420  -0.51897  -0.51598  -0.51178  -0.50553
 Alpha  occ. eigenvalues --   -0.50013  -0.49900  -0.49496  -0.49196  -0.49078
 Alpha  occ. eigenvalues --   -0.48575  -0.48443  -0.48427  -0.47676  -0.47279
 Alpha  occ. eigenvalues --   -0.46779  -0.46536  -0.46341  -0.46144  -0.45804
 Alpha  occ. eigenvalues --   -0.45184  -0.44560  -0.44488  -0.44126  -0.44070
 Alpha  occ. eigenvalues --   -0.44001  -0.43476  -0.43367  -0.43009  -0.42680
 Alpha  occ. eigenvalues --   -0.42637  -0.41991  -0.41686  -0.41515  -0.41123
 Alpha  occ. eigenvalues --   -0.40851  -0.40804  -0.40553  -0.40215  -0.39423
 Alpha  occ. eigenvalues --   -0.38451  -0.37729  -0.37302  -0.37245  -0.36695
 Alpha  occ. eigenvalues --   -0.36174  -0.34268  -0.33752  -0.33168  -0.31326
 Alpha  occ. eigenvalues --   -0.31017  -0.30011  -0.29431  -0.29304  -0.24062
 Alpha  occ. eigenvalues --   -0.21109
 Alpha virt. eigenvalues --   -0.08756  -0.01731  -0.00039   0.02218   0.03143
 Alpha virt. eigenvalues --    0.04737   0.05117   0.06197   0.06895   0.07883
 Alpha virt. eigenvalues --    0.08840   0.09089   0.09270   0.09967   0.10521

 Mulliken charges:
               1
     1  Mg   0.827889
     2  C   -0.052407
     3  C   -0.132434
     4  C   -0.086962
     5  C   -0.090192
     6  N   -0.320651
     7  C   -0.002880
     8  C   -0.013191
     9  C   -0.086457
    10  C    0.106336
    11  C    0.108972
    12  C    0.056956
    13  C   -0.071717
    14  H    0.036111
    15  N   -0.438597
    16  C    0.198127
    17  C   -0.198758
    18  C   -0.022011
    19  C    0.196265
    20  C    0.110369
    21  C    0.000821
    22  O   -0.259540
    23  C    0.062287
    24  N   -0.403037
    25  C    0.084484
    26  C   -0.027317
    27  C   -0.022196
    28  C    0.129911
    29  C    0.078204
    30  C    0.037343
    31  C   -0.003890
    32  N   -0.313623
    33  C    0.121992
    34  C   -0.174989
    35  C    0.003670
    36  C    0.123370
    37  C    0.127939
    38  C    0.036914
    39  O   -0.196163
    40  C   -0.004118
    41  C    0.211601
    42  O   -0.257745
    43  O   -0.304805
    44  C    0.157681
    45  H   -0.017923
    46  H   -0.017059
    47  H   -0.041151
    48  H    0.001810
    49  H   -0.003318
    50  H    0.024476
    51  H    0.016461
    52  H    0.016811
    53  H    0.010621
    54  H    0.044238
    55  H    0.017997
    56  H    0.018009
    57  H    0.005718
    58  H    0.026385
    59  H    0.038838
    60  H    0.037000
    61  H    0.035582
    62  H    0.031180
    63  H    0.018674
    64  H    0.013076
    65  H    0.023490
    66  H    0.012741
    67  H    0.004948
    68  H    0.006410
    69  H    0.004892
    70  H    0.008794
    71  H    0.018165
    72  H    0.028953
    73  H    0.047466
    74  H    0.009065
    75  H    0.046078
    76  H    0.034995
    77  H    0.042930
    78  H    0.046390
    79  H    0.053696
 Sum of Mulliken charges =  -0.00000

 Dipole moment (field-independent basis, Debye):
    X=              0.9834    Y=             -3.1217    Z=              2.0200  Tot=              3.8462
 Quadrupole moment (field-independent basis, Debye-Ang):
   XX=           -280.9834   YY=           -222.6432   ZZ=           -258.8227
   XY=             30.2926   XZ=             -1.1808   YZ=              0.4273

 Normal termination of Gaussian 16 at Fri Oct  8 18:45:11 2021.
