 Gaussian 16, Revision A.03,
 Gaussian 16:  ES64L-G16RevA.03 25-Dec-2016

 -----------------------------------
 #p cam-b3lyp/Def2SVP td=(nstates=5)
 -----------------------------------

 --------------------------------
 TDDFT excited states in gaussian
 --------------------------------
 Symbolic Z-matrix:
 Charge =  0 Multiplicity = 1

                         Standard orientation:
 ---------------------------------------------------------------------
 Center     Atomic      Atomic             Coordinates (Angstroms)
 Number     Number       Type             X           Y           Z
 ---------------------------------------------------------------------
      1         12           0      -27.706038   -0.698480    0.240805
      2          6           0      -28.521685    2.610445    0.116772
      3          6           0      -24.702240    0.064459   -1.464785
      4          6           0      -26.974287   -3.964426    0.134158
      5          6           0      -30.621530   -1.309322    1.951231
      6          7           0      -26.866686    1.045276   -0.852072
      7          6           0      -27.352708    2.342567   -0.645000
      8          6           0      -26.466198    3.413655   -1.341295
      9          6           0      -25.332198    2.489501   -1.859156
     10          6           0      -25.668598    1.074222   -1.425396
     11          6           0      -24.876649    2.504494   -3.380428
     12          6           0      -25.922857    4.598731   -0.427553
     13          6           0      -25.023210    5.580799   -1.224837
     14          1           0      -25.687750    6.933537   -1.484319
     15          7           0      -25.997010   -1.808440   -0.535336
     16          6           0      -24.807728   -1.261916   -0.967364
     17          6           0      -23.969642   -2.392334   -1.349683
     18          6           0      -24.649326   -3.563638   -0.884042
     19          6           0      -25.922219   -3.161227   -0.374073
     20          6           0      -22.655533   -2.180897   -1.997007
     21          6           0      -24.095372   -5.015881   -1.095490
     22          8           0      -24.765374   -6.048153   -0.889476
     23          6           0      -22.708096   -5.218612   -1.646720
     24          7           0      -28.620053   -2.305458    0.877824
     25          6           0      -28.134171   -3.633948    0.720295
     26          6           0      -29.206365   -4.645548    1.056385
     27          6           0      -30.059865   -3.814519    2.012480
     28          6           0      -29.737364   -2.370853    1.653960
     29          6           0      -30.000410   -5.135950   -0.200695
     30          6           0      -29.682308   -4.032443    3.494791
     31          6           0      -30.310021   -5.184327    4.232777
     32          7           0      -29.347759    0.350500    0.915278
     33          6           0      -30.375916    0.029108    1.716963
     34          6           0      -31.193309    1.187039    1.928874
     35          6           0      -30.514301    2.236327    1.346836
     36          6           0      -29.359444    1.684807    0.770572
     37          6           0      -32.445383    1.147910    2.733682
     38          6           0      -30.564417    3.620030    1.136122
     39          8           0      -31.360908    4.465135    1.496371
     40          6           0      -29.234264    3.939401    0.305318
     41          6           0      -29.636863    4.605940   -0.962304
     42          8           0      -30.243668    4.115938   -1.883427
     43          8           0      -29.110513    5.830925   -1.053104
     44          6           0      -29.404070    6.595564   -2.326057
     45          1           0      -23.735424    0.397182   -1.847836
     46          1           0      -26.746132   -5.031956    0.112859
     47          1           0      -31.496626   -1.401852    2.597289
     48          1           0      -27.022354    3.826880   -2.182804
     49          1           0      -24.412708    2.704225   -1.313787
     50          1           0      -23.810527    2.372348   -3.566792
     51          1           0      -25.340920    3.345203   -3.896256
     52          1           0      -25.302799    1.589150   -3.790870
     53          1           0      -25.429576    4.076973    0.391615
     54          1           0      -26.780259    5.130422   -0.015120
     55          1           0      -24.644995    5.092608   -2.123018
     56          1           0      -24.164546    5.795912   -0.589495
     57          1           0      -22.728661   -2.535718   -3.025220
     58          1           0      -21.922791   -2.646121   -1.337628
     59          1           0      -22.388021   -1.124140   -1.993684
     60          1           0      -22.469905   -6.282045   -1.668722
     61          1           0      -22.058965   -4.801593   -0.875545
     62          1           0      -22.484693   -4.758091   -2.608711
     63          1           0      -28.779846   -5.527937    1.534233
     64          1           0      -31.130364   -3.979897    1.892635
     65          1           0      -30.687918   -4.368693   -0.554584
     66          1           0      -30.539221   -6.055971    0.027449
     67          1           0      -29.241870   -5.356188   -0.951027
     68          1           0      -29.827760   -3.141826    4.104820
     69          1           0      -28.600589   -4.135471    3.581771
     70          1           0      -29.491563   -5.820515    4.568451
     71          1           0      -30.795713   -5.748509    3.436446
     72          1           0      -31.015325   -4.894096    5.011672
     73          1           0      -32.249983    1.474784    3.754251
     74          1           0      -33.055920    0.245040    2.700263
     75          1           0      -33.081956    1.919589    2.300452
     76          1           0      -28.614895    4.612223    0.898885
     77          1           0      -29.152192    5.936510   -3.157195
     78          1           0      -28.790380    7.489259   -2.442157
     79          1           0      -30.465617    6.843966   -2.326039
     80         12           0       28.430936    0.451366    0.140716
     81          6           0       25.156140    0.405509   -0.956118
     82          6           0       27.261893    1.159895    3.300090
     83          6           0       31.599953   -0.089022    1.350887
     84          6           0       29.512373   -0.369372   -3.022838
     85          7           0       26.453426    0.548485    1.097610
     86          6           0       25.259107    0.566004    0.404515
     87          6           0       24.068401    0.805863    1.328905
     88          6           0       24.788046    1.379674    2.606002
     89          6           0       26.228601    0.967482    2.340508
     90          6           0       24.561997    2.922695    2.943965
     91          6           0       23.129014   -0.415958    1.583170
     92          6           0       21.643952   -0.130681    1.507197
     93          1           0       20.972620   -0.219727    2.868882
     94          7           0       29.258351    0.517758    2.045704
     95          6           0       28.639068    0.847173    3.184854
     96          6           0       29.581482    0.894293    4.289325
     97          6           0       30.850127    0.550764    3.852873
     98          6           0       30.625302    0.252975    2.373308
     99          6           0       29.130257    1.203929    5.795509
    100          6           0       32.172564    0.557524    4.691685
    101          8           0       32.105179    0.820017    5.925851
    102          6           0       33.483194    0.217038    4.092568
    103          7           0       30.322884   -0.404224   -0.688194
    104          6           0       31.473481   -0.352659   -0.057444
    105          6           0       32.660331   -0.500620   -0.986384
    106          6           0       32.077611   -0.692066   -2.427691
    107          6           0       30.537231   -0.404343   -2.087823
    108          6           0       33.901618    0.433654   -0.823461
    109          6           0       32.261183   -2.040604   -3.182419
    110          6           0       32.021348   -1.921580   -4.673292
    111          7           0       27.509745    0.070531   -1.669394
    112          6           0       28.092337   -0.177054   -2.933889
    113          6           0       27.036725   -0.192818   -3.909538
    114          6           0       25.837890    0.066038   -3.201368
    115          6           0       26.215845    0.167202   -1.865369
    116          6           0       27.200823   -0.208295   -5.422040
    117          6           0       24.484345    0.246370   -3.387135
    118          8           0       23.723568    0.136453   -4.309742
    119          6           0       23.916626    0.337865   -1.876470
    120          6           0       23.339629   -1.052963   -1.617198
    121          8           0       23.979047   -2.040765   -1.310648
    122          8           0       21.972004   -0.961060   -1.819492
    123          6           0       21.228822   -2.213756   -1.729640
    124          1           0       26.979062    1.576402    4.268935
    125          1           0       32.584755   -0.230612    1.800277
    126          1           0       29.718905   -0.484805   -4.088881
    127          1           0       23.489004    1.626299    0.906476
    128          1           0       24.526240    0.717843    3.432357
    129          1           0       25.449025    3.147800    3.535986
    130          1           0       23.747231    3.113682    3.642819
    131          1           0       24.442824    3.599617    2.098100
    132          1           0       23.399230   -0.728588    2.592011
    133          1           0       23.368912   -1.341250    1.059759
    134          1           0       21.211527   -0.852581    0.814024
    135          1           0       21.429543    0.870137    1.131854
    136          1           0       28.058283    1.344941    5.939966
    137          1           0       29.639368    2.091644    6.172317
    138          1           0       29.297800    0.367387    6.472493
    139          1           0       33.706409    0.914523    3.285850
    140          1           0       33.553231   -0.844716    3.855826
    141          1           0       34.204040    0.540186    4.842579
    142          1           0       33.181370   -1.456829   -0.934333
    143          1           0       32.254104    0.172865   -3.067538
    144          1           0       33.775203    0.931149    0.139098
    145          1           0       34.068605    1.097624   -1.672393
    146          1           0       34.851659   -0.094616   -0.741836
    147          1           0       31.604418   -2.754202   -2.685071
    148          1           0       33.275410   -2.350677   -2.931040
    149          1           0       32.664266   -2.650624   -5.167130
    150          1           0       32.248210   -0.946670   -5.106410
    151          1           0       31.009385   -2.259155   -4.897207
    152          1           0       26.278245   -0.011652   -5.968266
    153          1           0       27.622973   -1.174027   -5.696947
    154          1           0       27.922598    0.540215   -5.749150
    155          1           0       23.247233    1.189919   -1.754137
    156          1           0       21.532853   -2.875154   -2.541115
    157          1           0       20.152210   -2.047017   -1.723605
    158          1           0       21.505682   -2.733966   -0.813105
 ---------------------------------------------------------------------

 SCF Done:  E(RCAM-B3LYP) =  -4069.83311372     A.U. after   19 cycles

 Excitation energies and oscillator strengths:

 Excited State   1:      Singlet-A      1.6534 eV  749.87 nm  f=0.3914  <S**2>=0.000
     309 -> 316       -0.16013
     312 -> 313        0.69080
     309 <- 316       -0.10388
 This state for optimization and/or second-order correction.
 Total Energy, E(TD-HF/TD-DFT) =  -4069.77235184
 Copying the excited state density for this state as the 1-particle RhoCI density.

 Excited State   2:      Singlet-A      1.8652 eV  664.72 nm  f=0.3717  <S**2>=0.000
     310 -> 315        0.14282
     311 -> 314        0.68808

 Excited State   3:      Singlet-A      2.2510 eV  550.79 nm  f=0.1082  <S**2>=0.000
     309 -> 313        0.63838
     312 -> 316        0.28835

 Excited State   4:      Singlet-A      2.2638 eV  547.68 nm  f=0.1277  <S**2>=0.000
     310 -> 314        0.64676
     311 -> 315       -0.24682
     311 -> 317        0.10323

 Excited State   5:      Singlet-A      3.2140 eV  385.77 nm  f=0.0000  <S**2>=0.000
     311 -> 313        0.70710

 The electronic state is 1-A.
 Alpha  occ. eigenvalues --  -46.89418 -46.87508 -19.24921 -19.24541 -19.20241
 Alpha  occ. eigenvalues --  -19.19894 -19.19381 -19.18744 -19.18557 -19.17738
 Alpha  occ. eigenvalues --  -14.42725 -14.42329 -14.42067 -14.41746 -14.40569
 Alpha  occ. eigenvalues --  -14.38871 -14.38856 -14.38507 -10.39110 -10.38533
 Alpha  occ. eigenvalues --  -10.37047 -10.35218 -10.34946 -10.33419 -10.33093
 Alpha  occ. eigenvalues --  -10.32435 -10.32296 -10.32059 -10.31739 -10.31362
 Alpha  occ. eigenvalues --  -10.31167 -10.31099 -10.30570 -10.30372 -10.30016
 Alpha  occ. eigenvalues --  -10.29822 -10.29813 -10.29567 -10.29476 -10.29272
 Alpha  occ. eigenvalues --  -10.29182 -10.28998 -10.28986 -10.28606 -10.28485
 Alpha  occ. eigenvalues --  -10.28433 -10.28408 -10.28362 -10.28320 -10.28102
 Alpha  occ. eigenvalues --  -10.28081 -10.28076 -10.28063 -10.27793 -10.27762
 Alpha  occ. eigenvalues --  -10.27536 -10.27461 -10.27438 -10.27374 -10.27373
 Alpha  occ. eigenvalues --  -10.27251 -10.27210 -10.27174 -10.27123 -10.26972
 Alpha  occ. eigenvalues --  -10.26956 -10.26935 -10.26874 -10.26799 -10.26774
 Alpha  occ. eigenvalues --  -10.26769 -10.26676 -10.26536 -10.26463 -10.26357
 Alpha  occ. eigenvalues --  -10.26171 -10.25964 -10.25837 -10.25818 -10.25743
 Alpha  occ. eigenvalues --  -10.25582 -10.25532 -10.25313 -10.25106 -10.25022
 Alpha  occ. eigenvalues --  -10.23120  -3.17857  -3.16288  -1.92741  -1.92319
 Alpha  occ. eigenvalues --   -1.92161  -1.91190  -1.90759  -1.90587  -1.16917
 Alpha  occ. eigenvalues --   -1.15483  -1.10444  -1.09820  -1.09162  -1.08284
 Alpha  occ. eigenvalues --   -1.07927  -1.07147  -1.05446  -1.04604  -1.03928
 Alpha  occ. eigenvalues --   -1.03859  -1.03211  -1.03106  -1.02567  -1.01966
 Alpha  occ. eigenvalues --   -0.93340  -0.91581  -0.89198  -0.89089  -0.88785
 Alpha  occ. eigenvalues --   -0.88668  -0.88517  -0.87987  -0.87912  -0.87178
 Alpha  occ. eigenvalues --   -0.87076  -0.86650  -0.86574  -0.85843  -0.84523
 Alpha  occ. eigenvalues --   -0.84333  -0.83975  -0.83652  -0.83226  -0.82535
 Alpha  occ. eigenvalues --   -0.82079  -0.81587  -0.81219  -0.80727  -0.80641
 Alpha  occ. eigenvalues --   -0.80240  -0.78392  -0.77662  -0.77562  -0.77223
 Alpha  occ. eigenvalues --   -0.77179  -0.76761  -0.76217  -0.75350  -0.75208
 Alpha  occ. eigenvalues --   -0.75161  -0.73226  -0.72412  -0.71816  -0.71714
 Alpha  occ. eigenvalues --   -0.69742  -0.69452  -0.69134  -0.68963  -0.68323
 Alpha  occ. eigenvalues --   -0.67925  -0.67374  -0.66088  -0.65806  -0.65634
 Alpha  occ. eigenvalues --   -0.65497  -0.64960  -0.64697  -0.64629  -0.64192
 Alpha  occ. eigenvalues --   -0.64062  -0.62089  -0.61724  -0.60258  -0.59998
 Alpha  occ. eigenvalues --   -0.59989  -0.59492  -0.59123  -0.59047  -0.58887
 Alpha  occ. eigenvalues --   -0.58481  -0.58332  -0.58025  -0.57862  -0.57409
 Alpha  occ. eigenvalues --   -0.56557  -0.56456  -0.56089  -0.55509  -0.55061
 Alpha  occ. eigenvalues --   -0.55030  -0.54762  -0.54253  -0.54203  -0.53942
 Alpha  occ. eigenvalues --   -0.53750  -0.53471  -0.53357  -0.53356  -0.53179
 Alpha  occ. eigenvalues --   -0.52942  -0.52734  -0.52721  -0.52293  -0.52028
 Alpha  occ. eigenvalues --   -0.51770  -0.51675  -0.51606  -0.51333  -0.51048
 Alpha  occ. eigenvalues --   -0.50823  -0.50549  -0.50378  -0.50257  -0.50174
 Alpha  occ. eigenvalues --   -0.50028  -0.49990  -0.49908  -0.49831  -0.49739
 Alpha  occ. eigenvalues --   -0.49471  -0.49280  -0.49047  -0.48950  -0.48767
 Alpha  occ. eigenvalues --   -0.48726  -0.48561  -0.48267  -0.48236  -0.48089
 Alpha  occ. eigenvalues --   -0.47747  -0.47601  -0.47506  -0.47384  -0.47196
 Alpha  occ. eigenvalues --   -0.47127  -0.46933  -0.46567  -0.46526  -0.46462
 Alpha  occ. eigenvalues --   -0.46208  -0.46152  -0.46039  -0.45979  -0.45860
 Alpha  occ. eigenvalues --   -0.45504  -0.45280  -0.45238  -0.45210  -0.45065
 Alpha  occ. eigenvalues --   -0.44899  -0.44701  -0.44686  -0.44296  -0.44232
 Alpha  occ. eigenvalues --   -0.43964  -0.43758  -0.43720  -0.43608  -0.43562
 Alpha  occ. eigenvalues --   -0.43427  -0.43342  -0.43103  -0.42853  -0.42725
 Alpha  occ. eigenvalues --   -0.42573  -0.42494  -0.42197  -0.42057  -0.42011
 Alpha  occ. eigenvalues --   -0.41814  -0.41632  -0.41623  -0.41558  -0.41130
 Alpha  occ. eigenvalues --   -0.40884  -0.40791  -0.40645  -0.40427  -0.40418
 Alpha  occ. eigenvalues --   -0.40173  -0.40050  -0.39884  -0.39828  -0.39288
 Alpha  occ. eigenvalues --   -0.38995  -0.38445  -0.38078  -0.38067  -0.37483
 Alpha  occ. eigenvalues --   -0.37357  -0.36939  -0.36670  -0.36573  -0.36505
 Alpha  occ. eigenvalues --   -0.36346  -0.35355  -0.34439  -0.34309  -0.34223
 Alpha  occ. eigenvalues --   -0.34014  -0.33283  -0.33097  -0.32459  -0.31898
 Alpha  occ. eigenvalues --   -0.31466  -0.31251  -0.30875  -0.30656  -0.30482
 Alpha  occ. eigenvalues --   -0.29679  -0.29119  -0.29102  -0.24613  -0.24085
 Alpha  occ. eigenvalues --   -0.21503  -0.21121
 Alpha virt. eigenvalues --   -0.09075  -0.08468  -0.01808  -0.01551   0.00098
 Alpha virt. eigenvalues --    0.00402   0.01788   0.01975   0.02353   0.03410
 Alpha virt. eigenvalues --    0.04653   0.05156   0.05359   0.05815   0.06215

 Mulliken charges:
               1
     1  Mg   0.828520
     2  C    0.007483
     3  C   -0.059508
     4  C   -0.069221
     5  C   -0.093609
     6  N   -0.267906
     7  C   -0.051248
     8  C    0.020227
     9  C   -0.103962
    10  C    0.038328
    11  C    0.063720
    12  C    0.034973
    13  C   -0.056566
    14  H    0.031806
    15  N   -0.358570
    16  C    0.139192
    17  C   -0.203011
    18  C   -0.035938
    19  C    0.110410
    20  C    0.139561
    21  C    0.019209
    22  O   -0.225612
    23  C    0.056039
    24  N   -0.391525
    25  C    0.083609
    26  C   -0.019338
    27  C   -0.020651
    28  C    0.118484
    29  C    0.088228
    30  C   -0.004935
    31  C    0.053337
    32  N   -0.339575
    33  C    0.089637
    34  C   -0.168133
    35  C    0.069281
    36  C    0.103914
    37  C    0.107995
    38  C    0.017647
    39  O   -0.153793
    40  C   -0.052419
    41  C    0.180652
    42  O   -0.217047
    43  O   -0.331561
    44  C    0.179196
    45  H   -0.027494
    46  H   -0.006592
    47  H   -0.026957
    48  H    0.017585
    49  H    0.009463
    50  H    0.020301
    51  H    0.021750
    52  H    0.015395
    53  H    0.010965
    54  H    0.033005
    55  H    0.030021
    56  H    0.029328
    57  H    0.042932
    58  H    0.027711
    59  H    0.001104
    60  H    0.024420
    61  H    0.024857
    62  H    0.039991
    63  H    0.000236
    64  H   -0.003826
    65  H    0.020449
    66  H    0.019233
    67  H    0.019163
    68  H   -0.002528
    69  H   -0.003873
    70  H    0.012707
    71  H   -0.002484
    72  H    0.028747
    73  H    0.038331
    74  H    0.023661
    75  H    0.027412
    76  H    0.043186
    77  H    0.041487
    78  H    0.041639
    79  H    0.051358
    80  Mg   0.828928
    81  C   -0.030262
    82  C   -0.118207
    83  C   -0.095996
    84  C   -0.030462
    85  N   -0.261073
    86  C   -0.046107
    87  C   -0.037676
    88  C   -0.022693
    89  C    0.032243
    90  C    0.082827
    91  C    0.069532
    92  C   -0.053088
    93  H    0.008447
    94  N   -0.381648
    95  C    0.167547
    96  C   -0.137045
    97  C   -0.024658
    98  C    0.115527
    99  C    0.116992
   100  C    0.007372
   101  O   -0.226552
   102  C    0.070458
   103  N   -0.264379
   104  C    0.101601
   105  C   -0.027380
   106  C   -0.054115
   107  C    0.007678
   108  C    0.065019
   109  C    0.060294
   110  C    0.025637
   111  N   -0.347619
   112  C    0.034472
   113  C   -0.140323
   114  C    0.052365
   115  C    0.114892
   116  C    0.104368
   117  C   -0.012346
   118  O   -0.157335
   119  C   -0.046250
   120  C    0.232167
   121  O   -0.211941
   122  O   -0.335439
   123  C    0.185509
   124  H   -0.026002
   125  H   -0.042709
   126  H   -0.041106
   127  H   -0.000731
   128  H    0.006108
   129  H    0.004937
   130  H    0.021609
   131  H    0.031772
   132  H   -0.004015
   133  H    0.028911
   134  H    0.025646
   135  H    0.027209
   136  H   -0.002850
   137  H    0.041090
   138  H    0.035888
   139  H    0.040807
   140  H    0.068744
   141  H    0.028215
   142  H    0.010245
   143  H    0.006691
   144  H    0.011345
   145  H    0.019375
   146  H    0.006947
   147  H    0.016835
   148  H    0.001362
   149  H    0.007794
   150  H    0.022109
   151  H    0.031322
   152  H    0.034187
   153  H    0.016142
   154  H    0.019412
   155  H    0.024827
   156  H    0.038236
   157  H    0.041645
   158  H    0.026721
 Sum of Mulliken charges =  -0.00000

 Dipole moment (field-independent basis, Debye):
    X=              7.6240    Y=              2.0699    Z=              1.3289  Tot=              8.0110
 Quadrupole moment (field-independent basis, Debye-Ang):
   XX=           -475.7443   YY=           -521.5009   ZZ=           -527.2992
   XY=             33.6599   XZ=            -15.9630   YZ=            -14.9427

 Normal termination of Gaussian 16 at Thu Sep  2 09:41:34 2021.
