 Gaussian 16, Revision A.03,
 Gaussian 16:  ES64L-G16RevA.03 25-Dec-2016

 -----------------------------------
 #p cam-b3lyp/Def2SVP td=(nstates=5)
 -----------------------------------

 --------------------------------
 TDDFT excited states in gaussian
 --------------------------------
 Symbolic Z-matrix:
 Charge =  0 Multiplicity = 1

                         Standard orientation:
 ---------------------------------------------------------------------
 Center     Atomic      Atomic             Coordinates (Angstroms)
 Number     Number       Type             X           Y           Z
 ---------------------------------------------------------------------
      1         12           0      -27.133054    0.582882    0.351963
      2          6           0      -25.348090   -2.243445    1.189706
      3          6           0      -29.147571   -1.419605   -1.555604
      4          6           0      -28.708150    3.377063   -0.704463
      5          6           0      -24.693377    2.567196    1.835069
      6          7           0      -27.082534   -1.621537   -0.194760
      7          6           0      -26.437437   -2.555961    0.390219
      8          6           0      -26.825877   -4.068725   -0.020926
      9          6           0      -27.871939   -3.725141   -1.153761
     10          6           0      -28.020140   -2.133365   -1.051019
     11          6           0      -27.395341   -4.080622   -2.658279
     12          6           0      -27.416713   -4.965397    1.151763
     13          6           0      -27.132603   -6.508702    1.105848
     14          1           0      -26.550683   -7.047140   -0.166189
     15          7           0      -28.711688    0.928732   -0.851780
     16          6           0      -29.522754   -0.064102   -1.529737
     17          6           0      -30.606021    0.643923   -2.203917
     18          6           0      -30.428297    2.042599   -2.060498
     19          6           0      -29.273863    2.170859   -1.142645
     20          6           0      -31.648592   -0.186603   -2.861580
     21          6           0      -31.267318    3.234296   -2.578347
     22          8           0      -30.972697    4.388617   -2.483695
     23          6           0      -32.490802    2.844311   -3.432203
     24          7           0      -26.745393    2.715247    0.416223
     25          6           0      -27.497782    3.652010   -0.068192
     26          6           0      -26.807479    5.043290    0.009626
     27          6           0      -25.580883    4.797124    0.920500
     28          6           0      -25.656515    3.263289    1.105946
     29          6           0      -26.449199    5.564392   -1.398416
     30          6           0      -25.636626    5.631645    2.236797
     31          6           0      -25.400675    7.140318    2.059564
     32          7           0      -25.347616    0.270365    1.337472
     33          6           0      -24.524282    1.184390    1.970656
     34          6           0      -23.496916    0.422184    2.630189
     35          6           0      -23.709786   -0.960180    2.346867
     36          6           0      -24.900781   -0.940769    1.571013
     37          6           0      -22.423427    0.975385    3.371161
     38          6           0      -23.312671   -2.313784    2.570203
     39          8           0      -22.283053   -2.743676    3.170752
     40          6           0      -24.314306   -3.182532    1.714730
     41          6           0      -23.529522   -3.914127    0.743304
     42          8           0      -23.132281   -3.447084   -0.323852
     43          8           0      -23.205452   -5.119754    1.311604
     44          6           0      -22.190659   -5.869520    0.541430
     45          1           0      -29.791145   -2.029110   -2.192671
     46          1           0      -29.282486    4.233781   -1.064997
     47          1           0      -23.993678    3.232561    2.346038
     48          1           0      -25.906933   -4.453108   -0.464255
     49          1           0      -28.799975   -4.270728   -0.984082
     50          1           0      -26.308772   -4.171441   -2.653262
     51          1           0      -27.696617   -3.282515   -3.336600
     52          1           0      -27.802637   -4.994697   -3.091573
     53          1           0      -28.493372   -4.824287    1.060737
     54          1           0      -27.314204   -4.569358    2.162669
     55          1           0      -28.007483   -7.123140    1.317989
     56          1           0      -26.365153   -6.748789    1.841759
     57          1           0      -31.336350   -0.470130   -3.867084
     58          1           0      -32.647631    0.242429   -2.783145
     59          1           0      -31.738465   -1.099659   -2.273542
     60          1           0      -33.330528    2.440395   -2.865824
     61          1           0      -32.051416    2.114837   -4.111826
     62          1           0      -32.889936    3.627493   -4.076044
     63          1           0      -27.558587    5.647332    0.518055
     64          1           0      -24.666536    5.004896    0.364761
     65          1           0      -26.324166    4.802164   -2.167802
     66          1           0      -25.503691    6.093023   -1.523990
     67          1           0      -27.269268    6.226888   -1.675191
     68          1           0      -24.846737    5.286991    2.902734
     69          1           0      -26.592573    5.468866    2.735711
     70          1           0      -25.333969    7.338807    0.989856
     71          1           0      -24.382303    7.374644    2.369944
     72          1           0      -26.051948    7.841709    2.580539
     73          1           0      -22.886707    1.749180    3.983421
     74          1           0      -21.639233    1.465112    2.794064
     75          1           0      -21.913516    0.167015    3.896225
     76          1           0      -24.714095   -3.882738    2.448673
     77          1           0      -21.271513   -5.286718    0.607813
     78          1           0      -22.538470   -6.112834   -0.461978
     79          1           0      -22.028614   -6.815598    1.058171
     80         12           0       27.092599    0.631697   -0.017509
     81          6           0       25.540761   -2.252018   -1.360090
     82          6           0       27.912498   -1.192573    2.700774
     83          6           0       28.390831    3.364388    1.233611
     84          6           0       25.482139    2.506943   -2.617070
     85          7           0       26.679874   -1.499649    0.683147
     86          6           0       26.256004   -2.504257   -0.170593
     87          6           0       26.558916   -3.799240    0.502516
     88          6           0       26.774733   -3.434029    1.971482
     89          6           0       27.179867   -1.945820    1.825879
     90          6           0       25.434267   -3.566725    2.787111
     91          6           0       27.803109   -4.656531   -0.088773
     92          6           0       27.689208   -6.202730   -0.256557
     93          1           0       27.167233   -7.004054    0.970994
     94          7           0       28.022331    1.001716    1.770152
     95          6           0       28.264472    0.133442    2.707459
     96          6           0       28.926130    0.831516    3.823340
     97          6           0       29.285955    2.131497    3.355024
     98          6           0       28.537320    2.233083    2.070161
     99          6           0       29.255831    0.292049    5.262673
    100          6           0       30.176247    3.218702    3.956049
    101          8           0       30.303593    4.363107    3.480362
    102          6           0       30.755693    2.988225    5.270424
    103          7           0       26.784738    2.720955   -0.561434
    104          6           0       27.567126    3.672295    0.087874
    105          6           0       27.474313    5.034508   -0.702069
    106          6           0       26.664698    4.657089   -1.967633
    107          6           0       26.310744    3.186267   -1.736764
    108          6           0       26.944474    6.186125    0.152695
    109          6           0       27.330946    4.982433   -3.328179
    110          6           0       26.427757    5.520802   -4.462271
    111          7           0       25.772892    0.268743   -1.649982
    112          6           0       25.168498    1.113180   -2.575903
    113          6           0       24.492553    0.305784   -3.559351
    114          6           0       24.565822   -1.006384   -3.089465
    115          6           0       25.370676   -1.013730   -1.916955
    116          6           0       23.900718    0.745264   -4.753864
    117          6           0       24.224967   -2.409117   -3.369028
    118          8           0       23.632749   -2.951207   -4.288700
    119          6           0       24.880609   -3.279728   -2.247621
    120          6           0       23.770941   -4.084597   -1.594885
    121          8           0       22.969626   -3.841174   -0.721246
    122          8           0       23.934497   -5.307408   -2.178960
    123          6           0       23.252784   -6.466532   -1.555114
    124          1           0       28.261375   -1.790127    3.546017
    125          1           0       29.008337    4.195610    1.580139
    126          1           0       25.175760    3.021409   -3.529753
    127          1           0       25.767572   -4.548757    0.475700
    128          1           0       27.646821   -3.924321    2.403436
    129          1           0       25.576455   -3.866297    3.824897
    130          1           0       24.786729   -4.365010    2.423605
    131          1           0       25.005358   -2.565250    2.783063
    132          1           0       28.710986   -4.392198    0.452433
    133          1           0       28.058770   -4.287575   -1.082750
    134          1           0       28.733433   -6.496934   -0.368169
    135          1           0       27.059630   -6.280138   -1.143009
    136          1           0       30.314540    0.145310    5.475256
    137          1           0       28.733525   -0.658990    5.370429
    138          1           0       29.003031    0.966518    6.080813
    139          1           0       31.320278    2.055658    5.289365
    140          1           0       29.980349    2.960826    6.036160
    141          1           0       31.531194    3.741114    5.407908
    142          1           0       28.480510    5.233705   -1.071142
    143          1           0       25.666936    5.093702   -1.928056
    144          1           0       25.857193    6.216292    0.074624
    145          1           0       27.254137    7.176735   -0.178796
    146          1           0       27.074183    5.934559    1.204789
    147          1           0       27.940608    4.172802   -3.729016
    148          1           0       28.117690    5.728343   -3.207514
    149          1           0       26.208547    4.640032   -5.066013
    150          1           0       27.077009    6.175559   -5.044423
    151          1           0       25.532513    5.980325   -4.044268
    152          1           0       23.123886    0.147512   -5.230116
    153          1           0       24.715826    0.946941   -5.449576
    154          1           0       23.396684    1.676378   -4.497404
    155          1           0       25.640731   -3.931534   -2.677881
    156          1           0       24.000161   -7.259411   -1.562024
    157          1           0       22.372460   -6.844636   -2.074271
    158          1           0       22.999034   -6.236195   -0.520722
 ---------------------------------------------------------------------

 SCF Done:  E(RCAM-B3LYP) =  -4069.81922445     A.U. after   19 cycles

 Excitation energies and oscillator strengths:

 Excited State   1:      Singlet-A      1.7330 eV  715.44 nm  f=0.3862  <S**2>=0.000
     309 -> 315       -0.19056
     312 -> 314        0.68153
     309 <- 315       -0.10758
 This state for optimization and/or second-order correction.
 Total Energy, E(TD-HF/TD-DFT) =  -4069.75553831
 Copying the excited state density for this state as the 1-particle RhoCI density.

 Excited State   2:      Singlet-A      1.7724 eV  699.53 nm  f=0.3808  <S**2>=0.000
     310 -> 316       -0.19902
     311 -> 313        0.67935
     310 <- 316       -0.10975

 Excited State   3:      Singlet-A      2.2144 eV  559.90 nm  f=0.1111  <S**2>=0.000
     310 -> 313        0.64302
     311 -> 316        0.28129

 Excited State   4:      Singlet-A      2.2617 eV  548.20 nm  f=0.0688  <S**2>=0.000
     309 -> 314        0.62175
     312 -> 315        0.32225

 Excited State   5:      Singlet-A      3.2445 eV  382.13 nm  f=0.0000  <S**2>=0.000
     312 -> 313        0.70710

 The electronic state is 1-A.
 Alpha  occ. eigenvalues --  -46.89352 -46.88365 -19.24763 -19.24339 -19.20133
 Alpha  occ. eigenvalues --  -19.20011 -19.19273 -19.19240 -19.18663 -19.18206
 Alpha  occ. eigenvalues --  -14.42187 -14.41759 -14.41506 -14.41407 -14.39840
 Alpha  occ. eigenvalues --  -14.39646 -14.38936 -14.38912 -10.39213 -10.38520
 Alpha  occ. eigenvalues --  -10.36243 -10.35506 -10.34796 -10.34728 -10.31807
 Alpha  occ. eigenvalues --  -10.31680 -10.31433 -10.31237 -10.30795 -10.30732
 Alpha  occ. eigenvalues --  -10.30650 -10.30638 -10.30443 -10.30392 -10.30323
 Alpha  occ. eigenvalues --  -10.30306 -10.30023 -10.29968 -10.29848 -10.29525
 Alpha  occ. eigenvalues --  -10.29436 -10.29402 -10.29183 -10.28956 -10.28896
 Alpha  occ. eigenvalues --  -10.28890 -10.28194 -10.28155 -10.28062 -10.27899
 Alpha  occ. eigenvalues --  -10.27879 -10.27756 -10.27736 -10.27693 -10.27649
 Alpha  occ. eigenvalues --  -10.27584 -10.27563 -10.27527 -10.27514 -10.27463
 Alpha  occ. eigenvalues --  -10.27336 -10.27297 -10.27164 -10.27146 -10.27105
 Alpha  occ. eigenvalues --  -10.27071 -10.26887 -10.26671 -10.26649 -10.26531
 Alpha  occ. eigenvalues --  -10.26522 -10.26355 -10.26246 -10.26187 -10.26125
 Alpha  occ. eigenvalues --  -10.26033 -10.25786 -10.25693 -10.25636 -10.25609
 Alpha  occ. eigenvalues --  -10.25364 -10.25297 -10.25238 -10.24777 -10.24619
 Alpha  occ. eigenvalues --  -10.24420  -3.17739  -3.16978  -1.92637  -1.92196
 Alpha  occ. eigenvalues --   -1.92031  -1.91871  -1.91440  -1.91281  -1.16095
 Alpha  occ. eigenvalues --   -1.15488  -1.12487  -1.09571  -1.09346  -1.07740
 Alpha  occ. eigenvalues --   -1.07191  -1.06715  -1.05353  -1.05134  -1.04284
 Alpha  occ. eigenvalues --   -1.03921  -1.03426  -1.03036  -1.02050  -1.00841
 Alpha  occ. eigenvalues --   -0.92748  -0.92491  -0.89289  -0.88862  -0.88458
 Alpha  occ. eigenvalues --   -0.88328  -0.87966  -0.87811  -0.87543  -0.87452
 Alpha  occ. eigenvalues --   -0.87108  -0.86930  -0.86866  -0.86824  -0.84213
 Alpha  occ. eigenvalues --   -0.83881  -0.83573  -0.83450  -0.82713  -0.82449
 Alpha  occ. eigenvalues --   -0.82294  -0.81709  -0.81482  -0.81019  -0.80576
 Alpha  occ. eigenvalues --   -0.80247  -0.78517  -0.78368  -0.77431  -0.77358
 Alpha  occ. eigenvalues --   -0.77014  -0.76352  -0.75841  -0.75721  -0.75098
 Alpha  occ. eigenvalues --   -0.74809  -0.72489  -0.72175  -0.71798  -0.71433
 Alpha  occ. eigenvalues --   -0.69383  -0.68878  -0.68760  -0.68734  -0.68151
 Alpha  occ. eigenvalues --   -0.67679  -0.67346  -0.66961  -0.65790  -0.65457
 Alpha  occ. eigenvalues --   -0.65377  -0.65290  -0.65028  -0.64723  -0.64308
 Alpha  occ. eigenvalues --   -0.64049  -0.61918  -0.61520  -0.60463  -0.59992
 Alpha  occ. eigenvalues --   -0.59585  -0.59337  -0.59215  -0.59101  -0.58300
 Alpha  occ. eigenvalues --   -0.58250  -0.57923  -0.57847  -0.57633  -0.57481
 Alpha  occ. eigenvalues --   -0.56134  -0.55960  -0.55878  -0.55687  -0.55183
 Alpha  occ. eigenvalues --   -0.55128  -0.54519  -0.54443  -0.53944  -0.53679
 Alpha  occ. eigenvalues --   -0.53548  -0.53323  -0.53227  -0.53205  -0.53123
 Alpha  occ. eigenvalues --   -0.52929  -0.52918  -0.52695  -0.52409  -0.52102
 Alpha  occ. eigenvalues --   -0.52038  -0.51876  -0.51665  -0.51550  -0.51341
 Alpha  occ. eigenvalues --   -0.51184  -0.51084  -0.50910  -0.50781  -0.50685
 Alpha  occ. eigenvalues --   -0.50394  -0.50354  -0.49957  -0.49589  -0.49401
 Alpha  occ. eigenvalues --   -0.49340  -0.49111  -0.48964  -0.48924  -0.48817
 Alpha  occ. eigenvalues --   -0.48498  -0.48432  -0.48161  -0.48157  -0.47803
 Alpha  occ. eigenvalues --   -0.47756  -0.47642  -0.47370  -0.47113  -0.47004
 Alpha  occ. eigenvalues --   -0.46875  -0.46629  -0.46598  -0.46421  -0.46235
 Alpha  occ. eigenvalues --   -0.46202  -0.46001  -0.45900  -0.45572  -0.45530
 Alpha  occ. eigenvalues --   -0.45089  -0.45012  -0.44907  -0.44825  -0.44672
 Alpha  occ. eigenvalues --   -0.44375  -0.44333  -0.44251  -0.44134  -0.44028
 Alpha  occ. eigenvalues --   -0.43829  -0.43709  -0.43665  -0.43492  -0.43175
 Alpha  occ. eigenvalues --   -0.42999  -0.42947  -0.42890  -0.42744  -0.42701
 Alpha  occ. eigenvalues --   -0.42634  -0.42285  -0.42234  -0.42143  -0.41897
 Alpha  occ. eigenvalues --   -0.41679  -0.41636  -0.41520  -0.41433  -0.41220
 Alpha  occ. eigenvalues --   -0.41157  -0.40848  -0.40622  -0.40533  -0.40228
 Alpha  occ. eigenvalues --   -0.40173  -0.39835  -0.39778  -0.39593  -0.39362
 Alpha  occ. eigenvalues --   -0.38755  -0.38187  -0.37950  -0.37646  -0.37587
 Alpha  occ. eigenvalues --   -0.37375  -0.36850  -0.36525  -0.36505  -0.36429
 Alpha  occ. eigenvalues --   -0.36289  -0.35910  -0.34643  -0.34278  -0.33880
 Alpha  occ. eigenvalues --   -0.33862  -0.33406  -0.33083  -0.31724  -0.31669
 Alpha  occ. eigenvalues --   -0.31167  -0.31152  -0.30540  -0.30443  -0.30352
 Alpha  occ. eigenvalues --   -0.30114  -0.29239  -0.29136  -0.23950  -0.23637
 Alpha  occ. eigenvalues --   -0.21209  -0.20951
 Alpha virt. eigenvalues --   -0.08390  -0.08259  -0.02040  -0.01662  -0.00118
 Alpha virt. eigenvalues --   -0.00002   0.01772   0.02123   0.02339   0.02633
 Alpha virt. eigenvalues --    0.05215   0.05499   0.05799   0.05970   0.05989

 Mulliken charges:
               1
     1  Mg   0.834087
     2  C    0.046713
     3  C   -0.061059
     4  C   -0.071312
     5  C   -0.093683
     6  N   -0.207336
     7  C   -0.140061
     8  C    0.027015
     9  C   -0.087866
    10  C    0.045289
    11  C    0.043949
    12  C    0.065415
    13  C   -0.077254
    14  H    0.020443
    15  N   -0.449215
    16  C    0.144341
    17  C   -0.127419
    18  C   -0.063079
    19  C    0.122875
    20  C    0.101062
    21  C    0.037210
    22  O   -0.159083
    23  C    0.015508
    24  N   -0.261522
    25  C    0.011085
    26  C    0.001209
    27  C   -0.019815
    28  C    0.031461
    29  C    0.063926
    30  C    0.026402
    31  C    0.015650
    32  N   -0.333831
    33  C    0.151048
    34  C   -0.160981
    35  C    0.054042
    36  C    0.083165
    37  C    0.103576
    38  C    0.016007
    39  O   -0.220060
    40  C   -0.011463
    41  C    0.205078
    42  O   -0.233909
    43  O   -0.336066
    44  C    0.186333
    45  H   -0.027697
    46  H   -0.015373
    47  H   -0.031252
    48  H    0.025833
    49  H    0.014645
    50  H    0.026808
    51  H    0.017637
    52  H    0.017607
    53  H   -0.007422
    54  H    0.015260
    55  H    0.035029
    56  H    0.042419
    57  H    0.043214
    58  H    0.020452
    59  H    0.020676
    60  H    0.049361
    61  H    0.033208
    62  H    0.022821
    63  H    0.011364
    64  H    0.008410
    65  H    0.021647
    66  H    0.013258
    67  H    0.028433
    68  H    0.004148
    69  H    0.007199
    70  H    0.004353
    71  H    0.003674
    72  H    0.027892
    73  H    0.017353
    74  H    0.026302
    75  H    0.033209
    76  H    0.032835
    77  H    0.049837
    78  H    0.038659
    79  H    0.030325
    80  Mg   0.808072
    81  C   -0.037969
    82  C   -0.089808
    83  C   -0.053006
    84  C   -0.086838
    85  N   -0.255077
    86  C    0.011433
    87  C   -0.052142
    88  C   -0.029246
    89  C   -0.033315
    90  C    0.087631
    91  C    0.015906
    92  C   -0.056960
    93  H    0.015495
    94  N   -0.338756
    95  C    0.178098
    96  C   -0.150795
    97  C   -0.029506
    98  C    0.090560
    99  C    0.102833
   100  C    0.020423
   101  O   -0.219874
   102  C    0.059557
   103  N   -0.286775
   104  C    0.009236
   105  C   -0.007526
   106  C   -0.009755
   107  C    0.041945
   108  C    0.096742
   109  C    0.007919
   110  C    0.017131
   111  N   -0.353033
   112  C    0.116919
   113  C   -0.178585
   114  C    0.026944
   115  C    0.138515
   116  C    0.109204
   117  C    0.030116
   118  O   -0.162841
   119  C   -0.011630
   120  C    0.215716
   121  O   -0.195396
   122  O   -0.342987
   123  C    0.168214
   124  H   -0.039321
   125  H   -0.000884
   126  H   -0.036913
   127  H    0.002001
   128  H   -0.005764
   129  H    0.006482
   130  H    0.024732
   131  H    0.035965
   132  H   -0.001579
   133  H   -0.000275
   134  H    0.042163
   135  H    0.049217
   136  H    0.021978
   137  H    0.018335
   138  H    0.019680
   139  H    0.017011
   140  H    0.053769
   141  H    0.028139
   142  H    0.011528
   143  H    0.009134
   144  H   -0.005866
   145  H    0.023798
   146  H    0.026166
   147  H   -0.000028
   148  H   -0.001204
   149  H    0.023405
   150  H    0.015924
   151  H    0.024098
   152  H    0.035018
   153  H    0.030434
   154  H    0.016878
   155  H    0.051170
   156  H    0.029846
   157  H    0.045951
   158  H    0.042222
 Sum of Mulliken charges =  -0.00000

 Dipole moment (field-independent basis, Debye):
    X=             -0.6564    Y=             -1.3425    Z=              0.7518  Tot=              1.6728
 Quadrupole moment (field-independent basis, Debye-Ang):
   XX=            -75.6578   YY=           -477.9406   ZZ=           -508.0653
   XY=              7.9456   XZ=             71.5778   YZ=            -10.2543

 Normal termination of Gaussian 16 at Thu Sep 16 06:24:19 2021.
