 Gaussian 16, Revision A.03,
 Gaussian 16:  ES64L-G16RevA.03 25-Dec-2016

 ----------------------------------------------------------
 #p cam-b3lyp/Def2SVP td=(nstates=5) density=(transition=1)
 ----------------------------------------------------------

 --------------------------------
 TDDFT excited states in gaussian
 --------------------------------
 Symbolic Z-matrix:
 Charge =  0 Multiplicity = 1

                         Standard orientation:
 ---------------------------------------------------------------------
 Center     Atomic      Atomic             Coordinates (Angstroms)
 Number     Number       Type             X           Y           Z
 ---------------------------------------------------------------------
      1         12           0      -25.713354    0.346927    0.393174
      2          6           0      -22.909038   -1.693059   -0.108535
      3          6           0      -27.546983   -1.838407   -1.703993
      4          6           0      -28.347194    2.482139    0.575493
      5          6           0      -23.642429    2.735529    1.781294
      6          7           0      -25.285596   -1.590114   -0.595164
      7          6           0      -24.083902   -2.295559   -0.484372
      8          6           0      -24.324254   -3.790480   -0.904027
      9          6           0      -25.746886   -3.751577   -1.474062
     10          6           0      -26.227968   -2.269694   -1.292312
     11          6           0      -25.743807   -4.178131   -2.966803
     12          6           0      -24.108837   -4.678565    0.315357
     13          6           0      -23.647794   -6.108519    0.085444
     14          1           0      -23.726569   -6.680903   -1.347931
     15          7           0      -27.688508    0.362267   -0.414274
     16          6           0      -28.234448   -0.609848   -1.273932
     17          6           0      -29.587547   -0.249086   -1.659126
     18          6           0      -29.919795    0.982242   -0.968421
     19          6           0      -28.623551    1.333501   -0.244277
     20          6           0      -30.522254   -1.147996   -2.478591
     21          6           0      -31.206974    1.783455   -0.930116
     22          8           0      -31.280353    2.802491   -0.256407
     23          6           0      -32.422917    1.201963   -1.542579
     24          7           0      -25.942417    2.323355    1.159600
     25          6           0      -27.154951    2.942871    1.196594
     26          6           0      -27.048275    4.252923    2.020253
     27          6           0      -25.539153    4.319319    2.476426
     28          6           0      -24.987537    2.999786    1.877257
     29          6           0      -27.496668    5.456665    1.172275
     30          6           0      -25.320418    4.331566    4.012693
     31          6           0      -25.015879    5.756615    4.464142
     32          7           0      -23.663017    0.623143    0.705373
     33          6           0      -22.927972    1.645824    1.205187
     34          6           0      -21.500248    1.321638    0.967965
     35          6           0      -21.434123    0.018861    0.568774
     36          6           0      -22.792226   -0.344005    0.380398
     37          6           0      -20.392378    2.286913    1.354749
     38          6           0      -20.566291   -1.122851    0.250490
     39          8           0      -19.342861   -1.185532    0.238969
     40          6           0      -21.508923   -2.257298   -0.101998
     41          6           0      -21.023901   -2.786473   -1.386463
     42          8           0      -21.161655   -2.347665   -2.536336
     43          8           0      -20.263686   -3.904740   -1.111503
     44          6           0      -19.625879   -4.550901   -2.237917
     45          1           0      -28.100229   -2.577305   -2.287048
     46          1           0      -29.270489    3.057206    0.672175
     47          1           0      -23.047840    3.574240    2.149580
     48          1           0      -23.559324   -3.902018   -1.673446
     49          1           0      -26.287762   -4.556035   -0.975758
     50          1           0      -25.970540   -3.379581   -3.673414
     51          1           0      -26.635826   -4.788155   -3.106335
     52          1           0      -24.790923   -4.611764   -3.269620
     53          1           0      -25.051261   -4.614728    0.860140
     54          1           0      -23.410166   -4.184817    0.989734
     55          1           0      -24.186351   -6.760965    0.771407
     56          1           0      -22.615236   -6.053235    0.432006
     57          1           0      -30.035603   -2.030938   -2.893374
     58          1           0      -30.940614   -0.584116   -3.313397
     59          1           0      -31.388496   -1.396064   -1.866385
     60          1           0      -32.698063    0.307003   -0.983953
     61          1           0      -32.318939    1.125104   -2.624857
     62          1           0      -33.291876    1.845998   -1.407204
     63          1           0      -27.753961    4.177802    2.847261
     64          1           0      -25.118152    5.168149    1.936003
     65          1           0      -26.773953    6.262589    1.048055
     66          1           0      -28.300286    5.823930    1.810207
     67          1           0      -27.752147    5.215602    0.140804
     68          1           0      -24.373938    3.851644    4.262230
     69          1           0      -26.163361    3.936643    4.580093
     70          1           0      -25.665360    5.895145    5.328346
     71          1           0      -25.369347    6.528310    3.780723
     72          1           0      -23.976551    5.952458    4.729326
     73          1           0      -20.718336    3.299728    1.592931
     74          1           0      -19.619148    2.365194    0.591474
     75          1           0      -19.991864    1.973898    2.319609
     76          1           0      -21.448101   -2.996799    0.695803
     77          1           0      -19.088555   -3.783626   -2.795885
     78          1           0      -20.327010   -5.043261   -2.912141
     79          1           0      -18.774178   -5.074851   -1.805445
     80         12           0       26.012878   -0.330838   -0.494061
     81          6           0       22.541945   -0.892506   -0.008663
     82          6           0       25.150241    1.766817   -3.144122
     83          6           0       28.986882    1.033710   -0.134263
     84          6           0       26.524707   -2.331887    2.528819
     85          7           0       23.978559    0.553204   -1.310045
     86          6           0       22.774697   -0.040818   -1.117775
     87          6           0       21.794622    0.460109   -2.163424
     88          6           0       22.671803    0.766516   -3.377463
     89          6           0       24.025063    1.108579   -2.568338
     90          6           0       22.944706   -0.353737   -4.382898
     91          6           0       20.942603    1.662208   -1.563541
     92          6           0       19.502370    1.540344   -1.873066
     93          1           0       18.748859    2.821838   -2.279225
     94          7           0       26.985863    1.260837   -1.475007
     95          6           0       26.478271    1.945732   -2.606936
     96          6           0       27.511473    2.858886   -3.026239
     97          6           0       28.687613    2.643960   -2.259863
     98          6           0       28.281333    1.638739   -1.214236
     99          6           0       27.273309    3.825053   -4.182411
    100          6           0       29.962039    3.380599   -2.389306
    101          8           0       30.052487    4.258396   -3.238671
    102          6           0       31.171822    3.246079   -1.523930
    103          7           0       27.534540   -0.582329    1.126176
    104          6           0       28.724105   -0.017543    0.838571
    105          6           0       29.808581   -0.506045    1.815874
    106          6           0       29.074597   -1.728315    2.608024
    107          6           0       27.633700   -1.597755    2.050088
    108          6           0       31.213746   -0.834471    1.136744
    109          6           0       29.179138   -1.680032    4.164568
    110          6           0       27.961169   -1.097495    4.959588
    111          7           0       24.869741   -1.370279    0.924617
    112          6           0       25.236219   -2.176581    2.039709
    113          6           0       23.997866   -2.931204    2.520125
    114          6           0       22.977154   -2.387839    1.756493
    115          6           0       23.559789   -1.474057    0.806927
    116          6           0       23.784324   -3.993722    3.615425
    117          6           0       21.574408   -2.451345    1.494063
    118          8           0       20.706251   -3.186107    1.967899
    119          6           0       21.308056   -1.391471    0.485616
    120          6           0       20.564773   -0.311965    1.305246
    121          8           0       21.058795    0.512115    2.071929
    122          8           0       19.173302   -0.491031    1.069830
    123          6           0       18.267240    0.298258    1.800867
    124          1           0       24.958259    2.361077   -4.040066
    125          1           0       30.004264    1.422696   -0.209425
    126          1           0       26.596428   -3.063167    3.335765
    127          1           0       21.109373   -0.310396   -2.516457
    128          1           0       22.411590    1.577629   -4.056556
    129          1           0       22.231291   -1.175644   -4.330190
    130          1           0       24.000007   -0.626895   -4.403532
    131          1           0       22.741845    0.139457   -5.334243
    132          1           0       21.286669    2.591431   -2.017831
    133          1           0       21.139547    1.869333   -0.511626
    134          1           0       19.116705    1.112358   -0.948453
    135          1           0       19.388678    0.829670   -2.691535
    136          1           0       27.780661    3.523979   -5.098745
    137          1           0       27.538583    4.829852   -3.856876
    138          1           0       26.212332    3.864077   -4.429627
    139          1           0       31.612104    2.265400   -1.705931
    140          1           0       31.006854    3.367363   -0.452633
    141          1           0       31.990930    3.869462   -1.880417
    142          1           0       29.899358    0.327338    2.512206
    143          1           0       29.447999   -2.671104    2.209675
    144          1           0       31.335590   -0.286489    0.202517
    145          1           0       31.513681   -1.875996    1.015196
    146          1           0       31.919455   -0.580456    1.929212
    147          1           0       30.072228   -1.156511    4.504799
    148          1           0       29.255438   -2.737042    4.418389
    149          1           0       28.554736   -0.684569    5.775566
    150          1           0       27.228872   -1.797027    5.363290
    151          1           0       27.521162   -0.306019    4.352562
    152          1           0       23.361832   -4.906685    3.197236
    153          1           0       22.953738   -3.494580    4.113598
    154          1           0       24.690729   -4.028980    4.219421
    155          1           0       20.635846   -1.779297   -0.279861
    156          1           0       17.216263    0.103895    1.583339
    157          1           0       18.470992    1.339312    1.553473
    158          1           0       18.476977    0.069149    2.846058
 ---------------------------------------------------------------------

 SCF Done:  E(RCAM-B3LYP) =  -4069.75831162     A.U. after   19 cycles

 Excitation energies and oscillator strengths:

 Excited State   1:      Singlet-A      1.6782 eV  738.81 nm  f=0.4091  <S**2>=0.000
     310 -> 316        0.17277
     312 -> 313        0.68634
     310 <- 316        0.10442
 This state for optimization and/or second-order correction.
 Total Energy, E(TD-HF/TD-DFT) =  -4069.69664056
 Copying the excited state density for this state as the 1-particle RhoCI density.

 Excited State   2:      Singlet-A      1.6843 eV  736.13 nm  f=0.3425  <S**2>=0.000
     309 -> 315       -0.19703
     311 -> 314        0.67944
     309 <- 315       -0.11200

 Excited State   3:      Singlet-A      2.1915 eV  565.75 nm  f=0.0567  <S**2>=0.000
     309 -> 314        0.61451
     311 -> 315        0.33941

 Excited State   4:      Singlet-A      2.1968 eV  564.39 nm  f=0.1205  <S**2>=0.000
     310 -> 313        0.64517
     312 -> 316       -0.27391

 Excited State   5:      Singlet-A      3.1863 eV  389.12 nm  f=0.0000  <S**2>=0.000
     311 -> 313        0.70710

 The electronic state is 1-A.
 Alpha  occ. eigenvalues --  -46.91295 -46.89105 -19.24701 -19.24443 -19.21394
 Alpha  occ. eigenvalues --  -19.19781 -19.19284 -19.19194 -19.18906 -19.17569
 Alpha  occ. eigenvalues --  -14.42402 -14.42177 -14.41937 -14.41728 -14.40238
 Alpha  occ. eigenvalues --  -14.40108 -14.39756 -14.39190 -10.40585 -10.39349
 Alpha  occ. eigenvalues --  -10.35468 -10.35391 -10.34555 -10.34122 -10.31980
 Alpha  occ. eigenvalues --  -10.31825 -10.31423 -10.31397 -10.31301 -10.31193
 Alpha  occ. eigenvalues --  -10.31143 -10.31043 -10.30979 -10.30969 -10.30956
 Alpha  occ. eigenvalues --  -10.30826 -10.30638 -10.30075 -10.30072 -10.29526
 Alpha  occ. eigenvalues --  -10.29461 -10.29386 -10.29334 -10.29044 -10.28776
 Alpha  occ. eigenvalues --  -10.28581 -10.28517 -10.28406 -10.28392 -10.28366
 Alpha  occ. eigenvalues --  -10.28192 -10.28158 -10.28141 -10.28034 -10.27901
 Alpha  occ. eigenvalues --  -10.27764 -10.27758 -10.27659 -10.27657 -10.27602
 Alpha  occ. eigenvalues --  -10.27602 -10.27584 -10.27551 -10.27550 -10.27386
 Alpha  occ. eigenvalues --  -10.27349 -10.27158 -10.27103 -10.27089 -10.26783
 Alpha  occ. eigenvalues --  -10.26777 -10.26515 -10.26483 -10.26355 -10.26279
 Alpha  occ. eigenvalues --  -10.26226 -10.26216 -10.25766 -10.25664 -10.25516
 Alpha  occ. eigenvalues --  -10.25494 -10.25267 -10.25249 -10.24994 -10.24971
 Alpha  occ. eigenvalues --  -10.24762  -3.19495  -3.17503  -1.94337  -1.94003
 Alpha  occ. eigenvalues --   -1.93751  -1.92416  -1.91917  -1.91835  -1.15812
 Alpha  occ. eigenvalues --   -1.15780  -1.10447  -1.09997  -1.09594  -1.09353
 Alpha  occ. eigenvalues --   -1.08643  -1.06852  -1.04309  -1.04196  -1.03444
 Alpha  occ. eigenvalues --   -1.02831  -1.02776  -1.02626  -1.01615  -1.01270
 Alpha  occ. eigenvalues --   -0.94372  -0.93357  -0.89257  -0.89163  -0.88769
 Alpha  occ. eigenvalues --   -0.88716  -0.87953  -0.87795  -0.87261  -0.87096
 Alpha  occ. eigenvalues --   -0.86843  -0.86842  -0.85585  -0.85566  -0.84772
 Alpha  occ. eigenvalues --   -0.84298  -0.83870  -0.83656  -0.82715  -0.82697
 Alpha  occ. eigenvalues --   -0.82372  -0.81636  -0.80883  -0.80850  -0.80266
 Alpha  occ. eigenvalues --   -0.80009  -0.78086  -0.78030  -0.77265  -0.77248
 Alpha  occ. eigenvalues --   -0.76871  -0.76802  -0.75995  -0.75945  -0.75200
 Alpha  occ. eigenvalues --   -0.74524  -0.72741  -0.72523  -0.71833  -0.70995
 Alpha  occ. eigenvalues --   -0.69912  -0.69049  -0.68707  -0.68477  -0.67912
 Alpha  occ. eigenvalues --   -0.67309  -0.67059  -0.66860  -0.65412  -0.65335
 Alpha  occ. eigenvalues --   -0.64963  -0.64905  -0.64705  -0.64621  -0.64537
 Alpha  occ. eigenvalues --   -0.63884  -0.62204  -0.62115  -0.60112  -0.59924
 Alpha  occ. eigenvalues --   -0.59761  -0.59634  -0.59264  -0.59081  -0.58892
 Alpha  occ. eigenvalues --   -0.58782  -0.58339  -0.58254  -0.57626  -0.57029
 Alpha  occ. eigenvalues --   -0.56192  -0.55952  -0.55875  -0.55754  -0.55632
 Alpha  occ. eigenvalues --   -0.55076  -0.54941  -0.54762  -0.54550  -0.53669
 Alpha  occ. eigenvalues --   -0.53620  -0.53587  -0.53403  -0.53386  -0.53305
 Alpha  occ. eigenvalues --   -0.53026  -0.52897  -0.52806  -0.52633  -0.52172
 Alpha  occ. eigenvalues --   -0.51956  -0.51877  -0.51709  -0.51662  -0.51383
 Alpha  occ. eigenvalues --   -0.51363  -0.51296  -0.50759  -0.50545  -0.50321
 Alpha  occ. eigenvalues --   -0.50177  -0.49959  -0.49816  -0.49606  -0.49394
 Alpha  occ. eigenvalues --   -0.49293  -0.49238  -0.49221  -0.49012  -0.48942
 Alpha  occ. eigenvalues --   -0.48634  -0.48470  -0.48259  -0.48152  -0.47848
 Alpha  occ. eigenvalues --   -0.47750  -0.47462  -0.47386  -0.47160  -0.47119
 Alpha  occ. eigenvalues --   -0.46841  -0.46720  -0.46385  -0.46086  -0.46020
 Alpha  occ. eigenvalues --   -0.45938  -0.45892  -0.45874  -0.45861  -0.45427
 Alpha  occ. eigenvalues --   -0.45293  -0.45221  -0.45136  -0.44977  -0.44722
 Alpha  occ. eigenvalues --   -0.44561  -0.44441  -0.44437  -0.44378  -0.44206
 Alpha  occ. eigenvalues --   -0.44129  -0.43784  -0.43581  -0.43468  -0.43387
 Alpha  occ. eigenvalues --   -0.43299  -0.43164  -0.43025  -0.42995  -0.42791
 Alpha  occ. eigenvalues --   -0.42608  -0.42350  -0.42323  -0.42033  -0.41866
 Alpha  occ. eigenvalues --   -0.41591  -0.41517  -0.41291  -0.41231  -0.41057
 Alpha  occ. eigenvalues --   -0.41000  -0.40967  -0.40423  -0.40420  -0.40075
 Alpha  occ. eigenvalues --   -0.39964  -0.39165  -0.38916  -0.38549  -0.38453
 Alpha  occ. eigenvalues --   -0.38261  -0.38010  -0.37949  -0.37915  -0.37745
 Alpha  occ. eigenvalues --   -0.37627  -0.36506  -0.36436  -0.36316  -0.36297
 Alpha  occ. eigenvalues --   -0.35834  -0.35761  -0.35206  -0.34352  -0.34209
 Alpha  occ. eigenvalues --   -0.34075  -0.33339  -0.32606  -0.31564  -0.31455
 Alpha  occ. eigenvalues --   -0.31445  -0.31263  -0.30802  -0.30559  -0.30264
 Alpha  occ. eigenvalues --   -0.30208  -0.29972  -0.29471  -0.24042  -0.23792
 Alpha  occ. eigenvalues --   -0.21030  -0.20925
 Alpha virt. eigenvalues --   -0.08657  -0.08523  -0.02608  -0.01452  -0.00598
 Alpha virt. eigenvalues --    0.00141   0.00196   0.01835   0.02177   0.02521
 Alpha virt. eigenvalues --    0.04716   0.05147   0.05176   0.05216   0.05883

 Mulliken charges:
               1
     1  Mg  12.000420
     2  C    5.970738
     3  C    6.012692
     4  C    6.029650
     5  C    5.988408
     6  N    6.985132
     7  C    6.038150
     8  C    5.994214
     9  C    6.012741
    10  C    5.967318
    11  C    6.002250
    12  C    5.995286
    13  C    5.999980
    14  H    1.007221
    15  N    7.009380
    16  C    5.954269
    17  C    5.982533
    18  C    5.980177
    19  C    5.963714
    20  C    6.003982
    21  C    5.985855
    22  O    7.969149
    23  C    6.008493
    24  N    7.007282
    25  C    5.962190
    26  C    6.008680
    27  C    5.987468
    28  C    6.029642
    29  C    6.002681
    30  C    5.995148
    31  C    5.998004
    32  N    6.995670
    33  C    6.041372
    34  C    6.029581
    35  C    6.002360
    36  C    6.040576
    37  C    5.995175
    38  C    6.018026
    39  O    8.027958
    40  C    6.001089
    41  C    6.003441
    42  O    8.007745
    43  O    8.000551
    44  C    5.998295
    45  H    0.986544
    46  H    0.998643
    47  H    1.011844
    48  H    0.997248
    49  H    0.992675
    50  H    1.001167
    51  H    1.000689
    52  H    0.985879
    53  H    1.010301
    54  H    0.991862
    55  H    1.003480
    56  H    0.995491
    57  H    0.982008
    58  H    0.981189
    59  H    0.981616
    60  H    0.992313
    61  H    0.992072
    62  H    0.983980
    63  H    1.001173
    64  H    1.004097
    65  H    0.990391
    66  H    0.999640
    67  H    1.005129
    68  H    0.994872
    69  H    1.010318
    70  H    1.005923
    71  H    1.005939
    72  H    0.998574
    73  H    1.019714
    74  H    1.020005
    75  H    1.022426
    76  H    1.007504
    77  H    1.000640
    78  H    1.007128
    79  H    1.002843
    80  Mg  12.000101
    81  C    6.001263
    82  C    5.999018
    83  C    5.999030
    84  C    6.001196
    85  N    7.000167
    86  C    5.998534
    87  C    6.000170
    88  C    5.999908
    89  C    6.001484
    90  C    5.999925
    91  C    6.000269
    92  C    6.000068
    93  H    0.999597
    94  N    6.999255
    95  C    6.002528
    96  C    6.000754
    97  C    6.000633
    98  C    6.001959
    99  C    5.999715
   100  C    6.000445
   101  O    8.001103
   102  C    5.999814
   103  N    7.000223
   104  C    6.001631
   105  C    5.999364
   106  C    6.000707
   107  C    5.998026
   108  C    5.999834
   109  C    5.999946
   110  C    6.000426
   111  N    7.000403
   112  C    5.997341
   113  C    5.998815
   114  C    5.999801
   115  C    5.998385
   116  C    5.999992
   117  C    5.999135
   118  O    7.998448
   119  C    6.000056
   120  C    5.999893
   121  O    7.999769
   122  O    7.999923
   123  C    6.000136
   124  H    1.000427
   125  H    1.000187
   126  H    0.999540
   127  H    1.000022
   128  H    1.000025
   129  H    1.000686
   130  H    0.999929
   131  H    1.000094
   132  H    0.999373
   133  H    1.000116
   134  H    1.000243
   135  H    0.999850
   136  H    1.001017
   137  H    1.000820
   138  H    1.000888
   139  H    1.000566
   140  H    1.000569
   141  H    1.000630
   142  H    1.000056
   143  H    0.999758
   144  H    0.999593
   145  H    1.000344
   146  H    1.000273
   147  H    0.999513
   148  H    0.999990
   149  H    0.999574
   150  H    1.000154
   151  H    0.999882
   152  H    0.999153
   153  H    0.999318
   154  H    0.999246
   155  H    0.999536
   156  H    0.999700
   157  H    0.999711
   158  H    1.000029
 Sum of Mulliken charges = 624.00000

 Dipole moment (field-independent basis, Debye):
    X=             10.8922    Y=              1.2797    Z=              2.8817  Tot=             11.3394
 Quadrupole moment (field-independent basis, Debye-Ang):
   XX=           -531.0137   YY=              3.0040   ZZ=             -0.2296
   XY=            -11.5349   XZ=            -93.2263   YZ=              2.3367

 Normal termination of Gaussian 16 at Wed Sep 22 21:30:43 2021.
