 Gaussian 16, Revision A.03,
 Gaussian 16:  ES64L-G16RevA.03 25-Dec-2016

 ----------------------------------------------------------
 #p cam-b3lyp/Def2SVP td=(nstates=5) density=(transition=1)
 ----------------------------------------------------------

 --------------------------------
 TDDFT excited states in gaussian
 --------------------------------
 Symbolic Z-matrix:
 Charge =  0 Multiplicity = 1

                         Standard orientation:
 ---------------------------------------------------------------------
 Center     Atomic      Atomic             Coordinates (Angstroms)
 Number     Number       Type             X           Y           Z
 ---------------------------------------------------------------------
      1         12           0       29.961239    0.421251    0.595171
      2          6           0       30.195397   -2.027005   -1.810826
      3          6           0       28.231564    2.392698   -1.724357
      4          6           0       29.767737    2.911906    2.865321
      5          6           0       31.959459   -1.385409    2.659232
      6          7           0       29.528151    0.275306   -1.639799
      7          6           0       29.523435   -0.948459   -2.320709
      8          6           0       28.690671   -0.887017   -3.616448
      9          6           0       28.185368    0.601874   -3.566218
     10          6           0       28.609663    1.155274   -2.222823
     11          6           0       28.696515    1.446016   -4.726863
     12          6           0       27.515350   -1.905149   -3.831130
     13          6           0       27.693944   -3.002901   -5.014653
     14          1           0       26.578893   -2.880482   -6.057809
     15          7           0       29.230419    2.379179    0.558362
     16          6           0       28.437033    2.949701   -0.450096
     17          6           0       27.819406    4.201327    0.000404
     18          6           0       28.321892    4.462169    1.387457
     19          6           0       29.103706    3.203787    1.715608
     20          6           0       26.898686    5.029270   -0.868703
     21          6           0       28.116472    5.583186    2.293115
     22          8           0       28.724739    5.621062    3.372861
     23          6           0       27.231455    6.770170    1.955284
     24          7           0       30.809193    0.710503    2.389437
     25          6           0       30.493518    1.774785    3.254218
     26          6           0       31.068821    1.637430    4.721600
     27          6           0       31.807827    0.209257    4.570880
     28          6           0       31.486057   -0.185838    3.111835
     29          6           0       32.055632    2.826340    5.166509
     30          6           0       31.285531   -0.828006    5.623571
     31          6           0       32.275799   -1.773141    6.228593
     32          7           0       30.988166   -1.337936    0.397619
     33          6           0       31.741906   -1.996038    1.373688
     34          6           0       32.102470   -3.303311    0.942360
     35          6           0       31.407954   -3.398759   -0.319991
     36          6           0       30.834728   -2.151003   -0.596182
     37          6           0       32.854604   -4.374940    1.613120
     38          6           0       31.236693   -4.235174   -1.466453
     39          8           0       31.562348   -5.389932   -1.763239
     40          6           0       30.548891   -3.292721   -2.555348
     41          6           0       31.481211   -3.127698   -3.701850
     42          8           0       32.197765   -2.235605   -3.935998
     43          8           0       31.319492   -4.173797   -4.607257
     44          6           0       31.692660   -3.866347   -5.972306
     45          1           0       27.616954    2.964497   -2.422795
     46          1           0       29.721042    3.607266    3.705927
     47          1           0       32.474202   -2.030504    3.374264
     48          1           0       29.365575   -0.981768   -4.466429
     49          1           0       27.104132    0.665693   -3.691628
     50          1           0       29.362639    2.213568   -4.333760
     51          1           0       27.783585    1.901362   -5.108783
     52          1           0       29.145745    0.895571   -5.553214
     53          1           0       26.610096   -1.330951   -4.029975
     54          1           0       27.350918   -2.512652   -2.941074
     55          1           0       27.543466   -3.940016   -4.478384
     56          1           0       28.672658   -2.901536   -5.483106
     57          1           0       27.528482    5.509064   -1.618896
     58          1           0       26.431997    5.784600   -0.238293
     59          1           0       26.195658    4.431882   -1.449603
     60          1           0       27.529736    7.559659    2.645398
     61          1           0       26.164060    6.557753    2.024127
     62          1           0       27.419146    7.281472    1.011328
     63          1           0       30.251202    1.484453    5.425266
     64          1           0       32.882565    0.226324    4.753275
     65          1           0       32.871242    2.395421    5.747565
     66          1           0       31.658266    3.554948    5.872095
     67          1           0       32.457208    3.386026    4.321533
     68          1           0       30.439318   -1.421309    5.277523
     69          1           0       30.910435   -0.350309    6.528469
     70          1           0       31.988279   -2.751666    5.844319
     71          1           0       32.248541   -1.995082    7.295415
     72          1           0       33.282319   -1.512648    5.899608
     73          1           0       32.738929   -4.252135    2.690336
     74          1           0       33.891741   -4.176702    1.342930
     75          1           0       32.586238   -5.327350    1.155565
     76          1           0       29.628532   -3.750488   -2.917096
     77          1           0       32.781418   -3.903105   -5.958292
     78          1           0       31.350182   -2.846346   -6.145949
     79          1           0       31.307871   -4.609820   -6.670952
     80         12           0      -30.673449   -0.769836   -0.389122
     81          6           0      -27.744770    1.167491   -0.906869
     82          6           0      -28.694741   -3.005690    1.414429
     83          6           0      -33.462550   -1.812053    1.014746
     84          6           0      -32.482952    1.940053   -2.058305
     85          7           0      -28.444978   -0.744405    0.397697
     86          6           0      -27.457723   -0.013016   -0.176334
     87          6           0      -26.110619   -0.597921    0.208446
     88          6           0      -26.391523   -2.089971    0.387615
     89          6           0      -27.940704   -1.954188    0.817267
     90          6           0      -26.275934   -3.006630   -0.831694
     91          6           0      -25.528060    0.185393    1.464584
     92          6           0      -24.096236    0.516724    1.306382
     93          1           0      -23.183276    0.341791    2.535558
     94          7           0      -31.077898   -2.212766    1.093024
     95          6           0      -30.116085   -3.089845    1.653059
     96          6           0      -30.839342   -3.985703    2.519954
     97          6           0      -32.235803   -3.762061    2.390684
     98          6           0      -32.345980   -2.552163    1.500248
     99          6           0      -30.099328   -5.023534    3.357941
    100          6           0      -33.306552   -4.479531    3.113380
    101          8           0      -32.996377   -5.368385    3.896871
    102          6           0      -34.770810   -4.187993    3.074619
    103          7           0      -32.739052    0.085506   -0.463568
    104          6           0      -33.675228   -0.723367    0.071283
    105          6           0      -35.088393   -0.244911   -0.308042
    106          6           0      -34.805880    0.892792   -1.442059
    107          6           0      -33.258886    0.975860   -1.375477
    108          6           0      -36.100292   -1.412967   -0.702091
    109          6           0      -35.542704    2.252188   -1.229405
    110          6           0      -34.737090    3.423021   -0.569866
    111          7           0      -30.269632    1.087441   -1.276424
    112          6           0      -31.101849    2.019554   -1.959390
    113          6           0      -30.209954    3.041073   -2.662807
    114          6           0      -28.940609    2.724080   -2.206176
    115          6           0      -29.034787    1.536278   -1.395995
    116          6           0      -30.518594    4.221066   -3.604393
    117          6           0      -27.559630    3.076859   -2.301261
    118          8           0      -27.000664    3.936408   -2.984507
    119          6           0      -26.850735    2.175467   -1.354581
    120          6           0      -26.463682    3.123826   -0.196824
    121          8           0      -27.191592    3.533329    0.705076
    122          8           0      -25.109525    3.507285   -0.403937
    123          6           0      -24.551369    4.470805    0.455383
    124          1           0      -28.121748   -3.792206    1.910201
    125          1           0      -34.338285   -2.340478    1.396688
    126          1           0      -32.916177    2.709147   -2.700089
    127          1           0      -25.377497   -0.558836   -0.597086
    128          1           0      -25.836093   -2.672536    1.121715
    129          1           0      -25.687482   -2.584059   -1.645591
    130          1           0      -27.239617   -3.438807   -1.102321
    131          1           0      -25.674846   -3.829138   -0.442305
    132          1           0      -25.609537   -0.456688    2.341687
    133          1           0      -26.132687    1.034958    1.782197
    134          1           0      -24.148138    1.553927    0.977240
    135          1           0      -23.687398   -0.108708    0.512933
    136          1           0      -30.195523   -6.034849    2.963340
    137          1           0      -30.428297   -4.934815    4.392287
    138          1           0      -29.030590   -4.809015    3.367448
    139          1           0      -35.141587   -4.442981    2.081537
    140          1           0      -35.058417   -3.162080    3.307826
    141          1           0      -35.338934   -4.910456    3.659350
    142          1           0      -35.420134    0.267996    0.594467
    143          1           0      -35.024566    0.466430   -2.420504
    144          1           0      -35.798947   -2.360384   -0.255434
    145          1           0      -36.371321   -1.549089   -1.749719
    146          1           0      -37.057946   -1.014283   -0.363707
    147          1           0      -36.471026    2.138386   -0.670201
    148          1           0      -35.766440    2.550073   -2.253476
    149          1           0      -35.595095    3.874601   -0.071316
    150          1           0      -34.270984    4.159245   -1.225074
    151          1           0      -34.048930    2.982344    0.151772
    152          1           0      -30.004060    4.105326   -4.557673
    153          1           0      -29.946254    4.970081   -3.057954
    154          1           0      -31.594242    4.393166   -3.572956
    155          1           0      -25.940952    1.799919   -1.823078
    156          1           0      -23.514901    4.730117    0.235973
    157          1           0      -24.585657    4.063637    1.465110
    158          1           0      -25.185210    5.350291    0.338530
 ---------------------------------------------------------------------

 SCF Done:  E(RCAM-B3LYP) =  -4069.75069230     A.U. after   19 cycles

 Excitation energies and oscillator strengths:

 Excited State   1:      Singlet-A      1.6721 eV  741.50 nm  f=0.4030  <S**2>=0.000
     309 -> 316        0.15726
     311 -> 313        0.68845
 This state for optimization and/or second-order correction.
 Total Energy, E(TD-HF/TD-DFT) =  -4069.68924487
 Copying the excited state density for this state as the 1-particle RhoCI density.

 Excited State   2:      Singlet-A      1.6842 eV  736.15 nm  f=0.3607  <S**2>=0.000
     310 -> 315        0.19722
     312 -> 314        0.68017
     310 <- 315        0.11212

 Excited State   3:      Singlet-A      2.1913 eV  565.81 nm  f=0.1292  <S**2>=0.000
     309 -> 313        0.64437
     311 -> 316       -0.25726

 Excited State   4:      Singlet-A      2.1915 eV  565.74 nm  f=0.0537  <S**2>=0.000
     310 -> 314        0.61350
     312 -> 315       -0.33895

 Excited State   5:      Singlet-A      3.0474 eV  406.85 nm  f=0.0000  <S**2>=0.000
     312 -> 313        0.70711

 The electronic state is 1-A.
 Alpha  occ. eigenvalues --  -46.91329 -46.87940 -19.24741 -19.22182 -19.21433
 Alpha  occ. eigenvalues --  -19.19598 -19.18941 -19.18869 -19.17964 -19.17600
 Alpha  occ. eigenvalues --  -14.42572 -14.42435 -14.42008 -14.41971 -14.40283
 Alpha  occ. eigenvalues --  -14.40271 -14.39789 -14.38595 -10.40623 -10.38120
 Alpha  occ. eigenvalues --  -10.35345 -10.34591 -10.34216 -10.34153 -10.31858
 Alpha  occ. eigenvalues --  -10.31840 -10.31455 -10.31431 -10.31335 -10.31299
 Alpha  occ. eigenvalues --  -10.31085 -10.31061 -10.31044 -10.31002 -10.30859
 Alpha  occ. eigenvalues --  -10.30772 -10.30631 -10.30480 -10.30291 -10.30109
 Alpha  occ. eigenvalues --  -10.29542 -10.29495 -10.29420 -10.29300 -10.29249
 Alpha  occ. eigenvalues --  -10.28807 -10.28570 -10.28547 -10.28442 -10.28402
 Alpha  occ. eigenvalues --  -10.28267 -10.28262 -10.28233 -10.28174 -10.27937
 Alpha  occ. eigenvalues --  -10.27872 -10.27764 -10.27725 -10.27692 -10.27634
 Alpha  occ. eigenvalues --  -10.27623 -10.27584 -10.27482 -10.27383 -10.27322
 Alpha  occ. eigenvalues --  -10.27192 -10.27174 -10.27133 -10.27122 -10.26807
 Alpha  occ. eigenvalues --  -10.26550 -10.26502 -10.26493 -10.26470 -10.26391
 Alpha  occ. eigenvalues --  -10.26264 -10.26198 -10.25993 -10.25891 -10.25835
 Alpha  occ. eigenvalues --  -10.25796 -10.25694 -10.25336 -10.25299 -10.25005
 Alpha  occ. eigenvalues --  -10.24500  -3.19528  -3.16701  -1.94370  -1.94036
 Alpha  occ. eigenvalues --   -1.93784  -1.91570  -1.91167  -1.91019  -1.16789
 Alpha  occ. eigenvalues --   -1.15851  -1.09630  -1.09574  -1.09384  -1.08682
 Alpha  occ. eigenvalues --   -1.08129  -1.07730  -1.04646  -1.04230  -1.03477
 Alpha  occ. eigenvalues --   -1.03446  -1.02865  -1.02078  -1.01303  -1.00639
 Alpha  occ. eigenvalues --   -0.94408  -0.92603  -0.89200  -0.89200  -0.88748
 Alpha  occ. eigenvalues --   -0.88632  -0.88514  -0.87827  -0.87363  -0.87294
 Alpha  occ. eigenvalues --   -0.87215  -0.86876  -0.86689  -0.85600  -0.84807
 Alpha  occ. eigenvalues --   -0.84238  -0.83688  -0.83477  -0.82730  -0.82420
 Alpha  occ. eigenvalues --   -0.81906  -0.81669  -0.80884  -0.80881  -0.80300
 Alpha  occ. eigenvalues --   -0.80239  -0.78791  -0.78064  -0.77418  -0.77298
 Alpha  occ. eigenvalues --   -0.76905  -0.76708  -0.76031  -0.75275  -0.75247
 Alpha  occ. eigenvalues --   -0.75232  -0.73081  -0.72774  -0.71867  -0.71703
 Alpha  occ. eigenvalues --   -0.69943  -0.69343  -0.68741  -0.68705  -0.67960
 Alpha  occ. eigenvalues --   -0.67565  -0.67346  -0.66895  -0.65685  -0.65370
 Alpha  occ. eigenvalues --   -0.65318  -0.65011  -0.64995  -0.64739  -0.64571
 Alpha  occ. eigenvalues --   -0.63901  -0.62241  -0.60872  -0.60202  -0.59959
 Alpha  occ. eigenvalues --   -0.59795  -0.59416  -0.59299  -0.59014  -0.58929
 Alpha  occ. eigenvalues --   -0.58474  -0.58309  -0.58287  -0.57710  -0.57062
 Alpha  occ. eigenvalues --   -0.56519  -0.56228  -0.55985  -0.55666  -0.55589
 Alpha  occ. eigenvalues --   -0.55300  -0.54975  -0.54586  -0.53941  -0.53704
 Alpha  occ. eigenvalues --   -0.53642  -0.53418  -0.53279  -0.53061  -0.53009
 Alpha  occ. eigenvalues --   -0.52685  -0.52668  -0.52294  -0.52207  -0.52167
 Alpha  occ. eigenvalues --   -0.51988  -0.51696  -0.51617  -0.51418  -0.51378
 Alpha  occ. eigenvalues --   -0.51332  -0.51202  -0.50769  -0.50579  -0.50572
 Alpha  occ. eigenvalues --   -0.50208  -0.50141  -0.50019  -0.49994  -0.49803
 Alpha  occ. eigenvalues --   -0.49637  -0.49430  -0.49253  -0.48981  -0.48975
 Alpha  occ. eigenvalues --   -0.48601  -0.48550  -0.48503  -0.48290  -0.48092
 Alpha  occ. eigenvalues --   -0.48033  -0.47784  -0.47496  -0.47293  -0.47193
 Alpha  occ. eigenvalues --   -0.46964  -0.46875  -0.46846  -0.46503  -0.46156
 Alpha  occ. eigenvalues --   -0.46119  -0.46008  -0.45971  -0.45928  -0.45893
 Alpha  occ. eigenvalues --   -0.45462  -0.45416  -0.45327  -0.45289  -0.45172
 Alpha  occ. eigenvalues --   -0.44989  -0.44649  -0.44595  -0.44474  -0.44173
 Alpha  occ. eigenvalues --   -0.44163  -0.43819  -0.43677  -0.43527  -0.43501
 Alpha  occ. eigenvalues --   -0.43347  -0.43331  -0.43073  -0.43029  -0.42923
 Alpha  occ. eigenvalues --   -0.42523  -0.42357  -0.42066  -0.41996  -0.41665
 Alpha  occ. eigenvalues --   -0.41627  -0.41432  -0.41323  -0.41189  -0.41038
 Alpha  occ. eigenvalues --   -0.41037  -0.41003  -0.40648  -0.40451  -0.40146
 Alpha  occ. eigenvalues --   -0.40110  -0.39904  -0.39196  -0.39077  -0.38723
 Alpha  occ. eigenvalues --   -0.38586  -0.38292  -0.37950  -0.37833  -0.37699
 Alpha  occ. eigenvalues --   -0.37662  -0.37086  -0.36543  -0.36352  -0.36133
 Alpha  occ. eigenvalues --   -0.35798  -0.35244  -0.34932  -0.34470  -0.34243
 Alpha  occ. eigenvalues --   -0.34097  -0.33372  -0.33197  -0.31559  -0.31491
 Alpha  occ. eigenvalues --   -0.31446  -0.30836  -0.30593  -0.30240  -0.30043
 Alpha  occ. eigenvalues --   -0.29790  -0.29504  -0.29287  -0.24391  -0.24075
 Alpha  occ. eigenvalues --   -0.21477  -0.21063
 Alpha virt. eigenvalues --   -0.09297  -0.08557  -0.02641  -0.02186  -0.00631
 Alpha virt. eigenvalues --   -0.00250   0.00107   0.01926   0.02144   0.02402
 Alpha virt. eigenvalues --    0.04679   0.05107   0.05140   0.05340   0.05867

 Mulliken charges:
               1
     1  Mg  12.003362
     2  C    5.985773
     3  C    6.017440
     4  C    6.021933
     5  C    5.988319
     6  N    6.994923
     7  C    6.027359
     8  C    5.986782
     9  C    6.009584
    10  C    5.971993
    11  C    6.001550
    12  C    5.998718
    13  C    5.996304
    14  H    1.009043
    15  N    7.005328
    16  C    5.958111
    17  C    5.971491
    18  C    5.985908
    19  C    5.963847
    20  C    6.003873
    21  C    5.989040
    22  O    7.970047
    23  C    6.007334
    24  N    7.001964
    25  C    5.960765
    26  C    6.016038
    27  C    5.986346
    28  C    6.032395
    29  C    6.003012
    30  C    5.993624
    31  C    6.000676
    32  N    6.998024
    33  C    6.042271
    34  C    6.028327
    35  C    6.006520
    36  C    6.029111
    37  C    5.997881
    38  C    6.015692
    39  O    8.034491
    40  C    5.999918
    41  C    6.000723
    42  O    8.008132
    43  O    7.999510
    44  C    5.997417
    45  H    0.991744
    46  H    0.993309
    47  H    1.010238
    48  H    1.003068
    49  H    0.999713
    50  H    1.002905
    51  H    0.999670
    52  H    0.986201
    53  H    1.010113
    54  H    0.997011
    55  H    0.996859
    56  H    0.997831
    57  H    0.978673
    58  H    0.984297
    59  H    0.978890
    60  H    0.985551
    61  H    0.989565
    62  H    0.991925
    63  H    0.995929
    64  H    1.003319
    65  H    0.987854
    66  H    1.001074
    67  H    1.001152
    68  H    1.000462
    69  H    1.012289
    70  H    0.994373
    71  H    1.005335
    72  H    1.000035
    73  H    1.019715
    74  H    1.020073
    75  H    1.014622
    76  H    1.011632
    77  H    1.002247
    78  H    1.006468
    79  H    1.004959
    80  Mg  11.999968
    81  C    5.999748
    82  C    6.000219
    83  C    6.000217
    84  C    5.999763
    85  N    6.999967
    86  C    6.000313
    87  C    5.999952
    88  C    6.000020
    89  C    5.999656
    90  C    6.000027
    91  C    5.999947
    92  C    5.999972
    93  H    1.000106
    94  N    7.000145
    95  C    5.999389
    96  C    5.999802
    97  C    5.999822
    98  C    5.999532
    99  C    6.000105
   100  C    5.999880
   101  O    7.999717
   102  C    6.000061
   103  N    6.999951
   104  C    5.999631
   105  C    6.000158
   106  C    5.999832
   107  C    6.000431
   108  C    6.000044
   109  C    6.000012
   110  C    5.999893
   111  N    6.999954
   112  C    6.000620
   113  C    6.000283
   114  C    6.000061
   115  C    6.000382
   116  C    5.999985
   117  C    6.000232
   118  O    8.000393
   119  C    5.999975
   120  C    6.000022
   121  O    8.000061
   122  O    8.000021
   123  C    5.999959
   124  H    0.999885
   125  H    0.999952
   126  H    1.000113
   127  H    0.999994
   128  H    0.999992
   129  H    0.999830
   130  H    1.000015
   131  H    0.999968
   132  H    1.000151
   133  H    0.999974
   134  H    0.999948
   135  H    1.000037
   136  H    0.999731
   137  H    0.999792
   138  H    0.999773
   139  H    0.999854
   140  H    0.999862
   141  H    0.999837
   142  H    0.999987
   143  H    1.000057
   144  H    1.000096
   145  H    0.999910
   146  H    0.999930
   147  H    1.000118
   148  H    1.000004
   149  H    1.000109
   150  H    0.999965
   151  H    1.000030
   152  H    1.000215
   153  H    1.000180
   154  H    1.000190
   155  H    1.000118
   156  H    1.000085
   157  H    1.000074
   158  H    0.999997
 Sum of Mulliken charges = 624.00000

 Dipole moment (field-independent basis, Debye):
    X=              4.7917    Y=            -10.1718    Z=             -0.8199  Tot=             11.2737
 Quadrupole moment (field-independent basis, Debye-Ang):
   XX=            284.0339   YY=            -10.5201   ZZ=              1.5050
   XY=           -308.2207   XZ=            -17.9393   YZ=             -4.2490

 Normal termination of Gaussian 16 at Thu Sep 23 09:20:58 2021.
