 Gaussian 16, Revision A.03,
 Gaussian 16:  ES64L-G16RevA.03 25-Dec-2016

 ----------------------------------------------------------
 #p cam-b3lyp/Def2SVP td=(nstates=5) density=(transition=1)
 ----------------------------------------------------------

 --------------------------------
 TDDFT excited states in gaussian
 --------------------------------
 Symbolic Z-matrix:
 Charge =  0 Multiplicity = 1

                         Standard orientation:
 ---------------------------------------------------------------------
 Center     Atomic      Atomic             Coordinates (Angstroms)
 Number     Number       Type             X           Y           Z
 ---------------------------------------------------------------------
      1         12           0      -29.303394   -0.212419    0.007319
      2          6           0      -26.058731    0.039347   -0.992065
      3          6           0      -28.184160   -2.102874    2.691110
      4          6           0      -32.444218   -0.135094    1.191314
      5          6           0      -30.233351    2.241073   -2.338172
      6          7           0      -27.293023   -0.725066    0.894771
      7          6           0      -26.131864   -0.526872    0.239176
      8          6           0      -24.951523   -0.966541    1.025855
      9          6           0      -25.708426   -2.015207    2.055369
     10          6           0      -27.188043   -1.608294    1.892026
     11          6           0      -25.395002   -3.507009    1.737114
     12          6           0      -24.345409    0.224402    1.751143
     13          6           0      -25.269733    1.108118    2.710522
     14          1           0      -24.729011    1.629547    4.036089
     15          7           0      -30.195952   -0.997692    1.692009
     16          6           0      -29.593310   -1.877136    2.626717
     17          6           0      -30.636778   -2.387767    3.451690
     18          6           0      -31.857923   -1.824308    3.102887
     19          6           0      -31.585876   -0.970891    1.934020
     20          6           0      -30.267777   -3.388431    4.527934
     21          6           0      -33.181498   -1.982952    3.812259
     22          8           0      -33.168706   -2.722782    4.827496
     23          6           0      -34.362042   -1.225126    3.565175
     24          7           0      -31.027484    1.075075   -0.383997
     25          6           0      -32.231887    0.840068    0.211394
     26          6           0      -33.320165    1.800124   -0.325863
     27          6           0      -32.567681    2.558889   -1.470428
     28          6           0      -31.165567    1.985340   -1.354156
     29          6           0      -34.581716    1.093463   -0.773829
     30          6           0      -32.644076    4.164173   -1.258857
     31          6           0      -32.898366    4.953108   -2.548392
     32          7           0      -28.379554    0.977895   -1.455276
     33          6           0      -28.875815    1.757461   -2.450586
     34          6           0      -27.801894    1.983586   -3.379259
     35          6           0      -26.627315    1.299924   -2.909722
     36          6           0      -27.042814    0.729330   -1.717986
     37          6           0      -27.816419    2.983063   -4.484747
     38          6           0      -25.234675    1.029061   -3.068562
     39          8           0      -24.553432    1.404633   -4.030960
     40          6           0      -24.836828    0.187070   -1.870380
     41          6           0      -24.298646   -1.105531   -2.359599
     42          8           0      -23.353023   -1.103311   -3.122988
     43          8           0      -24.886462   -2.207036   -1.816703
     44          6           0      -24.347821   -3.489247   -2.274651
     45          1           0      -27.879343   -2.909582    3.360835
     46          1           0      -33.492989   -0.307267    1.441411
     47          1           0      -30.478824    2.862896   -3.201985
     48          1           0      -24.123357   -1.434893    0.493887
     49          1           0      -25.292114   -1.940683    3.060818
     50          1           0      -24.944668   -3.986112    2.605691
     51          1           0      -24.655083   -3.509014    0.936289
     52          1           0      -26.251601   -4.090281    1.396789
     53          1           0      -23.840016    0.830451    0.998943
     54          1           0      -23.480568   -0.224185    2.239791
     55          1           0      -26.198220    0.639081    3.036392
     56          1           0      -25.436922    1.992438    2.096292
     57          1           0      -29.954347   -2.789510    5.383217
     58          1           0      -29.411210   -3.970068    4.189508
     59          1           0      -31.048520   -4.088081    4.827818
     60          1           0      -34.966749   -1.111825    4.465503
     61          1           0      -34.927781   -1.567912    2.697880
     62          1           0      -34.005874   -0.209359    3.398972
     63          1           0      -33.504719    2.460091    0.522492
     64          1           0      -32.944571    2.222230   -2.436008
     65          1           0      -34.591509    0.024984   -0.560179
     66          1           0      -34.987305    1.239502   -1.774601
     67          1           0      -35.313588    1.437495   -0.042419
     68          1           0      -31.744819    4.594618   -0.818103
     69          1           0      -33.397151    4.444503   -0.522597
     70          1           0      -33.921801    5.326004   -2.518484
     71          1           0      -32.863681    4.255678   -3.385615
     72          1           0      -32.209397    5.787565   -2.680084
     73          1           0      -28.463096    2.781433   -5.337860
     74          1           0      -26.777698    3.063995   -4.807287
     75          1           0      -28.149706    3.964228   -4.146439
     76          1           0      -24.043503    0.737978   -1.364326
     77          1           0      -23.280771   -3.500113   -2.050573
     78          1           0      -24.557240   -3.698145   -3.323871
     79          1           0      -24.889237   -4.317965   -1.818604
     80         12           0       28.563531    0.548940    0.555858
     81          6           0       28.895195   -2.621552   -0.884152
     82          6           0       26.914711    1.599535   -2.079932
     83          6           0       28.932620    3.779670    1.664892
     84          6           0       30.762835   -0.434877    3.136687
     85          7           0       27.918865   -0.457593   -1.179834
     86          6           0       28.078124   -1.763329   -1.588994
     87          6           0       27.243456   -2.074503   -2.824595
     88          6           0       26.820477   -0.642441   -3.284398
     89          6           0       27.133586    0.192687   -2.091963
     90          6           0       27.328628   -0.098009   -4.601931
     91          6           0       26.080197   -3.091081   -2.592994
     92          6           0       25.252712   -3.430443   -3.837531
     93          1           0       25.079825   -4.911532   -4.140821
     94          7           0       28.022520    2.529786   -0.189108
     95          6           0       27.204113    2.706457   -1.247275
     96          6           0       26.852427    4.095896   -1.345960
     97          6           0       27.529767    4.765910   -0.312610
     98          6           0       28.215523    3.676624    0.434420
     99          6           0       25.967821    4.667252   -2.433890
    100          6           0       27.505980    6.210227    0.067315
    101          8           0       28.248871    6.768968    0.918068
    102          6           0       26.485047    7.149911   -0.562497
    103          7           0       29.692034    1.508247    2.124540
    104          6           0       29.719369    2.847387    2.318453
    105          6           0       30.479366    3.178811    3.713404
    106          6           0       30.621191    1.752684    4.352177
    107          6           0       30.286352    0.863635    3.197774
    108          6           0       31.840442    3.913081    3.396149
    109          6           0       29.514186    1.516414    5.443613
    110          6           0       28.056355    1.771037    5.093395
    111          7           0       29.619779   -1.230191    1.115838
    112          6           0       30.447652   -1.429370    2.186365
    113          6           0       30.882092   -2.747219    2.124614
    114          6           0       30.352863   -3.325930    0.935277
    115          6           0       29.585015   -2.354411    0.348956
    116          6           0       31.829832   -3.463830    3.020486
    117          6           0       30.278103   -4.510989    0.050952
    118          8           0       30.811479   -5.614375    0.070944
    119          6           0       29.229190   -4.112913   -1.126265
    120          6           0       29.763637   -4.507400   -2.456876
    121          8           0       30.985550   -4.462055   -2.788254
    122          8           0       28.760823   -5.058206   -3.127524
    123          6           0       29.179724   -5.902855   -4.229686
    124          1           0       26.266641    1.974009   -2.875213
    125          1           0       29.030189    4.796952    2.051421
    126          1           0       31.332733   -0.739183    4.015971
    127          1           0       27.932722   -2.607568   -3.479742
    128          1           0       25.740847   -0.532210   -3.391774
    129          1           0       27.695365   -0.825146   -5.326388
    130          1           0       28.097950    0.649130   -4.405086
    131          1           0       26.561449    0.577115   -4.981585
    132          1           0       25.428475   -2.726604   -1.798529
    133          1           0       26.494494   -4.019391   -2.201033
    134          1           0       25.819078   -3.251099   -4.751233
    135          1           0       24.302596   -2.895425   -3.839994
    136          1           0       25.706604    3.966845   -3.227084
    137          1           0       26.423193    5.431567   -3.063147
    138          1           0       25.032124    5.083071   -2.058902
    139          1           0       26.751112    7.275760   -1.611641
    140          1           0       26.620650    8.179745   -0.232888
    141          1           0       25.452617    6.855910   -0.369983
    142          1           0       29.877447    3.872063    4.300959
    143          1           0       31.671834    1.675409    4.631886
    144          1           0       31.910567    4.275595    2.370441
    145          1           0       32.724892    3.289356    3.526846
    146          1           0       31.991844    4.820811    3.978508
    147          1           0       29.871560    2.216803    6.198560
    148          1           0       29.522492    0.523973    5.893258
    149          1           0       27.985946    2.300611    4.143050
    150          1           0       27.446841    2.240639    5.864684
    151          1           0       27.648666    0.760895    5.053816
    152          1           0       31.559764   -3.433975    4.076375
    153          1           0       32.772542   -2.927204    2.917549
    154          1           0       31.995228   -4.496511    2.715097
    155          1           0       28.360292   -4.735610   -0.914840
    156          1           0       28.589435   -6.819952   -4.242337
    157          1           0       30.215081   -6.242340   -4.211934
    158          1           0       28.973713   -5.332735   -5.136156
 ---------------------------------------------------------------------

 SCF Done:  E(RCAM-B3LYP) =  -4069.81957886     A.U. after   18 cycles

 Excitation energies and oscillator strengths:

 Excited State   1:      Singlet-A      1.7145 eV  723.17 nm  f=0.3899  <S**2>=0.000
     310 -> 316       -0.16595
     311 -> 313        0.68902
     310 <- 316       -0.10309
 This state for optimization and/or second-order correction.
 Total Energy, E(TD-HF/TD-DFT) =  -4069.75657351
 Copying the excited state density for this state as the 1-particle RhoCI density.

 Excited State   2:      Singlet-A      1.7418 eV  711.80 nm  f=0.3945  <S**2>=0.000
     309 -> 315       -0.17693
     312 -> 314        0.68526
     309 <- 315       -0.10391

 Excited State   3:      Singlet-A      2.1453 eV  577.92 nm  f=0.1693  <S**2>=0.000
     310 -> 313        0.66339
     311 -> 316        0.22678

 Excited State   4:      Singlet-A      2.2176 eV  559.10 nm  f=0.1295  <S**2>=0.000
     309 -> 314        0.65047
     312 -> 315        0.25335

 Excited State   5:      Singlet-A      3.1909 eV  388.56 nm  f=0.0000  <S**2>=0.000
     312 -> 313        0.70711

 The electronic state is 1-A.
 Alpha  occ. eigenvalues --  -46.89383 -46.89139 -19.26663 -19.26426 -19.19511
 Alpha  occ. eigenvalues --  -19.19112 -19.19052 -19.18455 -19.18310 -19.18191
 Alpha  occ. eigenvalues --  -14.42904 -14.42110 -14.42092 -14.41827 -14.39820
 Alpha  occ. eigenvalues --  -14.39765 -14.38636 -14.38027 -10.39500 -10.39241
 Alpha  occ. eigenvalues --  -10.35759 -10.34866 -10.34828 -10.34480 -10.32776
 Alpha  occ. eigenvalues --  -10.32121 -10.32021 -10.31709 -10.31248 -10.31218
 Alpha  occ. eigenvalues --  -10.31093 -10.31017 -10.30785 -10.30630 -10.30550
 Alpha  occ. eigenvalues --  -10.30418 -10.30242 -10.30099 -10.29767 -10.29254
 Alpha  occ. eigenvalues --  -10.29231 -10.29078 -10.28592 -10.28526 -10.28487
 Alpha  occ. eigenvalues --  -10.28404 -10.28374 -10.28316 -10.28309 -10.28306
 Alpha  occ. eigenvalues --  -10.28252 -10.28238 -10.28220 -10.28174 -10.28054
 Alpha  occ. eigenvalues --  -10.27884 -10.27867 -10.27790 -10.27768 -10.27762
 Alpha  occ. eigenvalues --  -10.27705 -10.27429 -10.27391 -10.27323 -10.27262
 Alpha  occ. eigenvalues --  -10.27206 -10.27072 -10.27024 -10.26802 -10.26573
 Alpha  occ. eigenvalues --  -10.26502 -10.26495 -10.26489 -10.26481 -10.26474
 Alpha  occ. eigenvalues --  -10.26373 -10.26148 -10.26127 -10.25670 -10.25646
 Alpha  occ. eigenvalues --  -10.25584 -10.25421 -10.25003 -10.24890 -10.24582
 Alpha  occ. eigenvalues --  -10.24276  -3.17771  -3.17592  -1.92680  -1.92468
 Alpha  occ. eigenvalues --   -1.92196  -1.92086  -1.92067  -1.91874  -1.18100
 Alpha  occ. eigenvalues --   -1.17450  -1.09085  -1.08798  -1.08427  -1.08373
 Alpha  occ. eigenvalues --   -1.08026  -1.05923  -1.05414  -1.05015  -1.04573
 Alpha  occ. eigenvalues --   -1.04365  -1.03340  -1.02762  -1.02462  -1.01546
 Alpha  occ. eigenvalues --   -0.94103  -0.91858  -0.89601  -0.89313  -0.89287
 Alpha  occ. eigenvalues --   -0.89075  -0.88782  -0.88408  -0.87989  -0.87823
 Alpha  occ. eigenvalues --   -0.87142  -0.86357  -0.85877  -0.85684  -0.85131
 Alpha  occ. eigenvalues --   -0.84806  -0.84160  -0.83766  -0.83383  -0.82913
 Alpha  occ. eigenvalues --   -0.82835  -0.81860  -0.81491  -0.81339  -0.80932
 Alpha  occ. eigenvalues --   -0.80673  -0.78884  -0.78657  -0.78024  -0.77589
 Alpha  occ. eigenvalues --   -0.77360  -0.77091  -0.76197  -0.76128  -0.75238
 Alpha  occ. eigenvalues --   -0.74990  -0.72753  -0.72545  -0.72157  -0.71751
 Alpha  occ. eigenvalues --   -0.70182  -0.69913  -0.69185  -0.69154  -0.68876
 Alpha  occ. eigenvalues --   -0.68353  -0.67687  -0.67161  -0.66591  -0.65534
 Alpha  occ. eigenvalues --   -0.65369  -0.65249  -0.65205  -0.64681  -0.64566
 Alpha  occ. eigenvalues --   -0.64424  -0.63859  -0.62743  -0.61020  -0.60274
 Alpha  occ. eigenvalues --   -0.59781  -0.59767  -0.59372  -0.59251  -0.58860
 Alpha  occ. eigenvalues --   -0.58536  -0.58419  -0.58054  -0.57615  -0.57231
 Alpha  occ. eigenvalues --   -0.56875  -0.56618  -0.56211  -0.56037  -0.55837
 Alpha  occ. eigenvalues --   -0.55804  -0.55467  -0.55321  -0.55191  -0.54553
 Alpha  occ. eigenvalues --   -0.54399  -0.54285  -0.53787  -0.53514  -0.53277
 Alpha  occ. eigenvalues --   -0.53142  -0.53106  -0.52930  -0.52539  -0.52517
 Alpha  occ. eigenvalues --   -0.51920  -0.51857  -0.51721  -0.51578  -0.51466
 Alpha  occ. eigenvalues --   -0.51112  -0.50981  -0.50951  -0.50568  -0.50453
 Alpha  occ. eigenvalues --   -0.50363  -0.50115  -0.49631  -0.49528  -0.49502
 Alpha  occ. eigenvalues --   -0.49150  -0.49110  -0.48858  -0.48785  -0.48717
 Alpha  occ. eigenvalues --   -0.48583  -0.48509  -0.48492  -0.48362  -0.48192
 Alpha  occ. eigenvalues --   -0.48107  -0.47660  -0.47244  -0.47204  -0.47128
 Alpha  occ. eigenvalues --   -0.46767  -0.46756  -0.46498  -0.46460  -0.46438
 Alpha  occ. eigenvalues --   -0.46387  -0.46084  -0.45964  -0.45859  -0.45768
 Alpha  occ. eigenvalues --   -0.45674  -0.45445  -0.45265  -0.45184  -0.44891
 Alpha  occ. eigenvalues --   -0.44736  -0.44690  -0.44652  -0.44572  -0.44459
 Alpha  occ. eigenvalues --   -0.44285  -0.43864  -0.43764  -0.43728  -0.43581
 Alpha  occ. eigenvalues --   -0.43421  -0.43209  -0.42880  -0.42845  -0.42588
 Alpha  occ. eigenvalues --   -0.42472  -0.42358  -0.42335  -0.42278  -0.42077
 Alpha  occ. eigenvalues --   -0.41936  -0.41815  -0.41771  -0.41441  -0.41306
 Alpha  occ. eigenvalues --   -0.41239  -0.41184  -0.40992  -0.40869  -0.40512
 Alpha  occ. eigenvalues --   -0.40502  -0.39612  -0.39558  -0.39255  -0.39225
 Alpha  occ. eigenvalues --   -0.38712  -0.38675  -0.37900  -0.37862  -0.37727
 Alpha  occ. eigenvalues --   -0.37551  -0.37310  -0.36923  -0.36921  -0.36579
 Alpha  occ. eigenvalues --   -0.36301  -0.36000  -0.34727  -0.34083  -0.34025
 Alpha  occ. eigenvalues --   -0.33954  -0.33137  -0.32909  -0.31953  -0.31811
 Alpha  occ. eigenvalues --   -0.31157  -0.30908  -0.30795  -0.30475  -0.30131
 Alpha  occ. eigenvalues --   -0.30107  -0.29019  -0.28512  -0.24328  -0.24071
 Alpha  occ. eigenvalues --   -0.21775  -0.21698
 Alpha virt. eigenvalues --   -0.09376  -0.09171  -0.01913  -0.01292  -0.00032
 Alpha virt. eigenvalues --    0.00119   0.01315   0.01791   0.01984   0.02499
 Alpha virt. eigenvalues --    0.04439   0.04654   0.04956   0.05479   0.05678

 Mulliken charges:
               1
     1  Mg  11.999989
     2  C    6.000096
     3  C    5.999936
     4  C    5.999814
     5  C    6.000055
     6  N    6.999986
     7  C    5.999787
     8  C    6.000102
     9  C    5.999901
    10  C    6.000162
    11  C    5.999975
    12  C    6.000053
    13  C    6.000030
    14  H    0.999934
    15  N    6.999964
    16  C    6.000302
    17  C    6.000155
    18  C    6.000042
    19  C    6.000370
    20  C    5.999928
    21  C    6.000116
    22  O    8.000175
    23  C    5.999951
    24  N    7.000027
    25  C    6.000218
    26  C    5.999925
    27  C    6.000065
    28  C    5.999847
    29  C    5.999991
    30  C    6.000028
    31  C    6.000011
    32  N    6.999957
    33  C    5.999797
    34  C    5.999753
    35  C    6.000015
    36  C    5.999809
    37  C    6.000073
    38  C    5.999810
    39  O    7.999773
    40  C    5.999995
    41  C    5.999966
    42  O    7.999953
    43  O    8.000006
    44  C    6.000020
    45  H    1.000076
    46  H    1.000088
    47  H    0.999966
    48  H    0.999986
    49  H    1.000028
    50  H    1.000019
    51  H    1.000096
    52  H    0.999994
    53  H    1.000026
    54  H    0.999931
    55  H    0.999900
    56  H    1.000045
    57  H    1.000167
    58  H    1.000147
    59  H    1.000142
    60  H    1.000110
    61  H    1.000095
    62  H    1.000044
    63  H    1.000011
    64  H    1.000004
    65  H    0.999978
    66  H    1.000077
    67  H    1.000014
    68  H    0.999994
    69  H    0.999932
    70  H    0.999971
    71  H    1.000017
    72  H    1.000001
    73  H    0.999808
    74  H    0.999873
    75  H    0.999797
    76  H    0.999909
    77  H    0.999958
    78  H    0.999987
    79  H    0.999945
    80  Mg  11.993786
    81  C    6.026909
    82  C    5.988923
    83  C    5.971727
    84  C    6.005322
    85  N    7.017961
    86  C    5.961544
    87  C    6.009462
    88  C    5.990511
    89  C    6.037302
    90  C    5.998252
    91  C    6.002979
    92  C    5.997214
    93  H    1.002865
    94  N    6.989587
    95  C    6.043287
    96  C    6.016825
    97  C    6.020988
    98  C    6.036106
    99  C    5.993556
   100  C    6.010267
   101  O    8.034063
   102  C    5.993325
   103  N    6.992085
   104  C    6.031872
   105  C    5.995414
   106  C    6.012689
   107  C    5.970096
   108  C    5.997914
   109  C    6.010665
   110  C    6.002584
   111  N    7.004939
   112  C    5.963890
   113  C    5.968456
   114  C    6.000277
   115  C    5.960903
   116  C    6.002591
   117  C    5.986863
   118  O    7.973291
   119  C    5.994100
   120  C    5.994044
   121  O    7.998625
   122  O    7.997797
   123  C    6.002140
   124  H    1.010246
   125  H    1.001721
   126  H    0.985052
   127  H    1.002151
   128  H    1.002896
   129  H    1.015516
   130  H    0.999713
   131  H    0.999136
   132  H    0.993770
   133  H    1.007381
   134  H    0.996990
   135  H    0.994291
   136  H    1.018052
   137  H    1.019786
   138  H    1.019664
   139  H    1.007534
   140  H    1.015334
   141  H    1.008892
   142  H    0.998020
   143  H    0.996930
   144  H    0.993376
   145  H    1.011026
   146  H    1.000063
   147  H    0.987927
   148  H    1.002371
   149  H    0.983589
   150  H    0.994171
   151  H    1.005298
   152  H    0.978395
   153  H    0.978254
   154  H    0.983655
   155  H    0.995324
   156  H    0.996744
   157  H    0.999382
   158  H    0.993352
 Sum of Mulliken charges = 624.00000

 Dipole moment (field-independent basis, Debye):
    X=             -4.6091    Y=              9.1207    Z=             -3.9388  Tot=             10.9520
 Quadrupole moment (field-independent basis, Debye-Ang):
   XX=           -261.0505   YY=             14.6027   ZZ=             -5.5313
   XY=            262.7984   XZ=           -118.6088   YZ=             -1.1122

 Normal termination of Gaussian 16 at Wed Sep 22 17:42:14 2021.
