 Gaussian 16, Revision A.03,
 Gaussian 16:  ES64L-G16RevA.03 25-Dec-2016

 -----------------------------------
 #p cam-b3lyp/Def2SVP td=(nstates=5)
 -----------------------------------

 --------------------------------
 TDDFT excited states in gaussian
 --------------------------------
 Symbolic Z-matrix:
 Charge =  0 Multiplicity = 1

                         Standard orientation:
 ---------------------------------------------------------------------
 Center     Atomic      Atomic             Coordinates (Angstroms)
 Number     Number       Type             X           Y           Z
 ---------------------------------------------------------------------
      1         12           0       -4.897553   -0.700331    0.192267
      2          6           0       -3.242401    2.272891    0.723626
      3          6           0       -7.879797    1.181892   -0.383704
      4          6           0       -6.620303   -3.487347    0.026902
      5          6           0       -1.999006   -2.494986    0.927914
      6          7           0       -5.404806    1.480546    0.184281
      7          6           0       -4.567243    2.500571    0.393120
      8          6           0       -5.335031    3.841988    0.156959
      9          6           0       -6.857199    3.410565   -0.062419
     10          6           0       -6.728096    1.875264   -0.037768
     11          6           0       -7.838970    3.763347    1.038405
     12          6           0       -4.751531    4.732824   -0.950106
     13          6           0       -4.535751    6.155142   -0.461082
     14          1           0       -4.557540    7.340627   -1.436924
     15          7           0       -6.950558   -1.079065   -0.212844
     16          6           0       -7.985055   -0.225133   -0.466151
     17          6           0       -9.171730   -0.899165   -0.753192
     18          6           0       -8.894073   -2.292399   -0.527049
     19          6           0       -7.420740   -2.348661   -0.230941
     20          6           0      -10.470028   -0.211149   -1.149336
     21          6           0       -9.853208   -3.471552   -0.529647
     22          8           0       -9.433482   -4.578277   -0.139340
     23          6           0      -11.280897   -3.316887   -0.863005
     24          7           0       -4.354155   -2.647783    0.411739
     25          6           0       -5.236730   -3.693974    0.237602
     26          6           0       -4.612157   -5.121530    0.458941
     27          6           0       -3.073369   -4.728123    0.465631
     28          6           0       -3.131076   -3.198586    0.632088
     29          6           0       -4.994599   -6.005237    1.711231
     30          6           0       -2.132930   -5.307853   -0.686254
     31          6           0       -2.244116   -4.621426   -2.021979
     32          7           0       -3.061060   -0.290694    0.843014
     33          6           0       -1.957310   -1.076543    1.114699
     34          6           0       -0.836719   -0.313267    1.485730
     35          6           0       -1.303195    0.993727    1.303598
     36          6           0       -2.671496    0.982049    0.904468
     37          6           0        0.464168   -0.925398    1.788945
     38          6           0       -0.865307    2.319486    1.515890
     39          8           0        0.207269    2.690958    1.996529
     40          6           0       -2.108599    3.275022    1.120729
     41          6           0       -2.447025    4.109123    2.260449
     42          8           0       -3.024928    3.764361    3.265816
     43          8           0       -1.930178    5.322934    2.114340
     44          6           0       -2.045830    6.262483    3.188436
     45          1           0       -8.795668    1.762904   -0.507014
     46          1           0       -7.056126   -4.488046    0.005224
     47          1           0       -1.115117   -3.095313    1.153522
     48          1           0       -5.237530    4.291512    1.144637
     49          1           0       -7.191904    3.978655   -0.931095
     50          1           0       -7.423246    4.379025    1.836599
     51          1           0       -8.184621    2.858745    1.538006
     52          1           0       -8.756069    4.160376    0.602159
     53          1           0       -5.333746    4.763495   -1.871242
     54          1           0       -3.801569    4.295309   -1.256216
     55          1           0       -3.513579    6.186134   -0.082111
     56          1           0       -5.289382    6.323638    0.307940
     57          1           0      -10.311828    0.840147   -1.390076
     58          1           0      -11.124137   -0.171001   -0.278064
     59          1           0      -11.002446   -0.783886   -1.907762
     60          1           0      -11.865880   -4.142082   -0.455300
     61          1           0      -11.360527   -3.387278   -1.948254
     62          1           0      -11.662252   -2.374838   -0.469776
     63          1           0       -4.683288   -5.747138   -0.431381
     64          1           0       -2.604161   -5.191730    1.332498
     65          1           0       -5.728821   -5.451064    2.294631
     66          1           0       -4.153282   -6.012800    2.405357
     67          1           0       -5.336340   -7.026383    1.539728
     68          1           0       -2.473482   -6.327728   -0.863411
     69          1           0       -1.086561   -5.404488   -0.399163
     70          1           0       -1.263311   -4.687713   -2.491564
     71          1           0       -2.611884   -3.599110   -2.100400
     72          1           0       -2.981419   -5.184492   -2.594226
     73          1           0        0.735899   -1.853395    1.286510
     74          1           0        0.736048   -0.975442    2.842617
     75          1           0        1.140843   -0.147836    1.435440
     76          1           0       -1.791336    3.903212    0.288592
     77          1           0       -2.960524    6.853144    3.126262
     78          1           0       -1.222433    6.968030    3.078979
     79          1           0       -2.038331    5.736292    4.143107
     80         12           0        5.131930   -0.672562   -0.295284
     81          6           0        2.931420    2.109620   -0.948762
     82          6           0        7.726266    1.673400   -0.043873
     83          6           0        7.130378   -3.177620    0.419407
     84          6           0        2.470814   -2.859186   -0.893838
     85          7           0        5.254479    1.675521   -0.515250
     86          6           0        4.232043    2.569809   -0.561338
     87          6           0        4.700328    3.985664   -0.267213
     88          6           0        6.325471    3.881141   -0.323033
     89          6           0        6.458862    2.330809   -0.319254
     90          6           0        6.989442    4.631836   -1.504469
     91          6           0        4.156875    4.531485    1.096356
     92          6           0        3.357125    5.854213    0.972012
     93          1           0        4.055394    7.120209    1.737631
     94          7           0        7.086605   -0.737836    0.122125
     95          6           0        8.067214    0.310376    0.164701
     96          6           0        9.424775   -0.167340    0.518726
     97          6           0        9.196574   -1.570609    0.701145
     98          6           0        7.782500   -1.869128    0.418895
     99          6           0       10.670654    0.716034    0.610436
    100          6           0       10.183123   -2.630996    1.011841
    101          8           0        9.915940   -3.767930    1.385675
    102          6           0       11.676774   -2.250713    1.001843
    103          7           0        4.785920   -2.666478   -0.084051
    104          6           0        5.790783   -3.528510    0.192862
    105          6           0        5.398602   -4.967597    0.004313
    106          6           0        3.897317   -4.910298   -0.371014
    107          6           0        3.650832   -3.385159   -0.406717
    108          6           0        6.283593   -5.746758   -0.945862
    109          6           0        2.983814   -5.627772    0.787351
    110          6           0        1.976041   -6.791455    0.269175
    111          7           0        3.164903   -0.474150   -1.077982
    112          6           0        2.183027   -1.489077   -1.178424
    113          6           0        0.917395   -0.848665   -1.554173
    114          6           0        1.169370    0.530453   -1.330067
    115          6           0        2.544695    0.705047   -1.168904
    116          6           0       -0.400212   -1.472284   -2.004559
    117          6           0        0.533735    1.864339   -1.523684
    118          8           0       -0.598809    2.274657   -1.901082
    119          6           0        1.657283    2.907078   -1.150557
    120          6           0        1.774687    3.899353   -2.269685
    121          8           0        1.787224    3.608269   -3.432227
    122          8           0        1.743102    5.167993   -1.760766
    123          6           0        1.511999    6.194880   -2.807977
    124          1           0        8.515466    2.424967   -0.109848
    125          1           0        7.742784   -4.053034    0.646685
    126          1           0        1.615938   -3.520480   -1.048286
    127          1           0        4.375368    4.590325   -1.113943
    128          1           0        6.797423    4.216623    0.600837
    129          1           0        7.465925    3.931448   -2.191043
    130          1           0        7.724820    5.348093   -1.135702
    131          1           0        6.334727    5.285053   -2.081370
    132          1           0        4.963908    4.729436    1.802251
    133          1           0        3.478733    3.822169    1.571546
    134          1           0        2.409802    5.833919    1.511408
    135          1           0        3.070849    6.130491   -0.042301
    136          1           0       10.511143    1.790836    0.702394
    137          1           0       11.409439    0.568728   -0.177281
    138          1           0       11.164880    0.403522    1.530868
    139          1           0       11.977035   -1.918269    0.008188
    140          1           0       12.313850   -3.062053    1.355541
    141          1           0       11.813800   -1.424625    1.699609
    142          1           0        5.565261   -5.486186    0.949417
    143          1           0        3.720498   -5.330800   -1.360533
    144          1           0        6.932916   -6.465289   -0.444916
    145          1           0        7.002697   -5.147723   -1.504445
    146          1           0        5.638828   -6.243058   -1.671462
    147          1           0        2.359262   -4.935317    1.350804
    148          1           0        3.587935   -6.114146    1.552782
    149          1           0        2.381575   -7.120368   -0.687824
    150          1           0        0.954129   -6.425531    0.161507
    151          1           0        2.044722   -7.682738    0.892327
    152          1           0       -1.262201   -0.881203   -1.695821
    153          1           0       -0.525965   -2.400658   -1.446198
    154          1           0       -0.231164   -1.682330   -3.060784
    155          1           0        1.265254    3.467154   -0.301977
    156          1           0        2.269501    6.048598   -3.577733
    157          1           0        1.756849    7.128932   -2.302551
    158          1           0        0.555723    6.217208   -3.330532
 ---------------------------------------------------------------------

 SCF Done:  E(RCAM-B3LYP) =  -4069.82516111     A.U. after   19 cycles

 Excitation energies and oscillator strengths:

 Excited State   1:      Singlet-A      1.6208 eV  764.98 nm  f=0.9391  <S**2>=0.000
     310 -> 315        0.10324
     311 -> 313        0.29016
     311 -> 314        0.41167
     312 -> 313        0.44235
     312 -> 314       -0.15619
 This state for optimization and/or second-order correction.
 Total Energy, E(TD-HF/TD-DFT) =  -4069.76559962
 Copying the excited state density for this state as the 1-particle RhoCI density.

 Excited State   2:      Singlet-A      1.7209 eV  720.46 nm  f=0.0345  <S**2>=0.000
     309 -> 315        0.10236
     310 -> 316        0.11455
     311 -> 313        0.45328
     312 -> 313       -0.12032
     312 -> 314        0.49770

 Excited State   3:      Singlet-A      2.1494 eV  576.84 nm  f=0.0319  <S**2>=0.000
     309 -> 313        0.26569
     309 -> 314        0.36089
     310 -> 313        0.45514
     311 -> 315       -0.20508
     312 -> 315       -0.12723

 Excited State   4:      Singlet-A      2.2053 eV  562.20 nm  f=0.2041  <S**2>=0.000
     309 -> 313        0.37552
     309 -> 314       -0.23086
     310 -> 313       -0.13887
     310 -> 314        0.45176
     311 -> 315       -0.11042
     312 -> 316       -0.20856

 Excited State   5:      Singlet-A      2.2996 eV  539.15 nm  f=0.0022  <S**2>=0.000
     311 -> 313       -0.37742
     311 -> 314        0.47670
     312 -> 314        0.33116

 The electronic state is 1-A.
 Alpha  occ. eigenvalues --  -46.88355 -46.87291 -19.25322 -19.24567 -19.19430
 Alpha  occ. eigenvalues --  -19.18838 -19.18793 -19.18687 -19.18299 -19.17947
 Alpha  occ. eigenvalues --  -14.42417 -14.41894 -14.41826 -14.41786 -14.40570
 Alpha  occ. eigenvalues --  -14.39351 -14.39099 -14.38608 -10.38462 -10.37939
 Alpha  occ. eigenvalues --  -10.35074 -10.35010 -10.34579 -10.34400 -10.31692
 Alpha  occ. eigenvalues --  -10.31619 -10.31472 -10.31342 -10.31190 -10.31048
 Alpha  occ. eigenvalues --  -10.30967 -10.30781 -10.30773 -10.30761 -10.30675
 Alpha  occ. eigenvalues --  -10.30563 -10.30395 -10.29888 -10.29802 -10.29008
 Alpha  occ. eigenvalues --  -10.28853 -10.28757 -10.28685 -10.28613 -10.28603
 Alpha  occ. eigenvalues --  -10.28520 -10.28408 -10.28375 -10.28133 -10.28111
 Alpha  occ. eigenvalues --  -10.28084 -10.28030 -10.27954 -10.27947 -10.27814
 Alpha  occ. eigenvalues --  -10.27693 -10.27660 -10.27471 -10.27461 -10.27451
 Alpha  occ. eigenvalues --  -10.27362 -10.27250 -10.27183 -10.27151 -10.27142
 Alpha  occ. eigenvalues --  -10.26886 -10.26871 -10.26831 -10.26702 -10.26432
 Alpha  occ. eigenvalues --  -10.26320 -10.26271 -10.26054 -10.26007 -10.25970
 Alpha  occ. eigenvalues --  -10.25962 -10.25950 -10.25872 -10.25833 -10.25695
 Alpha  occ. eigenvalues --  -10.25485 -10.25197 -10.24992 -10.24971 -10.24958
 Alpha  occ. eigenvalues --  -10.24208  -3.16998  -3.16077  -1.91894  -1.91453
 Alpha  occ. eigenvalues --   -1.91320  -1.90974  -1.90548  -1.90382  -1.17650
 Alpha  occ. eigenvalues --   -1.16642  -1.09855  -1.08905  -1.08389  -1.08214
 Alpha  occ. eigenvalues --   -1.07500  -1.07084  -1.04218  -1.03889  -1.03334
 Alpha  occ. eigenvalues --   -1.03043  -1.02971  -1.02424  -1.02159  -1.01839
 Alpha  occ. eigenvalues --   -0.91622  -0.91249  -0.88965  -0.88517  -0.88496
 Alpha  occ. eigenvalues --   -0.88455  -0.88084  -0.87640  -0.87342  -0.87255
 Alpha  occ. eigenvalues --   -0.87156  -0.86774  -0.86431  -0.85383  -0.84204
 Alpha  occ. eigenvalues --   -0.83660  -0.83649  -0.83104  -0.82712  -0.82093
 Alpha  occ. eigenvalues --   -0.81712  -0.81202  -0.80835  -0.80453  -0.80174
 Alpha  occ. eigenvalues --   -0.79586  -0.78912  -0.77994  -0.77128  -0.77024
 Alpha  occ. eigenvalues --   -0.76471  -0.76374  -0.75701  -0.75664  -0.75081
 Alpha  occ. eigenvalues --   -0.74930  -0.73045  -0.72355  -0.71241  -0.71141
 Alpha  occ. eigenvalues --   -0.69533  -0.69142  -0.68696  -0.68507  -0.67372
 Alpha  occ. eigenvalues --   -0.67113  -0.66773  -0.66679  -0.65898  -0.65293
 Alpha  occ. eigenvalues --   -0.64966  -0.64536  -0.64374  -0.64198  -0.64095
 Alpha  occ. eigenvalues --   -0.63799  -0.62136  -0.62066  -0.60693  -0.60114
 Alpha  occ. eigenvalues --   -0.59621  -0.59099  -0.58629  -0.58476  -0.58179
 Alpha  occ. eigenvalues --   -0.58138  -0.57959  -0.57645  -0.57335  -0.56801
 Alpha  occ. eigenvalues --   -0.56153  -0.56001  -0.55898  -0.55045  -0.54804
 Alpha  occ. eigenvalues --   -0.54746  -0.54533  -0.54364  -0.54102  -0.53619
 Alpha  occ. eigenvalues --   -0.53156  -0.53115  -0.52922  -0.52717  -0.52602
 Alpha  occ. eigenvalues --   -0.52530  -0.52226  -0.52160  -0.51978  -0.51644
 Alpha  occ. eigenvalues --   -0.51610  -0.51506  -0.51390  -0.51283  -0.50731
 Alpha  occ. eigenvalues --   -0.50363  -0.50323  -0.50041  -0.50005  -0.49876
 Alpha  occ. eigenvalues --   -0.49717  -0.49668  -0.49594  -0.49296  -0.49273
 Alpha  occ. eigenvalues --   -0.49069  -0.49039  -0.48921  -0.48851  -0.48584
 Alpha  occ. eigenvalues --   -0.48504  -0.48183  -0.48156  -0.48011  -0.47848
 Alpha  occ. eigenvalues --   -0.47754  -0.47531  -0.47409  -0.47307  -0.47042
 Alpha  occ. eigenvalues --   -0.46988  -0.46918  -0.46511  -0.46238  -0.46205
 Alpha  occ. eigenvalues --   -0.46068  -0.45884  -0.45757  -0.45511  -0.45365
 Alpha  occ. eigenvalues --   -0.45213  -0.45176  -0.44950  -0.44768  -0.44683
 Alpha  occ. eigenvalues --   -0.44437  -0.44430  -0.44330  -0.44191  -0.43968
 Alpha  occ. eigenvalues --   -0.43935  -0.43832  -0.43540  -0.43454  -0.43342
 Alpha  occ. eigenvalues --   -0.43222  -0.43058  -0.42747  -0.42711  -0.42414
 Alpha  occ. eigenvalues --   -0.42346  -0.42181  -0.42047  -0.41952  -0.41570
 Alpha  occ. eigenvalues --   -0.41355  -0.41312  -0.41133  -0.41045  -0.40904
 Alpha  occ. eigenvalues --   -0.40816  -0.40795  -0.40651  -0.40592  -0.40244
 Alpha  occ. eigenvalues --   -0.40197  -0.40043  -0.39444  -0.38901  -0.38721
 Alpha  occ. eigenvalues --   -0.38189  -0.37947  -0.37702  -0.37416  -0.37328
 Alpha  occ. eigenvalues --   -0.37060  -0.36750  -0.36230  -0.36116  -0.36075
 Alpha  occ. eigenvalues --   -0.35851  -0.35076  -0.34275  -0.33947  -0.33839
 Alpha  occ. eigenvalues --   -0.33535  -0.32891  -0.32699  -0.31487  -0.31097
 Alpha  occ. eigenvalues --   -0.30876  -0.30529  -0.30495  -0.30436  -0.30040
 Alpha  occ. eigenvalues --   -0.29790  -0.29445  -0.29020  -0.23798  -0.23629
 Alpha  occ. eigenvalues --   -0.21187  -0.21091
 Alpha virt. eigenvalues --   -0.08902  -0.08695  -0.01689  -0.01067   0.00126
 Alpha virt. eigenvalues --    0.00811   0.02133   0.02795   0.03804   0.03841
 Alpha virt. eigenvalues --    0.04894   0.05402   0.05577   0.05915   0.06029

 Mulliken charges:
               1
     1  Mg   0.849140
     2  C   -0.012359
     3  C   -0.103302
     4  C   -0.042227
     5  C   -0.106206
     6  N   -0.276403
     7  C   -0.077022
     8  C    0.018854
     9  C   -0.112711
    10  C    0.098913
    11  C    0.052010
    12  C    0.075176
    13  C   -0.090460
    14  H    0.007433
    15  N   -0.340974
    16  C    0.146607
    17  C   -0.163218
    18  C   -0.030597
    19  C    0.149231
    20  C    0.116882
    21  C   -0.008724
    22  O   -0.230803
    23  C    0.068666
    24  N   -0.320929
    25  C    0.010263
    26  C   -0.017086
    27  C   -0.033892
    28  C    0.068408
    29  C    0.076705
    30  C    0.009120
    31  C   -0.003954
    32  N   -0.375451
    33  C    0.097903
    34  C   -0.134076
    35  C    0.024047
    36  C    0.167442
    37  C    0.139984
    38  C    0.027542
    39  O   -0.201725
    40  C   -0.002953
    41  C    0.164692
    42  O   -0.221821
    43  O   -0.294839
    44  C    0.174717
    45  H   -0.025418
    46  H   -0.007226
    47  H   -0.031936
    48  H    0.007681
    49  H    0.016862
    50  H    0.019895
    51  H    0.018451
    52  H    0.012282
    53  H    0.015089
    54  H    0.023825
    55  H    0.040929
    56  H    0.033238
    57  H    0.018970
    58  H    0.033210
    59  H    0.032822
    60  H    0.028368
    61  H    0.043365
    62  H    0.023879
    63  H    0.009876
    64  H   -0.000635
    65  H    0.018566
    66  H    0.006000
    67  H    0.033999
    68  H    0.004808
    69  H    0.007708
    70  H    0.011579
    71  H    0.037922
    72  H    0.008244
    73  H    0.029662
    74  H    0.022250
    75  H    0.024674
    76  H    0.038393
    77  H    0.025121
    78  H    0.035362
    79  H    0.048791
    80  Mg   0.846284
    81  C    0.010037
    82  C   -0.068698
    83  C   -0.076571
    84  C   -0.069944
    85  N   -0.235100
    86  C   -0.058239
    87  C   -0.009123
    88  C   -0.060931
    89  C   -0.010992
    90  C    0.063697
    91  C    0.077815
    92  C   -0.086685
    93  H   -0.033027
    94  N   -0.426679
    95  C    0.167316
    96  C   -0.117474
    97  C   -0.024059
    98  C    0.156896
    99  C    0.116511
   100  C   -0.017454
   101  O   -0.205837
   102  C    0.043896
   103  N   -0.341532
   104  C    0.069766
   105  C   -0.029458
   106  C   -0.018436
   107  C    0.077492
   108  C    0.060308
   109  C    0.010856
   110  C   -0.027183
   111  N   -0.333826
   112  C    0.081592
   113  C   -0.174520
   114  C   -0.079109
   115  C    0.103121
   116  C    0.145570
   117  C    0.135412
   118  O   -0.228104
   119  C   -0.017341
   120  C    0.162966
   121  O   -0.186887
   122  O   -0.337155
   123  C    0.175810
   124  H   -0.028816
   125  H   -0.006614
   126  H   -0.036836
   127  H    0.017029
   128  H    0.017201
   129  H    0.025535
   130  H    0.012213
   131  H    0.019354
   132  H    0.022610
   133  H    0.040994
   134  H    0.042014
   135  H    0.036087
   136  H    0.024278
   137  H    0.039739
   138  H    0.023646
   139  H    0.030915
   140  H    0.026646
   141  H    0.018740
   142  H    0.019855
   143  H    0.024211
   144  H    0.017998
   145  H    0.021250
   146  H    0.006286
   147  H    0.015554
   148  H    0.012805
   149  H    0.009542
   150  H    0.025188
   151  H    0.019717
   152  H    0.050535
   153  H    0.001488
   154  H    0.039490
   155  H    0.049854
   156  H    0.032241
   157  H    0.034639
   158  H    0.055017
 Sum of Mulliken charges =  -0.00000

 Dipole moment (field-independent basis, Debye):
    X=              1.4489    Y=              1.4892    Z=             -1.6906  Tot=              2.6787
 Quadrupole moment (field-independent basis, Debye-Ang):
   XX=           -444.1672   YY=           -479.9540   ZZ=           -533.0212
   XY=              2.6113   XZ=              7.7066   YZ=              3.2504

 Normal termination of Gaussian 16 at Wed Sep 15 16:22:26 2021.
