 Gaussian 16, Revision A.03,
 Gaussian 16:  ES64L-G16RevA.03 25-Dec-2016

 -----------------------------------
 #p cam-b3lyp/Def2SVP td=(nstates=5)
 -----------------------------------

 --------------------------------
 TDDFT excited states in gaussian
 --------------------------------
 Symbolic Z-matrix:
 Charge =  0 Multiplicity = 1

                         Standard orientation:
 ---------------------------------------------------------------------
 Center     Atomic      Atomic             Coordinates (Angstroms)
 Number     Number       Type             X           Y           Z
 ---------------------------------------------------------------------
      1         12           0      -10.338814   -0.012714    0.736388
      2          6           0       -9.590808   -1.196871   -2.409171
      3          6           0       -7.585934   -1.644692    1.929110
      4          6           0      -10.378410    2.087309    3.286104
      5          6           0      -13.103807    1.634044   -0.667353
      6          7           0       -8.539346   -0.886614   -0.294763
      7          6           0       -8.580482   -1.470786   -1.519941
      8          6           0       -7.402773   -2.363720   -1.777018
      9          6           0       -7.072553   -2.798396   -0.312416
     10          6           0       -7.832921   -1.766418    0.507314
     11          6           0       -7.437946   -4.281907   -0.019684
     12          6           0       -6.172172   -1.571006   -2.448710
     13          6           0       -5.307009   -2.410276   -3.499240
     14          1           0       -3.888326   -2.470267   -2.989555
     15          7           0       -9.254126    0.049557    2.472135
     16          6           0       -8.117114   -0.608920    2.787046
     17          6           0       -7.624500   -0.190511    4.093360
     18          6           0       -8.449684    0.873065    4.513007
     19          6           0       -9.416961    1.043489    3.392646
     20          6           0       -6.369419   -0.842160    4.722963
     21          6           0       -8.146353    1.713416    5.722009
     22          8           0       -7.207715    1.430895    6.420138
     23          6           0       -8.930197    2.975188    6.130807
     24          7           0      -11.650288    1.584175    1.348562
     25          6           0      -11.437594    2.263648    2.386295
     26          6           0      -12.339299    3.434500    2.521713
     27          6           0      -13.258311    3.304814    1.244001
     28          6           0      -12.665266    2.131112    0.594028
     29          6           0      -13.057018    3.456061    3.913558
     30          6           0      -13.198761    4.612057    0.325718
     31          6           0      -14.361828    4.824877   -0.707386
     32          7           0      -11.262950    0.150795   -1.101714
     33          6           0      -12.437139    0.771561   -1.487510
     34          6           0      -12.771723    0.424171   -2.840778
     35          6           0      -11.676111   -0.415651   -3.246570
     36          6           0      -10.765644   -0.452655   -2.208164
     37          6           0      -13.974220    0.841257   -3.624607
     38          6           0      -11.184042   -1.206054   -4.321647
     39          8           0      -11.573877   -1.466539   -5.467173
     40          6           0       -9.726346   -1.586125   -3.898932
     41          6           0       -9.549859   -3.030757   -4.229194
     42          8           0       -9.062356   -3.461012   -5.283913
     43          8           0      -10.058295   -3.801365   -3.220251
     44          6           0       -9.916823   -5.237736   -3.589968
     45          1           0       -6.817765   -2.228915    2.440784
     46          1           0      -10.329357    2.801424    4.110103
     47          1           0      -13.879151    2.247871   -1.132143
     48          1           0       -7.822947   -3.193709   -2.343654
     49          1           0       -5.994428   -2.743498   -0.160739
     50          1           0       -6.528151   -4.839451    0.200964
     51          1           0       -7.831275   -4.702656   -0.945662
     52          1           0       -8.190253   -4.283810    0.768448
     53          1           0       -5.493186   -1.064158   -1.763176
     54          1           0       -6.538074   -0.709459   -3.006311
     55          1           0       -5.309379   -1.791571   -4.396749
     56          1           0       -5.658704   -3.386385   -3.833536
     57          1           0       -5.555323   -0.151981    4.944017
     58          1           0       -5.966938   -1.677651    4.149119
     59          1           0       -6.696316   -1.324566    5.643515
     60          1           0       -9.966542    2.770583    6.397559
     61          1           0       -8.897434    3.771844    5.387168
     62          1           0       -8.335945    3.416262    6.931648
     63          1           0      -11.663777    4.282125    2.407144
     64          1           0      -14.301751    3.022355    1.381752
     65          1           0      -12.783598    4.395342    4.393779
     66          1           0      -12.775081    2.602619    4.530465
     67          1           0      -14.135879    3.599952    3.856877
     68          1           0      -12.269029    4.626185   -0.243444
     69          1           0      -13.171608    5.448041    1.023109
     70          1           0      -14.999578    5.707314   -0.663465
     71          1           0      -15.091650    4.020012   -0.631327
     72          1           0      -13.969240    4.808305   -1.724110
     73          1           0      -14.763273    1.353435   -3.074346
     74          1           0      -14.281478   -0.133673   -4.000880
     75          1           0      -13.488062    1.395188   -4.427775
     76          1           0       -8.949933   -0.989095   -4.378495
     77          1           0      -10.598122   -5.468110   -4.408409
     78          1           0      -10.295635   -5.910337   -2.820386
     79          1           0       -8.864155   -5.418737   -3.808293
     80         12           0       10.210130    0.713626   -0.089374
     81          6           0        9.090610   -2.301672    1.245611
     82          6           0        6.945523    1.732922   -0.461166
     83          6           0       11.447637    3.460373   -1.614598
     84          6           0       13.526345   -0.615996   -0.022074
     85          7           0        8.288300   -0.247295    0.249295
     86          6           0        8.048419   -1.458018    0.822038
     87          6           0        6.548409   -1.680109    1.055122
     88          6           0        5.923458   -0.399387    0.344121
     89          6           0        7.171870    0.432339    0.031737
     90          6           0        5.158763   -0.763051   -0.922905
     91          6           0        6.075896   -1.661093    2.552458
     92          6           0        4.846697   -2.459723    2.900570
     93          1           0        3.961513   -2.926651    1.833257
     94          7           0        9.332833    2.372164   -0.823486
     95          6           0        7.943671    2.599232   -0.891642
     96          6           0        7.780055    3.961829   -1.325925
     97          6           0        9.048672    4.521688   -1.621645
     98          6           0       10.027014    3.437617   -1.359106
     99          6           0        6.432165    4.573851   -1.642180
    100          6           0        9.436837    5.872541   -2.056396
    101          8           0       10.546040    6.148984   -2.460888
    102          6           0        8.359733    7.011453   -2.171448
    103          7           0       12.260243    1.461023   -0.604314
    104          6           0       12.459497    2.581844   -1.231022
    105          6           0       13.969576    2.794861   -1.551686
    106          6           0       14.653832    1.559989   -0.994143
    107          6           0       13.436804    0.676791   -0.538919
    108          6           0       14.171837    3.108128   -3.108661
    109          6           0       15.676824    1.882526    0.115516
    110          6           0       17.186755    2.009289   -0.312190
    111          7           0       11.171856   -0.892238    0.683995
    112          6           0       12.523277   -1.316303    0.641367
    113          6           0       12.692300   -2.555815    1.298904
    114          6           0       11.313991   -3.003057    1.473303
    115          6           0       10.478296   -1.910951    1.102683
    116          6           0       13.976720   -3.361549    1.367360
    117          6           0       10.585922   -4.142507    1.894927
    118          8           0       10.940147   -5.228723    2.335756
    119          6           0        8.992643   -3.653814    1.834945
    120          6           0        8.292994   -4.701821    1.020244
    121          8           0        8.586866   -4.995066   -0.143413
    122          8           0        7.327903   -5.431938    1.775485
    123          6           0        6.595959   -6.504464    1.031706
    124          1           0        5.887285    1.989478   -0.551766
    125          1           0       11.742081    4.279872   -2.272973
    126          1           0       14.524177   -1.049145    0.069899
    127          1           0        6.294265   -2.602129    0.531780
    128          1           0        5.217557    0.136386    0.978614
    129          1           0        4.956157   -1.832750   -0.968331
    130          1           0        5.642264   -0.394629   -1.828076
    131          1           0        4.129573   -0.404168   -0.934093
    132          1           0        5.930568   -0.619122    2.835409
    133          1           0        6.937641   -1.957204    3.151033
    134          1           0        4.200207   -1.804494    3.483959
    135          1           0        5.144201   -3.337317    3.474578
    136          1           0        6.297879    4.792567   -2.701480
    137          1           0        6.316918    5.468358   -1.028641
    138          1           0        5.561484    3.954829   -1.426382
    139          1           0        7.865663    6.854846   -3.130688
    140          1           0        8.848299    7.978540   -2.291159
    141          1           0        7.618520    6.928085   -1.377551
    142          1           0       14.211675    3.696058   -0.988053
    143          1           0       15.096300    0.952077   -1.781797
    144          1           0       14.861475    2.393207   -3.557212
    145          1           0       14.662718    4.062353   -3.300968
    146          1           0       13.175590    2.996739   -3.538643
    147          1           0       15.596104    1.072565    0.841319
    148          1           0       15.330880    2.795633    0.600161
    149          1           0       17.615681    1.006626   -0.306038
    150          1           0       17.830216    2.708513    0.222141
    151          1           0       17.069761    2.275618   -1.362115
    152          1           0       14.490736   -2.933035    2.227348
    153          1           0       14.584473   -3.218801    0.474633
    154          1           0       13.872938   -4.446189    1.316973
    155          1           0        8.613738   -3.569952    2.854275
    156          1           0        7.270782   -7.289285    0.691890
    157          1           0        5.997972   -6.219870    0.165548
    158          1           0        5.993055   -6.895462    1.851293
 ---------------------------------------------------------------------

 SCF Done:  E(RCAM-B3LYP) =  -4069.82886814     A.U. after   19 cycles

 Excitation energies and oscillator strengths:

 Excited State   1:      Singlet-A      1.6880 eV  734.49 nm  f=0.3625  <S**2>=0.000
     309 -> 315        0.16443
     312 -> 314        0.68792
     309 <- 315        0.10181
 This state for optimization and/or second-order correction.
 Total Energy, E(TD-HF/TD-DFT) =  -4069.76683400
 Copying the excited state density for this state as the 1-particle RhoCI density.

 Excited State   2:      Singlet-A      1.7266 eV  718.07 nm  f=0.3702  <S**2>=0.000
     310 -> 316        0.17539
     311 -> 313        0.68643
     310 <- 316        0.10551

 Excited State   3:      Singlet-A      2.2120 eV  560.52 nm  f=0.1110  <S**2>=0.000
     309 -> 314        0.63801
     312 -> 315       -0.27822

 Excited State   4:      Singlet-A      2.2228 eV  557.78 nm  f=0.1436  <S**2>=0.000
     310 -> 313        0.64731
     311 -> 316       -0.26002

 Excited State   5:      Singlet-A      2.8806 eV  430.41 nm  f=0.0000  <S**2>=0.000
     312 -> 313        0.70703

 The electronic state is 1-A.
 Alpha  occ. eigenvalues --  -46.89370 -46.87974 -19.25690 -19.24148 -19.19677
 Alpha  occ. eigenvalues --  -19.19445 -19.19257 -19.19175 -19.18210 -19.18039
 Alpha  occ. eigenvalues --  -14.42674 -14.42258 -14.42059 -14.41636 -14.40460
 Alpha  occ. eigenvalues --  -14.40156 -14.39340 -14.38735 -10.39059 -10.38795
 Alpha  occ. eigenvalues --  -10.35909 -10.35457 -10.34328 -10.34212 -10.32466
 Alpha  occ. eigenvalues --  -10.31854 -10.31831 -10.31686 -10.31598 -10.31191
 Alpha  occ. eigenvalues --  -10.31145 -10.31130 -10.30842 -10.30822 -10.30797
 Alpha  occ. eigenvalues --  -10.30679 -10.30397 -10.30123 -10.29686 -10.29522
 Alpha  occ. eigenvalues --  -10.28990 -10.28886 -10.28856 -10.28537 -10.28524
 Alpha  occ. eigenvalues --  -10.28500 -10.28359 -10.28294 -10.28189 -10.28094
 Alpha  occ. eigenvalues --  -10.28041 -10.27996 -10.27946 -10.27930 -10.27851
 Alpha  occ. eigenvalues --  -10.27834 -10.27761 -10.27757 -10.27741 -10.27723
 Alpha  occ. eigenvalues --  -10.27716 -10.27629 -10.27600 -10.27489 -10.27464
 Alpha  occ. eigenvalues --  -10.27405 -10.27316 -10.27120 -10.26881 -10.26814
 Alpha  occ. eigenvalues --  -10.26804 -10.26797 -10.26765 -10.26752 -10.26401
 Alpha  occ. eigenvalues --  -10.26366 -10.26353 -10.26349 -10.26331 -10.26314
 Alpha  occ. eigenvalues --  -10.25977 -10.25850 -10.25841 -10.25792 -10.24577
 Alpha  occ. eigenvalues --  -10.24520  -3.17943  -3.16669  -1.92831  -1.92413
 Alpha  occ. eigenvalues --   -1.92235  -1.91581  -1.91118  -1.90988  -1.16079
 Alpha  occ. eigenvalues --   -1.13443  -1.12111  -1.11112  -1.08617  -1.08244
 Alpha  occ. eigenvalues --   -1.07194  -1.06559  -1.05821  -1.05186  -1.04741
 Alpha  occ. eigenvalues --   -1.04087  -1.03941  -1.03369  -1.02976  -1.02413
 Alpha  occ. eigenvalues --   -0.92644  -0.92096  -0.89870  -0.89286  -0.88972
 Alpha  occ. eigenvalues --   -0.88829  -0.88423  -0.88401  -0.87757  -0.87478
 Alpha  occ. eigenvalues --   -0.87451  -0.87030  -0.86772  -0.86259  -0.84453
 Alpha  occ. eigenvalues --   -0.84329  -0.83942  -0.82981  -0.82421  -0.82200
 Alpha  occ. eigenvalues --   -0.81990  -0.81487  -0.81065  -0.80487  -0.80385
 Alpha  occ. eigenvalues --   -0.80026  -0.78780  -0.78562  -0.77992  -0.77265
 Alpha  occ. eigenvalues --   -0.76968  -0.76863  -0.76108  -0.75863  -0.75639
 Alpha  occ. eigenvalues --   -0.75055  -0.73116  -0.72835  -0.72369  -0.71613
 Alpha  occ. eigenvalues --   -0.70619  -0.69561  -0.69466  -0.68970  -0.68305
 Alpha  occ. eigenvalues --   -0.67985  -0.67926  -0.67288  -0.66963  -0.65788
 Alpha  occ. eigenvalues --   -0.65517  -0.65247  -0.65000  -0.64947  -0.64606
 Alpha  occ. eigenvalues --   -0.64605  -0.62554  -0.61397  -0.60665  -0.60343
 Alpha  occ. eigenvalues --   -0.59771  -0.59638  -0.59335  -0.59314  -0.58947
 Alpha  occ. eigenvalues --   -0.58528  -0.58123  -0.57779  -0.57351  -0.57140
 Alpha  occ. eigenvalues --   -0.56829  -0.56347  -0.56254  -0.55818  -0.55179
 Alpha  occ. eigenvalues --   -0.54970  -0.54626  -0.54283  -0.54002  -0.53738
 Alpha  occ. eigenvalues --   -0.53389  -0.53233  -0.53091  -0.52898  -0.52809
 Alpha  occ. eigenvalues --   -0.52536  -0.52489  -0.52374  -0.52255  -0.52123
 Alpha  occ. eigenvalues --   -0.52045  -0.51840  -0.51594  -0.51370  -0.51321
 Alpha  occ. eigenvalues --   -0.51015  -0.50794  -0.50563  -0.50558  -0.50379
 Alpha  occ. eigenvalues --   -0.50131  -0.50077  -0.49865  -0.49841  -0.49599
 Alpha  occ. eigenvalues --   -0.49508  -0.49284  -0.49282  -0.49081  -0.49074
 Alpha  occ. eigenvalues --   -0.48769  -0.48564  -0.48474  -0.48382  -0.48143
 Alpha  occ. eigenvalues --   -0.47923  -0.47821  -0.47652  -0.47556  -0.47495
 Alpha  occ. eigenvalues --   -0.47211  -0.47142  -0.47075  -0.46955  -0.46930
 Alpha  occ. eigenvalues --   -0.46705  -0.46441  -0.46368  -0.45975  -0.45957
 Alpha  occ. eigenvalues --   -0.45766  -0.45530  -0.45258  -0.45072  -0.45048
 Alpha  occ. eigenvalues --   -0.44825  -0.44687  -0.44558  -0.44532  -0.44435
 Alpha  occ. eigenvalues --   -0.44358  -0.44250  -0.44140  -0.44085  -0.43891
 Alpha  occ. eigenvalues --   -0.43520  -0.43373  -0.43309  -0.43067  -0.43015
 Alpha  occ. eigenvalues --   -0.42886  -0.42750  -0.42612  -0.42469  -0.42319
 Alpha  occ. eigenvalues --   -0.42095  -0.42049  -0.42003  -0.41841  -0.41603
 Alpha  occ. eigenvalues --   -0.41490  -0.41306  -0.41299  -0.40898  -0.40813
 Alpha  occ. eigenvalues --   -0.40262  -0.40227  -0.39872  -0.39752  -0.39423
 Alpha  occ. eigenvalues --   -0.38795  -0.38620  -0.38433  -0.37874  -0.37776
 Alpha  occ. eigenvalues --   -0.37231  -0.36987  -0.36946  -0.36854  -0.36663
 Alpha  occ. eigenvalues --   -0.36160  -0.35787  -0.35117  -0.34370  -0.33851
 Alpha  occ. eigenvalues --   -0.33740  -0.33522  -0.33509  -0.32061  -0.31653
 Alpha  occ. eigenvalues --   -0.31531  -0.31067  -0.30743  -0.30504  -0.30191
 Alpha  occ. eigenvalues --   -0.29773  -0.29479  -0.29099  -0.24331  -0.24183
 Alpha  occ. eigenvalues --   -0.21541  -0.21307
 Alpha virt. eigenvalues --   -0.09051  -0.08947  -0.01946  -0.01649   0.00060
 Alpha virt. eigenvalues --    0.00217   0.01522   0.02218   0.02403   0.03750
 Alpha virt. eigenvalues --    0.04472   0.04709   0.05214   0.05644   0.05846

 Mulliken charges:
               1
     1  Mg   0.828084
     2  C    0.029905
     3  C   -0.080662
     4  C   -0.070050
     5  C   -0.084866
     6  N   -0.279761
     7  C   -0.085787
     8  C    0.013326
     9  C   -0.095763
    10  C    0.096955
    11  C    0.091227
    12  C    0.062760
    13  C   -0.074738
    14  H    0.012107
    15  N   -0.375374
    16  C    0.100203
    17  C   -0.122148
    18  C   -0.020001
    19  C    0.147592
    20  C    0.133023
    21  C   -0.028786
    22  O   -0.181465
    23  C    0.044472
    24  N   -0.219536
    25  C   -0.004004
    26  C   -0.028910
    27  C    0.001889
    28  C   -0.020740
    29  C    0.065794
    30  C    0.026702
    31  C   -0.008660
    32  N   -0.362151
    33  C    0.142908
    34  C   -0.189735
    35  C    0.039552
    36  C    0.070773
    37  C    0.143872
    38  C    0.011337
    39  O   -0.189512
    40  C    0.005417
    41  C    0.179156
    42  O   -0.228091
    43  O   -0.342887
    44  C    0.180304
    45  H   -0.022651
    46  H   -0.067052
    47  H   -0.046810
    48  H    0.007852
    49  H    0.014834
    50  H    0.019011
    51  H    0.006886
    52  H    0.019963
    53  H    0.016538
    54  H    0.007988
    55  H    0.035269
    56  H    0.041405
    57  H    0.045315
    58  H   -0.003851
    59  H    0.029177
    60  H    0.045703
    61  H    0.039283
    62  H    0.024573
    63  H    0.019869
    64  H    0.016181
    65  H    0.008904
    66  H    0.037013
    67  H    0.015741
    68  H    0.016138
    69  H    0.011655
    70  H    0.016223
    71  H    0.015201
    72  H    0.022375
    73  H    0.021724
    74  H    0.042460
    75  H    0.041878
    76  H    0.047883
    77  H    0.046612
    78  H    0.028545
    79  H    0.044436
    80  Mg   0.837823
    81  C   -0.064358
    82  C   -0.101871
    83  C   -0.064643
    84  C   -0.069198
    85  N   -0.258951
    86  C   -0.042756
    87  C    0.004735
    88  C   -0.089186
    89  C    0.049895
    90  C    0.062979
    91  C    0.057667
    92  C   -0.049488
    93  H    0.021041
    94  N   -0.445170
    95  C    0.218544
    96  C   -0.136257
    97  C    0.001416
    98  C    0.123292
    99  C    0.099277
   100  C   -0.029008
   101  O   -0.193680
   102  C    0.055166
   103  N   -0.251957
   104  C    0.025447
   105  C   -0.042241
   106  C    0.006464
   107  C    0.003660
   108  C    0.061041
   109  C    0.040842
   110  C    0.012893
   111  N   -0.354114
   112  C    0.120111
   113  C   -0.140585
   114  C   -0.036380
   115  C    0.156030
   116  C    0.107110
   117  C    0.042557
   118  O   -0.174882
   119  C   -0.012654
   120  C    0.224443
   121  O   -0.232216
   122  O   -0.374662
   123  C    0.182367
   124  H   -0.020843
   125  H    0.005719
   126  H   -0.023875
   127  H    0.019829
   128  H    0.013750
   129  H    0.012051
   130  H    0.028171
   131  H    0.000601
   132  H    0.000879
   133  H    0.001783
   134  H    0.026162
   135  H    0.043798
   136  H    0.040924
   137  H    0.027781
   138  H    0.006527
   139  H    0.030896
   140  H    0.029434
   141  H    0.018216
   142  H    0.021874
   143  H    0.001287
   144  H    0.008370
   145  H    0.023163
   146  H    0.031336
   147  H    0.001419
   148  H    0.002329
   149  H    0.015184
   150  H    0.031716
   151  H    0.007783
   152  H    0.030979
   153  H    0.017780
   154  H    0.040053
   155  H    0.041841
   156  H    0.040545
   157  H    0.036971
   158  H    0.035026
 Sum of Mulliken charges =  -0.00000

 Dipole moment (field-independent basis, Debye):
    X=             -5.6097    Y=              6.2942    Z=              4.7024  Tot=              9.6539
 Quadrupole moment (field-independent basis, Debye-Ang):
   XX=           -488.8232   YY=           -510.7376   ZZ=           -574.5952
   XY=              6.5433   XZ=            -76.0174   YZ=              0.3556

 Normal termination of Gaussian 16 at Thu Sep 16 04:27:01 2021.
