 Gaussian 16, Revision A.03,
 Gaussian 16:  ES64L-G16RevA.03 25-Dec-2016

 -----------------------------------
 #p cam-b3lyp/Def2SVP td=(nstates=5)
 -----------------------------------

 --------------------------------
 TDDFT excited states in gaussian
 --------------------------------
 Symbolic Z-matrix:
 Charge =  0 Multiplicity = 1

                         Standard orientation:
 ---------------------------------------------------------------------
 Center     Atomic      Atomic             Coordinates (Angstroms)
 Number     Number       Type             X           Y           Z
 ---------------------------------------------------------------------
      1         12           0       22.400558   -0.616698    0.435131
      2          6           0       22.020849    2.327798   -1.380074
      3          6           0       23.302288    1.156254    3.154496
      4          6           0       23.172532   -3.531240    1.963197
      5          6           0       21.948193   -2.358437   -2.506213
      6          7           0       22.646452    1.554168    0.806925
      7          6           0       22.231496    2.565057   -0.022213
      8          6           0       22.351213    3.874372    0.660482
      9          6           0       22.809220    3.577955    2.093218
     10          6           0       22.928756    1.993150    2.086435
     11          6           0       24.036671    4.292551    2.636933
     12          6           0       20.960533    4.725007    0.568133
     13          6           0       20.996465    6.082975   -0.171389
     14          1           0       20.228336    7.270823    0.353869
     15          7           0       23.016658   -1.127403    2.328762
     16          6           0       23.363149   -0.239400    3.336054
     17          6           0       23.808729   -0.960219    4.472593
     18          6           0       23.786703   -2.344808    4.152545
     19          6           0       23.291837   -2.383701    2.772609
     20          6           0       24.094628   -0.159071    5.802579
     21          6           0       24.269407   -3.469231    5.067170
     22          8           0       24.324007   -4.670042    4.761417
     23          6           0       24.634885   -3.168074    6.453985
     24          7           0       22.795066   -2.668157   -0.193866
     25          6           0       22.978608   -3.691092    0.615061
     26          6           0       23.159262   -5.002344   -0.182502
     27          6           0       22.283764   -4.605199   -1.435740
     28          6           0       22.311123   -3.081068   -1.379809
     29          6           0       24.589548   -5.477629   -0.634891
     30          6           0       20.784112   -5.170947   -1.484748
     31          6           0       19.868397   -4.810638   -0.387611
     32          7           0       22.084384   -0.187103   -1.645974
     33          6           0       21.898937   -1.029789   -2.759475
     34          6           0       21.689432   -0.232809   -3.925967
     35          6           0       21.789284    1.069133   -3.477406
     36          6           0       21.925462    1.041420   -2.050769
     37          6           0       21.685519   -0.699329   -5.298932
     38          6           0       21.574232    2.388120   -3.848144
     39          8           0       21.316563    2.903410   -4.940903
     40          6           0       21.802862    3.300995   -2.558434
     41          6           0       23.071744    4.043471   -2.818678
     42          8           0       24.202375    3.661023   -3.035810
     43          8           0       22.725622    5.331905   -2.804360
     44          6           0       23.839216    6.314297   -3.013421
     45          1           0       23.353873    1.830753    4.011697
     46          1           0       23.281230   -4.450763    2.540873
     47          1           0       21.741541   -2.925701   -3.415906
     48          1           0       23.128620    4.402970    0.110225
     49          1           0       21.991060    3.800951    2.777690
     50          1           0       24.748879    3.506045    2.390190
     51          1           0       23.986818    4.589407    3.684696
     52          1           0       24.387045    5.206325    2.157751
     53          1           0       20.575008    4.872173    1.576567
     54          1           0       20.182283    4.229045   -0.012454
     55          1           0       20.530294    5.906630   -1.141196
     56          1           0       22.012659    6.388382   -0.417171
     57          1           0       25.091628   -0.422834    6.154947
     58          1           0       23.352689   -0.666791    6.419018
     59          1           0       24.121274    0.929689    5.756860
     60          1           0       25.425471   -2.420208    6.496992
     61          1           0       25.186389   -4.040068    6.804713
     62          1           0       23.798201   -2.963860    7.122579
     63          1           0       22.556788   -5.775381    0.294717
     64          1           0       22.826472   -5.043767   -2.272794
     65          1           0       25.261989   -4.693099   -0.979847
     66          1           0       24.355046   -6.198484   -1.418966
     67          1           0       25.105479   -5.980388    0.183552
     68          1           0       20.734474   -6.259993   -1.499538
     69          1           0       20.212605   -4.701984   -2.285667
     70          1           0       19.530730   -3.813800   -0.667671
     71          1           0       20.256926   -4.733095    0.628293
     72          1           0       18.958477   -5.395413   -0.256819
     73          1           0       22.745221   -0.762674   -5.549017
     74          1           0       21.190164   -0.044889   -6.015592
     75          1           0       21.135163   -1.630307   -5.439250
     76          1           0       20.947668    3.932684   -2.317962
     77          1           0       24.010326    6.739834   -2.024359
     78          1           0       23.543097    7.051495   -3.759371
     79          1           0       24.805957    5.917954   -3.325215
     80         12           0      -22.194234   -0.717459   -0.155563
     81          6           0      -24.048720    2.103922    1.036946
     82          6           0      -20.181848    1.419029   -1.938714
     83          6           0      -20.688288   -3.321818   -1.690901
     84          6           0      -24.883700   -2.733242    0.914367
     85          7           0      -22.141120    1.493618   -0.390277
     86          6           0      -22.930119    2.476083    0.228443
     87          6           0      -22.407530    3.838305   -0.149633
     88          6           0      -21.562540    3.526553   -1.456107
     89          6           0      -21.310504    1.998564   -1.294957
     90          6           0      -22.456196    3.867292   -2.701553
     91          6           0      -21.672877    4.591200    1.015173
     92          6           0      -22.083971    5.976205    1.060467
     93          1           0      -21.684442    6.760566    2.409497
     94          7           0      -20.526436   -0.834529   -1.482352
     95          6           0      -19.826573    0.148603   -2.061091
     96          6           0      -18.730581   -0.415404   -2.787389
     97          6           0      -18.851755   -1.788800   -2.756223
     98          6           0      -20.074733   -2.083320   -1.875587
     99          6           0      -17.755508    0.461976   -3.635056
    100          6           0      -17.916512   -2.860607   -3.352847
    101          8           0      -18.215879   -4.022970   -3.246768
    102          6           0      -16.598285   -2.473569   -3.980681
    103          7           0      -22.885482   -2.700310   -0.574541
    104          6           0      -21.978150   -3.602064   -1.119695
    105          6           0      -22.451508   -5.007275   -0.936017
    106          6           0      -23.796122   -4.829026   -0.075656
    107          6           0      -23.844334   -3.339081    0.168334
    108          6           0      -22.593889   -5.750956   -2.220904
    109          6           0      -23.926622   -5.688463    1.298889
    110          6           0      -25.035132   -6.659064    1.410604
    111          7           0      -24.073149   -0.449817    0.828038
    112          6           0      -25.024560   -1.383994    1.170623
    113          6           0      -26.135772   -0.660286    1.928444
    114          6           0      -25.740877    0.690684    2.000356
    115          6           0      -24.504220    0.775784    1.269600
    116          6           0      -27.412461   -1.332549    2.451569
    117          6           0      -26.215593    1.980664    2.400440
    118          8           0      -27.256978    2.307228    3.013366
    119          6           0      -25.236420    2.976620    1.653733
    120          6           0      -24.866969    4.060640    2.710478
    121          8           0      -23.775748    4.021020    3.307900
    122          8           0      -25.838620    5.004661    2.760328
    123          6           0      -25.562079    5.919438    3.920849
    124          1           0      -19.407450    2.085517   -2.325094
    125          1           0      -20.207793   -4.182822   -2.161634
    126          1           0      -25.710979   -3.282653    1.368184
    127          1           0      -23.276133    4.403426   -0.486908
    128          1           0      -20.653445    4.125146   -1.501638
    129          1           0      -23.247370    3.140191   -2.882811
    130          1           0      -21.812746    3.983525   -3.572620
    131          1           0      -22.921774    4.840133   -2.541995
    132          1           0      -20.624805    4.654949    0.721659
    133          1           0      -21.762465    4.062533    1.964462
    134          1           0      -23.169630    6.062763    1.107808
    135          1           0      -21.643785    6.475250    0.196812
    136          1           0      -16.777674    0.185802   -3.240609
    137          1           0      -17.875124    1.537560   -3.505882
    138          1           0      -17.894957    0.251182   -4.695265
    139          1           0      -16.113425   -3.345123   -4.420599
    140          1           0      -16.128171   -2.116244   -3.064538
    141          1           0      -16.791343   -1.697004   -4.720744
    142          1           0      -21.664781   -5.441518   -0.318811
    143          1           0      -24.618483   -5.138140   -0.720366
    144          1           0      -21.788945   -6.484468   -2.198037
    145          1           0      -22.375703   -5.137484   -3.094928
    146          1           0      -23.563182   -6.221461   -2.387400
    147          1           0      -24.140920   -4.909079    2.030096
    148          1           0      -22.946002   -6.108201    1.519177
    149          1           0      -25.721366   -6.383290    2.210890
    150          1           0      -24.431039   -7.493012    1.766324
    151          1           0      -25.478504   -6.920055    0.448695
    152          1           0      -28.157512   -1.194534    1.668817
    153          1           0      -27.770820   -0.884955    3.378526
    154          1           0      -27.195580   -2.376941    2.675994
    155          1           0      -25.856952    3.373413    0.851405
    156          1           0      -25.769773    5.492083    4.901697
    157          1           0      -26.072961    6.880700    3.875889
    158          1           0      -24.509714    6.189892    3.832041
 ---------------------------------------------------------------------

 SCF Done:  E(RCAM-B3LYP) =  -4069.75592166     A.U. after   19 cycles

 Excitation energies and oscillator strengths:

 Excited State   1:      Singlet-A      1.7047 eV  727.31 nm  f=0.3669  <S**2>=0.000
     310 -> 316        0.17506
     311 -> 313        0.68581
     310 <- 316        0.10608
 This state for optimization and/or second-order correction.
 Total Energy, E(TD-HF/TD-DFT) =  -4069.69327559
 Copying the excited state density for this state as the 1-particle RhoCI density.

 Excited State   2:      Singlet-A      1.7187 eV  721.36 nm  f=0.3619  <S**2>=0.000
     309 -> 315       -0.18748
     312 -> 314        0.68210
     309 <- 315       -0.10711

 Excited State   3:      Singlet-A      2.1769 eV  569.54 nm  f=0.1386  <S**2>=0.000
     310 -> 313        0.65141
     311 -> 316       -0.26318

 Excited State   4:      Singlet-A      2.2689 eV  546.46 nm  f=0.0058  <S**2>=0.000
     309 -> 314        0.54882
     312 -> 315        0.43684

 Excited State   5:      Singlet-A      2.8368 eV  437.05 nm  f=0.0000  <S**2>=0.000
     312 -> 313        0.70711

 The electronic state is 1-A.
 Alpha  occ. eigenvalues --  -46.89429 -46.89384 -19.26156 -19.25087 -19.19755
 Alpha  occ. eigenvalues --  -19.19485 -19.19115 -19.18745 -19.18710 -19.18253
 Alpha  occ. eigenvalues --  -14.42265 -14.42042 -14.41911 -14.41871 -14.39745
 Alpha  occ. eigenvalues --  -14.39363 -14.39150 -14.39030 -10.39717 -10.38655
 Alpha  occ. eigenvalues --  -10.35674 -10.35115 -10.34904 -10.34198 -10.31741
 Alpha  occ. eigenvalues --  -10.31532 -10.31467 -10.31370 -10.31305 -10.31249
 Alpha  occ. eigenvalues --  -10.31203 -10.30925 -10.30668 -10.30478 -10.30326
 Alpha  occ. eigenvalues --  -10.30147 -10.29833 -10.29171 -10.29148 -10.29029
 Alpha  occ. eigenvalues --  -10.29001 -10.28966 -10.28766 -10.28713 -10.28659
 Alpha  occ. eigenvalues --  -10.28614 -10.28593 -10.28582 -10.28326 -10.28198
 Alpha  occ. eigenvalues --  -10.28151 -10.28109 -10.28104 -10.28039 -10.27928
 Alpha  occ. eigenvalues --  -10.27907 -10.27840 -10.27803 -10.27565 -10.27548
 Alpha  occ. eigenvalues --  -10.27523 -10.27515 -10.27366 -10.27349 -10.27199
 Alpha  occ. eigenvalues --  -10.27013 -10.26932 -10.26542 -10.26505 -10.26421
 Alpha  occ. eigenvalues --  -10.26418 -10.26384 -10.26305 -10.26289 -10.26246
 Alpha  occ. eigenvalues --  -10.26079 -10.25949 -10.25876 -10.25848 -10.25623
 Alpha  occ. eigenvalues --  -10.25357 -10.25099 -10.25023 -10.24927 -10.24776
 Alpha  occ. eigenvalues --  -10.24700  -3.17792  -3.17766  -1.92695  -1.92662
 Alpha  occ. eigenvalues --   -1.92227  -1.92208  -1.92109  -1.92067  -1.17049
 Alpha  occ. eigenvalues --   -1.16041  -1.11735  -1.09167  -1.08605  -1.07845
 Alpha  occ. eigenvalues --   -1.07401  -1.07124  -1.05466  -1.04301  -1.04079
 Alpha  occ. eigenvalues --   -1.03428  -1.03028  -1.02698  -1.02672  -1.01430
 Alpha  occ. eigenvalues --   -0.92256  -0.91215  -0.89263  -0.88932  -0.88792
 Alpha  occ. eigenvalues --   -0.88684  -0.88414  -0.88186  -0.88008  -0.87643
 Alpha  occ. eigenvalues --   -0.87500  -0.87244  -0.86906  -0.85467  -0.84681
 Alpha  occ. eigenvalues --   -0.84406  -0.84331  -0.83779  -0.83116  -0.82605
 Alpha  occ. eigenvalues --   -0.82510  -0.82051  -0.81606  -0.80784  -0.80671
 Alpha  occ. eigenvalues --   -0.80452  -0.78796  -0.78210  -0.77708  -0.77536
 Alpha  occ. eigenvalues --   -0.77425  -0.76531  -0.75992  -0.75465  -0.75410
 Alpha  occ. eigenvalues --   -0.74919  -0.73524  -0.72164  -0.71721  -0.71432
 Alpha  occ. eigenvalues --   -0.69432  -0.69136  -0.68793  -0.67861  -0.67819
 Alpha  occ. eigenvalues --   -0.67408  -0.67255  -0.66365  -0.65802  -0.65434
 Alpha  occ. eigenvalues --   -0.65103  -0.64954  -0.64861  -0.64428  -0.64291
 Alpha  occ. eigenvalues --   -0.64013  -0.62103  -0.62033  -0.60480  -0.59968
 Alpha  occ. eigenvalues --   -0.59915  -0.59353  -0.59108  -0.58661  -0.58427
 Alpha  occ. eigenvalues --   -0.58304  -0.58230  -0.57968  -0.57412  -0.57088
 Alpha  occ. eigenvalues --   -0.56481  -0.55976  -0.55821  -0.55549  -0.55524
 Alpha  occ. eigenvalues --   -0.55099  -0.55052  -0.54874  -0.54748  -0.54316
 Alpha  occ. eigenvalues --   -0.54001  -0.53969  -0.53543  -0.53433  -0.53296
 Alpha  occ. eigenvalues --   -0.53034  -0.52961  -0.52737  -0.52736  -0.52584
 Alpha  occ. eigenvalues --   -0.52447  -0.52232  -0.51948  -0.51905  -0.51247
 Alpha  occ. eigenvalues --   -0.51211  -0.51134  -0.50546  -0.50411  -0.50411
 Alpha  occ. eigenvalues --   -0.50208  -0.50117  -0.49844  -0.49771  -0.49506
 Alpha  occ. eigenvalues --   -0.49498  -0.49243  -0.49110  -0.49035  -0.48926
 Alpha  occ. eigenvalues --   -0.48643  -0.48547  -0.48397  -0.48192  -0.48117
 Alpha  occ. eigenvalues --   -0.47992  -0.47837  -0.47425  -0.47414  -0.47157
 Alpha  occ. eigenvalues --   -0.46881  -0.46713  -0.46611  -0.46538  -0.46283
 Alpha  occ. eigenvalues --   -0.46226  -0.46085  -0.46037  -0.45858  -0.45841
 Alpha  occ. eigenvalues --   -0.45377  -0.45294  -0.44679  -0.44628  -0.44535
 Alpha  occ. eigenvalues --   -0.44519  -0.44343  -0.44156  -0.44101  -0.44079
 Alpha  occ. eigenvalues --   -0.43767  -0.43740  -0.43449  -0.43407  -0.43235
 Alpha  occ. eigenvalues --   -0.43150  -0.43019  -0.42987  -0.42834  -0.42549
 Alpha  occ. eigenvalues --   -0.42359  -0.42262  -0.42154  -0.41995  -0.41909
 Alpha  occ. eigenvalues --   -0.41872  -0.41648  -0.41459  -0.41122  -0.41113
 Alpha  occ. eigenvalues --   -0.41012  -0.40774  -0.40757  -0.40218  -0.40207
 Alpha  occ. eigenvalues --   -0.39835  -0.39568  -0.38982  -0.38838  -0.38544
 Alpha  occ. eigenvalues --   -0.38107  -0.38070  -0.37863  -0.37737  -0.37262
 Alpha  occ. eigenvalues --   -0.37079  -0.37059  -0.36949  -0.36413  -0.36165
 Alpha  occ. eigenvalues --   -0.36141  -0.34782  -0.34520  -0.34347  -0.33990
 Alpha  occ. eigenvalues --   -0.33818  -0.33523  -0.33092  -0.31728  -0.31522
 Alpha  occ. eigenvalues --   -0.31395  -0.31080  -0.30624  -0.30574  -0.30500
 Alpha  occ. eigenvalues --   -0.30073  -0.30029  -0.29329  -0.24249  -0.24060
 Alpha  occ. eigenvalues --   -0.21484  -0.20199
 Alpha virt. eigenvalues --   -0.09022  -0.07570  -0.02506  -0.01661   0.00010
 Alpha virt. eigenvalues --    0.00238   0.01816   0.01971   0.02403   0.02420
 Alpha virt. eigenvalues --    0.04866   0.05299   0.05460   0.06017   0.06058

 Mulliken charges:
               1
     1  Mg   0.804315
     2  C   -0.001841
     3  C   -0.056877
     4  C   -0.056493
     5  C   -0.102543
     6  N   -0.309889
     7  C   -0.028070
     8  C   -0.016379
     9  C   -0.002645
    10  C   -0.048510
    11  C    0.052463
    12  C    0.041309
    13  C   -0.079835
    14  H    0.019979
    15  N   -0.378193
    16  C    0.181730
    17  C   -0.165960
    18  C   -0.026635
    19  C    0.105803
    20  C    0.128350
    21  C    0.003912
    22  O   -0.216811
    23  C    0.054117
    24  N   -0.227544
    25  C    0.004234
    26  C    0.006901
    27  C   -0.066275
    28  C    0.078662
    29  C    0.091295
    30  C    0.063851
    31  C   -0.038706
    32  N   -0.322720
    33  C    0.102242
    34  C   -0.118870
    35  C    0.060272
    36  C    0.066501
    37  C    0.105467
    38  C    0.014125
    39  O   -0.191344
    40  C   -0.024979
    41  C    0.199666
    42  O   -0.213038
    43  O   -0.318126
    44  C    0.160228
    45  H   -0.030904
    46  H   -0.012889
    47  H   -0.027870
    48  H    0.022324
    49  H    0.007322
    50  H    0.027519
    51  H    0.019913
    52  H    0.018120
    53  H    0.017760
    54  H    0.019210
    55  H    0.036278
    56  H    0.017786
    57  H    0.016286
    58  H    0.039247
    59  H    0.030111
    60  H    0.018201
    61  H    0.019432
    62  H    0.052924
    63  H   -0.008460
    64  H   -0.003707
    65  H    0.027785
    66  H    0.020257
    67  H    0.028575
    68  H    0.010817
    69  H    0.003869
    70  H    0.002557
    71  H    0.016315
    72  H    0.015317
    73  H    0.051135
    74  H    0.031487
    75  H    0.014486
    76  H    0.028947
    77  H    0.030135
    78  H    0.050329
    79  H    0.056252
    80  Mg   0.811216
    81  C    0.053162
    82  C   -0.123009
    83  C   -0.063820
    84  C   -0.065432
    85  N   -0.267882
    86  C   -0.054912
    87  C   -0.044061
    88  C   -0.099891
    89  C    0.112766
    90  C    0.068894
    91  C    0.138591
    92  C   -0.083129
    93  H   -0.006597
    94  N   -0.362777
    95  C    0.148152
    96  C   -0.139280
    97  C   -0.064755
    98  C    0.139339
    99  C    0.103296
   100  C   -0.015274
   101  O   -0.185048
   102  C    0.069083
   103  N   -0.322255
   104  C    0.034077
   105  C   -0.048968
   106  C   -0.011818
   107  C    0.064134
   108  C    0.078927
   109  C    0.007241
   110  C    0.029992
   111  N   -0.332870
   112  C    0.080394
   113  C   -0.182283
   114  C    0.030885
   115  C    0.076667
   116  C    0.117222
   117  C    0.052334
   118  O   -0.200664
   119  C   -0.080730
   120  C    0.223723
   121  O   -0.248584
   122  O   -0.309987
   123  C    0.170751
   124  H   -0.035032
   125  H    0.002007
   126  H   -0.033070
   127  H   -0.004792
   128  H   -0.000970
   129  H    0.028230
   130  H    0.011860
   131  H    0.014446
   132  H   -0.009259
   133  H    0.049579
   134  H    0.031255
   135  H    0.021236
   136  H    0.030210
   137  H    0.013483
   138  H    0.050675
   139  H    0.035181
   140  H    0.045089
   141  H    0.034468
   142  H    0.016488
   143  H    0.007038
   144  H    0.017628
   145  H    0.024268
   146  H    0.016143
   147  H    0.003788
   148  H    0.003969
   149  H    0.022782
   150  H    0.008360
   151  H    0.020805
   152  H    0.040162
   153  H    0.033950
   154  H    0.013509
   155  H    0.060443
   156  H    0.051636
   157  H    0.033612
   158  H    0.043999
 Sum of Mulliken charges =  -0.00000

 Dipole moment (field-independent basis, Debye):
    X=              2.5552    Y=              0.5912    Z=              0.6308  Tot=              2.6975
 Quadrupole moment (field-independent basis, Debye-Ang):
   XX=           -702.9697   YY=           -487.4182   ZZ=           -517.3923
   XY=             49.9370   XZ=            146.4183   YZ=             17.9684

 Normal termination of Gaussian 16 at Tue Sep 14 22:45:41 2021.
