 Gaussian 16, Revision A.03,
 Gaussian 16:  ES64L-G16RevA.03 25-Dec-2016

 -----------------------------------
 #p cam-b3lyp/Def2SVP td=(nstates=5)
 -----------------------------------

 --------------------------------
 TDDFT excited states in gaussian
 --------------------------------
 Symbolic Z-matrix:
 Charge =  0 Multiplicity = 1

                         Standard orientation:
 ---------------------------------------------------------------------
 Center     Atomic      Atomic             Coordinates (Angstroms)
 Number     Number       Type             X           Y           Z
 ---------------------------------------------------------------------
      1         12           0      -31.210312    0.066794    0.023184
      2          6           0      -27.837248   -0.472339   -0.383813
      3          6           0      -31.427353   -2.400601    2.387981
      4          6           0      -34.600394    0.768278    0.558601
      5          6           0      -30.955469    3.069036   -1.664359
      6          7           0      -29.681083   -1.108923    1.013353
      7          6           0      -28.367450   -1.335545    0.593712
      8          6           0      -27.664407   -2.362495    1.484991
      9          6           0      -28.903903   -3.001189    2.161555
     10          6           0      -30.109958   -2.070086    1.921549
     11          6           0      -29.117038   -4.478455    1.764887
     12          6           0      -26.681655   -1.702853    2.472630
     13          6           0      -25.302703   -2.418485    2.682637
     14          1           0      -24.692446   -2.279318    4.022467
     15          7           0      -32.756415   -0.736939    1.234084
     16          6           0      -32.672113   -1.799538    2.066909
     17          6           0      -33.951636   -2.260405    2.516166
     18          6           0      -34.912156   -1.445571    1.894668
     19          6           0      -34.094577   -0.404230    1.144933
     20          6           0      -34.169532   -3.514472    3.365203
     21          6           0      -36.474869   -1.555695    2.021364
     22          8           0      -36.951402   -2.403900    2.818338
     23          6           0      -37.493644   -0.714581    1.138044
     24          7           0      -32.518357    1.842206   -0.229235
     25          6           0      -33.862890    1.799414   -0.064581
     26          6           0      -34.567469    2.984283   -0.673842
     27          6           0      -33.419681    3.764397   -1.350440
     28          6           0      -32.226386    2.835377   -1.113046
     29          6           0      -35.768299    2.620952   -1.608957
     30          6           0      -33.280942    5.271367   -0.822746
     31          6           0      -33.787612    6.340023   -1.798242
     32          7           0      -29.742617    1.092419   -0.905608
     33          6           0      -29.748597    2.318725   -1.606108
     34          6           0      -28.469258    2.480619   -2.309404
     35          6           0      -27.744333    1.368206   -1.905222
     36          6           0      -28.523838    0.659499   -0.976248
     37          6           0      -28.002205    3.564744   -3.213382
     38          6           0      -26.440058    0.703611   -2.038145
     39          8           0      -25.506947    0.866111   -2.841604
     40          6           0      -26.461102   -0.555429   -1.081657
     41          6           0      -26.286830   -1.850055   -1.864268
     42          8           0      -26.847596   -2.177726   -2.914772
     43          8           0      -25.321931   -2.514613   -1.167260
     44          6           0      -24.804822   -3.730226   -1.773084
     45          1           0      -31.510722   -3.188915    3.138902
     46          1           0      -35.656353    1.046073    0.577207
     47          1           0      -30.808848    3.998544   -2.218101
     48          1           0      -27.093929   -3.054491    0.864588
     49          1           0      -28.646059   -2.982471    3.220409
     50          1           0      -28.279960   -5.055204    1.371550
     51          1           0      -29.834183   -4.457980    0.944425
     52          1           0      -29.507276   -5.074319    2.589637
     53          1           0      -27.130017   -1.501401    3.445127
     54          1           0      -26.563480   -0.682193    2.107981
     55          1           0      -24.594013   -2.042783    1.944644
     56          1           0      -25.449762   -3.492052    2.556611
     57          1           0      -34.846970   -4.143157    2.787776
     58          1           0      -34.419564   -3.227663    4.386709
     59          1           0      -33.203828   -4.019695    3.351527
     60          1           0      -37.614801    0.240868    1.647126
     61          1           0      -38.433581   -1.265777    1.154082
     62          1           0      -37.131719   -0.779695    0.111592
     63          1           0      -34.986614    3.578133    0.138516
     64          1           0      -33.418640    3.777391   -2.440112
     65          1           0      -35.740019    3.190335   -2.537584
     66          1           0      -36.735125    2.802373   -1.139808
     67          1           0      -35.768374    1.545985   -1.784578
     68          1           0      -32.243886    5.557843   -0.648450
     69          1           0      -33.753958    5.369300    0.154314
     70          1           0      -34.296985    7.129547   -1.245428
     71          1           0      -34.485987    5.891521   -2.504466
     72          1           0      -33.001531    6.803332   -2.394215
     73          1           0      -28.845883    4.234105   -3.381619
     74          1           0      -27.458913    3.137746   -4.056590
     75          1           0      -27.312127    4.167659   -2.622165
     76          1           0      -25.713399   -0.489280   -0.290851
     77          1           0      -25.576542   -4.383069   -2.182914
     78          1           0      -24.165728   -4.359899   -1.154105
     79          1           0      -24.139002   -3.474036   -2.597587
     80         12           0       30.422075    0.723526    0.437891
     81          6           0       30.982157   -2.513947   -0.985650
     82          6           0       28.736002    1.632791   -2.412425
     83          6           0       30.247229    3.927652    1.491845
     84          6           0       32.946159   -0.046824    2.778173
     85          7           0       29.925161   -0.342396   -1.449875
     86          6           0       30.175901   -1.674349   -1.815396
     87          6           0       29.512541   -1.955535   -3.139245
     88          6           0       29.297381   -0.497358   -3.727034
     89          6           0       29.381001    0.364844   -2.433258
     90          6           0       30.469267   -0.203634   -4.730164
     91          6           0       28.249027   -2.881451   -3.041521
     92          6           0       28.268814   -3.876124   -4.090102
     93          1           0       27.233248   -5.093956   -3.892071
     94          7           0       29.425893    2.441350   -0.344621
     95          6           0       28.766639    2.592424   -1.499548
     96          6           0       28.177075    3.895322   -1.540574
     97          6           0       28.606502    4.599658   -0.435415
     98          6           0       29.462061    3.620335    0.381214
     99          6           0       27.392318    4.413912   -2.787298
    100          6           0       28.237594    6.029997    0.008931
    101          8           0       28.749636    6.485122    1.000211
    102          6           0       27.182759    6.820794   -0.728403
    103          7           0       31.674501    1.842509    1.766188
    104          6           0       31.271144    3.128287    2.109235
    105          6           0       31.970594    3.591441    3.345634
    106          6           0       32.828949    2.305727    3.781693
    107          6           0       32.424826    1.269142    2.759944
    108          6           0       32.741529    4.852421    3.145991
    109          6           0       32.658490    1.772703    5.308738
    110          6           0       33.851260    1.765305    6.180855
    111          7           0       31.695840   -0.930303    0.898109
    112          6           0       32.655050   -1.052306    1.878040
    113          6           0       33.208418   -2.474423    1.813206
    114          6           0       32.500624   -3.119970    0.779508
    115          6           0       31.629260   -2.121106    0.219543
    116          6           0       34.332413   -3.012143    2.709322
    117          6           0       32.472782   -4.337057    0.026252
    118          8           0       33.111320   -5.402242    0.182639
    119          6           0       31.619318   -3.954707   -1.251905
    120          6           0       30.643884   -5.150475   -1.468638
    121          8           0       29.454902   -5.075095   -1.108243
    122          8           0       31.273530   -6.140724   -2.147401
    123          6           0       30.385250   -7.353486   -2.163733
    124          1           0       28.016677    1.860719   -3.202241
    125          1           0       30.191793    4.953589    1.863563
    126          1           0       33.660564   -0.411274    3.519115
    127          1           0       30.280336   -2.414980   -3.761330
    128          1           0       28.350216   -0.411698   -4.258431
    129          1           0       31.422949   -0.006432   -4.241197
    130          1           0       30.175448    0.619473   -5.380134
    131          1           0       30.596436   -1.068329   -5.381909
    132          1           0       27.395122   -2.258613   -3.309081
    133          1           0       28.115162   -3.286114   -2.038031
    134          1           0       29.209043   -4.427811   -4.091040
    135          1           0       28.063071   -3.363121   -5.029892
    136          1           0       26.435756    4.716694   -2.361464
    137          1           0       27.193927    3.661865   -3.550804
    138          1           0       27.951005    5.216523   -3.268554
    139          1           0       27.114829    7.832992   -0.329572
    140          1           0       26.342704    6.179106   -0.462790
    141          1           0       27.436039    6.816006   -1.788518
    142          1           0       31.144077    3.745004    4.039708
    143          1           0       33.876903    2.577452    3.657444
    144          1           0       32.185067    5.600261    3.709536
    145          1           0       32.711928    5.211837    2.117491
    146          1           0       33.788444    4.816790    3.448190
    147          1           0       32.399890    0.725495    5.152189
    148          1           0       31.796849    2.280195    5.740417
    149          1           0       34.114526    0.751100    6.480030
    150          1           0       33.380026    2.249846    7.035310
    151          1           0       34.660466    2.396034    5.810274
    152          1           0       35.252550   -2.863676    2.145271
    153          1           0       34.213131   -4.070806    2.939575
    154          1           0       34.308179   -2.483663    3.662359
    155          1           0       32.371861   -3.885375   -2.036193
    156          1           0       30.321971   -7.888780   -1.216480
    157          1           0       30.629755   -8.087800   -2.930575
    158          1           0       29.403798   -6.989511   -2.468329
 ---------------------------------------------------------------------

 SCF Done:  E(RCAM-B3LYP) =  -4069.79661526     A.U. after   19 cycles

 Excitation energies and oscillator strengths:

 Excited State   1:      Singlet-A      1.7088 eV  725.55 nm  f=0.3605  <S**2>=0.000
     310 -> 316       -0.17443
     311 -> 313        0.68598
     310 <- 316       -0.10516
 This state for optimization and/or second-order correction.
 Total Energy, E(TD-HF/TD-DFT) =  -4069.73381675
 Copying the excited state density for this state as the 1-particle RhoCI density.

 Excited State   2:      Singlet-A      1.7188 eV  721.36 nm  f=0.3579  <S**2>=0.000
     309 -> 315       -0.18751
     312 -> 314        0.68223
     309 <- 315       -0.10713

 Excited State   3:      Singlet-A      2.2476 eV  551.63 nm  f=0.0932  <S**2>=0.000
     310 -> 313        0.62547
     311 -> 316        0.31551

 Excited State   4:      Singlet-A      2.2689 eV  546.46 nm  f=0.0058  <S**2>=0.000
     309 -> 314        0.54882
     312 -> 315        0.43684

 Excited State   5:      Singlet-A      3.0058 eV  412.49 nm  f=0.0000  <S**2>=0.000
     312 -> 313        0.70711

 The electronic state is 1-A.
 Alpha  occ. eigenvalues --  -46.89417 -46.89186 -19.26374 -19.26144 -19.20277
 Alpha  occ. eigenvalues --  -19.19743 -19.19696 -19.19474 -19.18734 -19.18459
 Alpha  occ. eigenvalues --  -14.42419 -14.42254 -14.42185 -14.41900 -14.40240
 Alpha  occ. eigenvalues --  -14.39352 -14.39139 -14.39121 -10.39968 -10.39705
 Alpha  occ. eigenvalues --  -10.36688 -10.35663 -10.34893 -10.34765 -10.32212
 Alpha  occ. eigenvalues --  -10.32063 -10.31605 -10.31520 -10.31359 -10.31294
 Alpha  occ. eigenvalues --  -10.31197 -10.31192 -10.31105 -10.30914 -10.30492
 Alpha  occ. eigenvalues --  -10.30467 -10.30412 -10.29687 -10.29160 -10.28990
 Alpha  occ. eigenvalues --  -10.28955 -10.28826 -10.28755 -10.28648 -10.28603
 Alpha  occ. eigenvalues --  -10.28505 -10.28491 -10.28362 -10.28170 -10.28140
 Alpha  occ. eigenvalues --  -10.28098 -10.28092 -10.28032 -10.28028 -10.28027
 Alpha  occ. eigenvalues --  -10.27984 -10.27927 -10.27792 -10.27755 -10.27723
 Alpha  occ. eigenvalues --  -10.27623 -10.27483 -10.27355 -10.27338 -10.27307
 Alpha  occ. eigenvalues --  -10.27002 -10.27001 -10.26927 -10.26921 -10.26747
 Alpha  occ. eigenvalues --  -10.26582 -10.26407 -10.26374 -10.26292 -10.26277
 Alpha  occ. eigenvalues --  -10.26235 -10.26066 -10.25985 -10.25938 -10.25866
 Alpha  occ. eigenvalues --  -10.25775 -10.25347 -10.25087 -10.25013 -10.24916
 Alpha  occ. eigenvalues --  -10.24599  -3.17755  -3.17719  -1.92651  -1.92585
 Alpha  occ. eigenvalues --   -1.92197  -1.92161  -1.92056  -1.92049  -1.16849
 Alpha  occ. eigenvalues --   -1.16029  -1.11724  -1.08629  -1.08372  -1.07834
 Alpha  occ. eigenvalues --   -1.07764  -1.07113  -1.04687  -1.04068  -1.04016
 Alpha  occ. eigenvalues --   -1.03532  -1.03017  -1.02687  -1.02163  -1.01419
 Alpha  occ. eigenvalues --   -0.91432  -0.91204  -0.88921  -0.88888  -0.88849
 Alpha  occ. eigenvalues --   -0.88707  -0.88673  -0.88176  -0.87489  -0.87291
 Alpha  occ. eigenvalues --   -0.87233  -0.86999  -0.86404  -0.85456  -0.84395
 Alpha  occ. eigenvalues --   -0.84326  -0.83908  -0.83768  -0.82594  -0.82520
 Alpha  occ. eigenvalues --   -0.82499  -0.81650  -0.81133  -0.80660  -0.80441
 Alpha  occ. eigenvalues --   -0.80203  -0.78199  -0.77949  -0.77526  -0.77489
 Alpha  occ. eigenvalues --   -0.76756  -0.76519  -0.75901  -0.75454  -0.75305
 Alpha  occ. eigenvalues --   -0.74908  -0.72718  -0.72153  -0.71736  -0.71422
 Alpha  occ. eigenvalues --   -0.69209  -0.68981  -0.68782  -0.67897  -0.67850
 Alpha  occ. eigenvalues --   -0.67397  -0.67263  -0.66354  -0.66141  -0.65092
 Alpha  occ. eigenvalues --   -0.65090  -0.65005  -0.64943  -0.64569  -0.64417
 Alpha  occ. eigenvalues --   -0.64280  -0.62699  -0.62021  -0.59958  -0.59903
 Alpha  occ. eigenvalues --   -0.59607  -0.59097  -0.58934  -0.58618  -0.58416
 Alpha  occ. eigenvalues --   -0.58219  -0.57741  -0.57401  -0.57247  -0.57077
 Alpha  occ. eigenvalues --   -0.55978  -0.55965  -0.55770  -0.55538  -0.55357
 Alpha  occ. eigenvalues --   -0.55041  -0.55028  -0.54305  -0.53990  -0.53958
 Alpha  occ. eigenvalues --   -0.53778  -0.53531  -0.53382  -0.53151  -0.52950
 Alpha  occ. eigenvalues --   -0.52806  -0.52726  -0.52609  -0.52573  -0.52436
 Alpha  occ. eigenvalues --   -0.52025  -0.51894  -0.51598  -0.51367  -0.51236
 Alpha  occ. eigenvalues --   -0.51192  -0.51111  -0.50883  -0.50536  -0.50400
 Alpha  occ. eigenvalues --   -0.50197  -0.50106  -0.49955  -0.49495  -0.49474
 Alpha  occ. eigenvalues --   -0.49340  -0.49099  -0.49067  -0.48915  -0.48632
 Alpha  occ. eigenvalues --   -0.48522  -0.48278  -0.48181  -0.48157  -0.47981
 Alpha  occ. eigenvalues --   -0.47858  -0.47826  -0.47695  -0.47486  -0.47414
 Alpha  occ. eigenvalues --   -0.47191  -0.46874  -0.46600  -0.46589  -0.46527
 Alpha  occ. eigenvalues --   -0.46397  -0.46215  -0.46074  -0.46016  -0.45830
 Alpha  occ. eigenvalues --   -0.45580  -0.45367  -0.45264  -0.44785  -0.44617
 Alpha  occ. eigenvalues --   -0.44524  -0.44445  -0.44332  -0.44131  -0.44068
 Alpha  occ. eigenvalues --   -0.43803  -0.43782  -0.43729  -0.43493  -0.43438
 Alpha  occ. eigenvalues --   -0.43291  -0.43139  -0.43008  -0.42955  -0.42823
 Alpha  occ. eigenvalues --   -0.42483  -0.42464  -0.42348  -0.42132  -0.41984
 Alpha  occ. eigenvalues --   -0.41969  -0.41898  -0.41592  -0.41448  -0.41161
 Alpha  occ. eigenvalues --   -0.41111  -0.40808  -0.40763  -0.40615  -0.40207
 Alpha  occ. eigenvalues --   -0.39824  -0.39726  -0.39372  -0.38827  -0.38693
 Alpha  occ. eigenvalues --   -0.38533  -0.38396  -0.38167  -0.37852  -0.37394
 Alpha  occ. eigenvalues --   -0.37251  -0.37068  -0.36938  -0.36865  -0.36427
 Alpha  occ. eigenvalues --   -0.36130  -0.34882  -0.34807  -0.34770  -0.33979
 Alpha  occ. eigenvalues --   -0.33807  -0.33081  -0.33045  -0.31717  -0.31593
 Alpha  occ. eigenvalues --   -0.31384  -0.31210  -0.30613  -0.30505  -0.30464
 Alpha  occ. eigenvalues --   -0.30062  -0.29848  -0.29318  -0.24238  -0.24211
 Alpha  occ. eigenvalues --   -0.21094  -0.20188
 Alpha virt. eigenvalues --   -0.08593  -0.07559  -0.02495  -0.02034   0.00021
 Alpha virt. eigenvalues --    0.00160   0.01626   0.01831   0.01967   0.02414
 Alpha virt. eigenvalues --    0.04878   0.04975   0.05036   0.05471   0.06029

 Mulliken charges:
               1
     1  Mg   0.836108
     2  C   -0.065943
     3  C   -0.099851
     4  C   -0.076403
     5  C   -0.074283
     6  N   -0.335319
     7  C   -0.053031
     8  C   -0.007723
     9  C   -0.038865
    10  C    0.100351
    11  C    0.060695
    12  C    0.062715
    13  C   -0.070253
    14  H    0.025959
    15  N   -0.347186
    16  C    0.138443
    17  C   -0.175728
    18  C   -0.042928
    19  C    0.173858
    20  C    0.164801
    21  C    0.001198
    22  O   -0.229626
    23  C    0.054731
    24  N   -0.257147
    25  C   -0.006408
    26  C   -0.021885
    27  C   -0.004510
    28  C    0.016323
    29  C    0.057137
    30  C    0.038564
    31  C   -0.002755
    32  N   -0.349137
    33  C    0.091994
    34  C   -0.191242
    35  C    0.000936
    36  C    0.118577
    37  C    0.151201
    38  C    0.079087
    39  O   -0.194600
    40  C    0.005626
    41  C    0.224939
    42  O   -0.217091
    43  O   -0.326160
    44  C    0.174542
    45  H   -0.017146
    46  H   -0.042483
    47  H   -0.036560
    48  H    0.000625
    49  H    0.005446
    50  H    0.014660
    51  H    0.013584
    52  H    0.016664
    53  H    0.006700
    54  H    0.005803
    55  H    0.043382
    56  H    0.028580
    57  H    0.042073
    58  H    0.047496
    59  H   -0.009944
    60  H    0.058754
    61  H    0.031692
    62  H    0.040084
    63  H    0.020123
    64  H    0.008840
    65  H    0.024613
    66  H    0.011791
    67  H    0.017602
    68  H    0.008255
    69  H    0.004652
    70  H    0.016481
    71  H    0.008720
    72  H    0.019593
    73  H   -0.000745
    74  H    0.052453
    75  H    0.027022
    76  H    0.034503
    77  H    0.037779
    78  H    0.033791
    79  H    0.035408
    80  Mg   0.811215
    81  C    0.053162
    82  C   -0.123012
    83  C   -0.063805
    84  C   -0.065430
    85  N   -0.267878
    86  C   -0.054898
    87  C   -0.044066
    88  C   -0.099882
    89  C    0.112751
    90  C    0.068894
    91  C    0.138591
    92  C   -0.083145
    93  H   -0.006569
    94  N   -0.362785
    95  C    0.148179
    96  C   -0.139275
    97  C   -0.064754
    98  C    0.139333
    99  C    0.103287
   100  C   -0.015286
   101  O   -0.185045
   102  C    0.069085
   103  N   -0.322248
   104  C    0.034082
   105  C   -0.048981
   106  C   -0.011822
   107  C    0.064133
   108  C    0.078934
   109  C    0.007242
   110  C    0.029990
   111  N   -0.332856
   112  C    0.080385
   113  C   -0.182283
   114  C    0.030899
   115  C    0.076637
   116  C    0.117220
   117  C    0.052324
   118  O   -0.200668
   119  C   -0.080734
   120  C    0.223748
   121  O   -0.248580
   122  O   -0.309996
   123  C    0.170754
   124  H   -0.035023
   125  H    0.002004
   126  H   -0.033079
   127  H   -0.004799
   128  H   -0.000962
   129  H    0.028221
   130  H    0.011852
   131  H    0.014444
   132  H   -0.009243
   133  H    0.049584
   134  H    0.031248
   135  H    0.021234
   136  H    0.030226
   137  H    0.013486
   138  H    0.050662
   139  H    0.035178
   140  H    0.045107
   141  H    0.034457
   142  H    0.016500
   143  H    0.007028
   144  H    0.017629
   145  H    0.024262
   146  H    0.016130
   147  H    0.003794
   148  H    0.003977
   149  H    0.022780
   150  H    0.008362
   151  H    0.020794
   152  H    0.040150
   153  H    0.033950
   154  H    0.013510
   155  H    0.060434
   156  H    0.051637
   157  H    0.033608
   158  H    0.044006
 Sum of Mulliken charges =  -0.00000

 Dipole moment (field-independent basis, Debye):
    X=             -4.1074    Y=              4.1960    Z=             -0.7579  Tot=              5.9204
 Quadrupole moment (field-independent basis, Debye-Ang):
   XX=           -501.6252   YY=           -502.0247   ZZ=           -505.5945
   XY=             62.6529   XZ=            -45.0903   YZ=             -4.8577

 Normal termination of Gaussian 16 at Thu Sep 16 12:02:21 2021.
