 Gaussian 16, Revision A.03,
 Gaussian 16:  ES64L-G16RevA.03 25-Dec-2016

 -----------------------------------
 #p cam-b3lyp/Def2SVP td=(nstates=5)
 -----------------------------------

 --------------------------------
 TDDFT excited states in gaussian
 --------------------------------
 Symbolic Z-matrix:
 Charge =  0 Multiplicity = 1

                         Standard orientation:
 ---------------------------------------------------------------------
 Center     Atomic      Atomic             Coordinates (Angstroms)
 Number     Number       Type             X           Y           Z
 ---------------------------------------------------------------------
      1         12           0      -21.302574   -0.520436    0.011784
      2          6           0      -19.735526    2.734490   -0.861905
      3          6           0      -20.640752    0.391194    3.198450
      4          6           0      -22.390387   -3.434830    0.620546
      5          6           0      -21.007422   -1.317012   -3.445421
      6          7           0      -20.262323    1.319455    1.000300
      7          6           0      -19.899364    2.542986    0.463267
      8          6           0      -19.614673    3.635974    1.499776
      9          6           0      -19.468083    2.730450    2.761475
     10          6           0      -20.153687    1.375787    2.332700
     11          6           0      -18.063987    2.512838    3.230587
     12          6           0      -20.651983    4.803092    1.612597
     13          6           0      -20.154588    6.147282    2.027898
     14          1           0      -21.095767    6.941577    2.927949
     15          7           0      -21.548619   -1.429381    1.725542
     16          6           0      -21.273226   -0.877868    2.994325
     17          6           0      -21.789174   -1.780624    3.982604
     18          6           0      -22.442020   -2.825302    3.194501
     19          6           0      -22.138281   -2.569227    1.832885
     20          6           0      -21.784180   -1.522164    5.534706
     21          6           0      -23.260766   -3.947046    3.756340
     22          8           0      -23.743327   -4.848894    3.028871
     23          6           0      -23.610059   -4.058052    5.195530
     24          7           0      -21.515273   -2.217489   -1.156460
     25          6           0      -22.024995   -3.350865   -0.670052
     26          6           0      -22.224943   -4.468062   -1.743810
     27          6           0      -22.194139   -3.566133   -3.033593
     28          6           0      -21.481232   -2.278321   -2.537777
     29          6           0      -21.058793   -5.508194   -1.739206
     30          6           0      -23.649398   -3.214473   -3.558251
     31          6           0      -24.652243   -4.354628   -3.833468
     32          7           0      -20.581406    0.484643   -1.804849
     33          6           0      -20.605158    0.027873   -3.117681
     34          6           0      -20.026434    1.024305   -3.988266
     35          6           0      -19.711025    2.106328   -3.156553
     36          6           0      -19.981161    1.714445   -1.816615
     37          6           0      -19.937800    0.970612   -5.476417
     38          6           0      -19.171565    3.459791   -3.151889
     39          8           0      -18.803308    4.230876   -4.028115
     40          6           0      -19.282197    3.906720   -1.602885
     41          6           0      -17.968381    4.415841   -1.248770
     42          8           0      -16.902466    3.780363   -1.232291
     43          8           0      -18.005868    5.775938   -1.363867
     44          6           0      -16.816606    6.531365   -1.132684
     45          1           0      -20.533103    0.810716    4.201058
     46          1           0      -22.767845   -4.446149    0.784380
     47          1           0      -20.957716   -1.613241   -4.495659
     48          1           0      -18.640822    4.061214    1.256181
     49          1           0      -20.107623    3.090438    3.566846
     50          1           0      -17.794867    1.491161    2.962460
     51          1           0      -18.027687    2.569235    4.318427
     52          1           0      -17.294489    3.171637    2.828628
     53          1           0      -21.368644    4.512577    2.380247
     54          1           0      -21.192974    4.846694    0.667712
     55          1           0      -20.035956    6.676292    1.082503
     56          1           0      -19.117585    6.125424    2.363214
     57          1           0      -22.748078   -1.261778    5.970970
     58          1           0      -21.028152   -0.788365    5.812815
     59          1           0      -21.439414   -2.487416    5.907628
     60          1           0      -22.726062   -4.397802    5.735786
     61          1           0      -24.401608   -4.806106    5.247576
     62          1           0      -24.000972   -3.085873    5.493944
     63          1           0      -23.180585   -4.937647   -1.508279
     64          1           0      -21.617285   -3.958403   -3.870579
     65          1           0      -21.488267   -6.448901   -1.393742
     66          1           0      -20.174912   -5.230544   -1.165870
     67          1           0      -20.828054   -5.578286   -2.803143
     68          1           0      -23.555545   -2.717567   -4.523554
     69          1           0      -24.042438   -2.464528   -2.872037
     70          1           0      -25.501619   -4.134930   -3.186809
     71          1           0      -24.140928   -5.248511   -3.475066
     72          1           0      -24.975896   -4.386970   -4.873698
     73          1           0      -20.592216    0.144055   -5.754216
     74          1           0      -18.898195    0.737690   -5.706615
     75          1           0      -20.177230    1.911893   -5.971121
     76          1           0      -20.040440    4.682928   -1.501208
     77          1           0      -15.981366    5.892954   -0.843907
     78          1           0      -17.052441    7.174912   -0.285048
     79          1           0      -16.606186    7.202607   -1.964087
     80         12           0       20.181652   -0.853904   -0.174980
     81          6           0       22.433839    1.905919   -0.556890
     82          6           0       18.144563    1.356616    1.670946
     83          6           0       18.389046   -3.382046    0.873459
     84          6           0       22.471358   -2.871211   -1.675041
     85          7           0       20.287334    1.380562    0.416132
     86          6           0       21.255334    2.244421    0.026233
     87          6           0       20.837125    3.651540    0.419876
     88          6           0       19.451157    3.562866    1.118726
     89          6           0       19.248065    2.037050    1.049297
     90          6           0       19.432504    4.201052    2.620195
     91          6           0       20.748532    4.637058   -0.822998
     92          6           0       21.429275    5.997331   -0.667460
     93          1           0       21.486982    6.724142    0.735842
     94          7           0       18.512694   -0.998718    1.152926
     95          6           0       17.858799   -0.017882    1.738372
     96          6           0       16.797999   -0.607713    2.505347
     97          6           0       16.701111   -1.991567    2.211781
     98          6           0       17.894033   -2.179009    1.428241
     99          6           0       15.751112    0.225130    3.243291
    100          6           0       15.659474   -3.065664    2.483246
    101          8           0       15.821275   -4.235451    2.187552
    102          6           0       14.367280   -2.594604    3.091752
    103          7           0       20.607099   -2.855735   -0.082510
    104          6           0       19.573104   -3.740707    0.228579
    105          6           0       19.836755   -5.186180   -0.274011
    106          6           0       21.069230   -4.903485   -1.213396
    107          6           0       21.421039   -3.433000   -0.988383
    108          6           0       20.093584   -6.136921    0.904161
    109          6           0       20.741550   -5.081900   -2.770981
    110          6           0       21.265610   -6.288716   -3.474517
    111          7           0       21.978512   -0.566177   -1.047812
    112          6           0       22.818851   -1.510431   -1.596953
    113          6           0       24.108900   -0.955633   -1.998485
    114          6           0       24.009264    0.427177   -1.607219
    115          6           0       22.771871    0.572458   -0.936672
    116          6           0       25.113305   -1.683046   -2.817007
    117          6           0       24.650915    1.731337   -1.670380
    118          8           0       25.741101    2.006706   -2.203758
    119          6           0       23.640386    2.786276   -0.940081
    120          6           0       24.391951    3.294857    0.196423
    121          8           0       24.871258    2.589152    1.056767
    122          8           0       24.472849    4.630479    0.173218
    123          6           0       25.242510    5.402309    1.198720
    124          1           0       17.440508    2.012214    2.187452
    125          1           0       17.664913   -4.197568    0.807742
    126          1           0       23.136712   -3.540109   -2.224400
    127          1           0       21.566956    4.008960    1.146321
    128          1           0       18.698442    4.165436    0.610081
    129          1           0       20.238630    4.924167    2.744531
    130          1           0       19.533125    3.344049    3.286675
    131          1           0       18.468761    4.675199    2.805179
    132          1           0       19.742797    4.814750   -1.201349
    133          1           0       21.260119    4.186044   -1.673186
    134          1           0       21.020883    6.732450   -1.361263
    135          1           0       22.435922    5.802529   -1.037360
    136          1           0       14.826534    0.376055    2.685837
    137          1           0       16.173150    1.155395    3.624738
    138          1           0       15.513899   -0.328652    4.151390
    139          1           0       13.979284   -1.657493    2.691386
    140          1           0       14.394289   -2.455598    4.171612
    141          1           0       13.564277   -3.256800    2.767944
    142          1           0       18.946486   -5.507630   -0.813869
    143          1           0       21.867530   -5.589940   -0.930962
    144          1           0       19.874072   -5.712349    1.883683
    145          1           0       21.139472   -6.437090    0.957878
    146          1           0       19.498545   -7.040990    0.770886
    147          1           0       21.087456   -4.267530   -3.407549
    148          1           0       19.673373   -5.042900   -2.981268
    149          1           0       20.440878   -6.909807   -3.821696
    150          1           0       21.842352   -6.791671   -2.698082
    151          1           0       21.864553   -5.997650   -4.337394
    152          1           0       25.633978   -1.009786   -3.497132
    153          1           0       24.583677   -2.516629   -3.277870
    154          1           0       25.843536   -2.094104   -2.118605
    155          1           0       23.380068    3.616232   -1.595594
    156          1           0       26.241665    4.977189    1.295707
    157          1           0       24.773173    5.376785    2.182476
    158          1           0       25.257557    6.476811    1.018282
 ---------------------------------------------------------------------

 SCF Done:  E(RCAM-B3LYP) =  -4069.80188290     A.U. after   18 cycles

 Excitation energies and oscillator strengths:

 Excited State   1:      Singlet-A      1.6590 eV  747.36 nm  f=0.3852  <S**2>=0.000
     309 -> 316       -0.15614
     311 -> 313        0.69164
     309 <- 316       -0.10434
 This state for optimization and/or second-order correction.
 Total Energy, E(TD-HF/TD-DFT) =  -4069.74091751
 Copying the excited state density for this state as the 1-particle RhoCI density.

 Excited State   2:      Singlet-A      1.6835 eV  736.49 nm  f=0.4074  <S**2>=0.000
     310 -> 315       -0.17294
     312 -> 314        0.68700
     310 <- 315       -0.10715

 Excited State   3:      Singlet-A      2.1781 eV  569.22 nm  f=0.2131  <S**2>=0.000
     309 -> 313        0.66758
     311 -> 316        0.21706

 Excited State   4:      Singlet-A      2.1994 eV  563.73 nm  f=0.1344  <S**2>=0.000
     310 -> 314        0.65027
     312 -> 315        0.26295

 Excited State   5:      Singlet-A      2.8379 eV  436.88 nm  f=0.0000  <S**2>=0.000
     312 -> 313        0.70710

 The electronic state is 1-A.
 Alpha  occ. eigenvalues --  -46.88931 -46.88611 -19.25255 -19.24848 -19.19927
 Alpha  occ. eigenvalues --  -19.19520 -19.19456 -19.19004 -19.18511 -19.17467
 Alpha  occ. eigenvalues --  -14.42343 -14.41870 -14.41704 -14.41465 -14.39739
 Alpha  occ. eigenvalues --  -14.39605 -14.39366 -14.39079 -10.39181 -10.38494
 Alpha  occ. eigenvalues --  -10.36013 -10.35777 -10.35452 -10.34024 -10.32534
 Alpha  occ. eigenvalues --  -10.31441 -10.31324 -10.31162 -10.30838 -10.30768
 Alpha  occ. eigenvalues --  -10.30735 -10.30732 -10.30510 -10.30486 -10.30398
 Alpha  occ. eigenvalues --  -10.30261 -10.29885 -10.29641 -10.29575 -10.29170
 Alpha  occ. eigenvalues --  -10.29107 -10.29091 -10.29017 -10.28992 -10.28740
 Alpha  occ. eigenvalues --  -10.28557 -10.28346 -10.28200 -10.28173 -10.28153
 Alpha  occ. eigenvalues --  -10.28147 -10.28145 -10.28051 -10.28037 -10.28010
 Alpha  occ. eigenvalues --  -10.27959 -10.27926 -10.27801 -10.27789 -10.27718
 Alpha  occ. eigenvalues --  -10.27609 -10.27458 -10.27418 -10.27086 -10.27078
 Alpha  occ. eigenvalues --  -10.26998 -10.26749 -10.26651 -10.26563 -10.26421
 Alpha  occ. eigenvalues --  -10.26419 -10.26228 -10.26217 -10.26059 -10.26047
 Alpha  occ. eigenvalues --  -10.25976 -10.25798 -10.25769 -10.25649 -10.25631
 Alpha  occ. eigenvalues --  -10.25575 -10.25569 -10.25566 -10.25560 -10.25455
 Alpha  occ. eigenvalues --  -10.25012  -3.17593  -3.17240  -1.92462  -1.92105
 Alpha  occ. eigenvalues --   -1.92045  -1.91915  -1.91700  -1.91550  -1.16575
 Alpha  occ. eigenvalues --   -1.16553  -1.10835  -1.10261  -1.08430  -1.07499
 Alpha  occ. eigenvalues --   -1.07362  -1.07057  -1.04948  -1.04641  -1.04069
 Alpha  occ. eigenvalues --   -1.03695  -1.03501  -1.03136  -1.02569  -1.01877
 Alpha  occ. eigenvalues --   -0.93739  -0.92155  -0.89590  -0.88831  -0.88627
 Alpha  occ. eigenvalues --   -0.88256  -0.88089  -0.88081  -0.87497  -0.87100
 Alpha  occ. eigenvalues --   -0.87013  -0.86873  -0.86398  -0.86276  -0.84779
 Alpha  occ. eigenvalues --   -0.84220  -0.84116  -0.84076  -0.83179  -0.82657
 Alpha  occ. eigenvalues --   -0.82108  -0.81824  -0.81279  -0.81101  -0.80886
 Alpha  occ. eigenvalues --   -0.80689  -0.78601  -0.78257  -0.77667  -0.77525
 Alpha  occ. eigenvalues --   -0.77322  -0.76859  -0.76271  -0.76263  -0.75480
 Alpha  occ. eigenvalues --   -0.74834  -0.73394  -0.72477  -0.71407  -0.70980
 Alpha  occ. eigenvalues --   -0.69326  -0.68743  -0.68681  -0.68210  -0.67792
 Alpha  occ. eigenvalues --   -0.67642  -0.66977  -0.66967  -0.65738  -0.65549
 Alpha  occ. eigenvalues --   -0.65170  -0.65154  -0.64940  -0.64616  -0.64515
 Alpha  occ. eigenvalues --   -0.64492  -0.62416  -0.62095  -0.60786  -0.60493
 Alpha  occ. eigenvalues --   -0.59817  -0.59561  -0.59222  -0.58900  -0.58810
 Alpha  occ. eigenvalues --   -0.58482  -0.58434  -0.58035  -0.57717  -0.57464
 Alpha  occ. eigenvalues --   -0.56075  -0.55945  -0.55751  -0.55669  -0.55155
 Alpha  occ. eigenvalues --   -0.54924  -0.54661  -0.54359  -0.54232  -0.53737
 Alpha  occ. eigenvalues --   -0.53494  -0.53309  -0.53270  -0.52982  -0.52910
 Alpha  occ. eigenvalues --   -0.52908  -0.52611  -0.52597  -0.52453  -0.52354
 Alpha  occ. eigenvalues --   -0.52086  -0.51795  -0.51456  -0.51279  -0.51263
 Alpha  occ. eigenvalues --   -0.51183  -0.51057  -0.50580  -0.50520  -0.50335
 Alpha  occ. eigenvalues --   -0.50064  -0.49964  -0.49943  -0.49886  -0.49753
 Alpha  occ. eigenvalues --   -0.49534  -0.49257  -0.49245  -0.49020  -0.48770
 Alpha  occ. eigenvalues --   -0.48747  -0.48560  -0.48391  -0.48368  -0.48188
 Alpha  occ. eigenvalues --   -0.48136  -0.47895  -0.47711  -0.47606  -0.47422
 Alpha  occ. eigenvalues --   -0.47298  -0.46736  -0.46596  -0.46565  -0.46422
 Alpha  occ. eigenvalues --   -0.46234  -0.46186  -0.46111  -0.45987  -0.45883
 Alpha  occ. eigenvalues --   -0.45434  -0.45298  -0.45153  -0.45093  -0.45017
 Alpha  occ. eigenvalues --   -0.44877  -0.44503  -0.44398  -0.44229  -0.43988
 Alpha  occ. eigenvalues --   -0.43816  -0.43742  -0.43585  -0.43309  -0.43290
 Alpha  occ. eigenvalues --   -0.43127  -0.43010  -0.42881  -0.42750  -0.42721
 Alpha  occ. eigenvalues --   -0.42602  -0.42464  -0.42148  -0.42049  -0.41836
 Alpha  occ. eigenvalues --   -0.41673  -0.41508  -0.41407  -0.41376  -0.41281
 Alpha  occ. eigenvalues --   -0.41002  -0.40719  -0.40668  -0.40543  -0.40283
 Alpha  occ. eigenvalues --   -0.39848  -0.39712  -0.39524  -0.39318  -0.39305
 Alpha  occ. eigenvalues --   -0.38612  -0.38385  -0.38278  -0.37913  -0.37800
 Alpha  occ. eigenvalues --   -0.37220  -0.36966  -0.36545  -0.36440  -0.36214
 Alpha  occ. eigenvalues --   -0.36141  -0.35865  -0.34650  -0.34446  -0.34353
 Alpha  occ. eigenvalues --   -0.33756  -0.33172  -0.33002  -0.31685  -0.31603
 Alpha  occ. eigenvalues --   -0.31435  -0.31230  -0.30732  -0.30166  -0.30078
 Alpha  occ. eigenvalues --   -0.29927  -0.29842  -0.29386  -0.24306  -0.23824
 Alpha  occ. eigenvalues --   -0.21764  -0.20953
 Alpha virt. eigenvalues --   -0.09693  -0.08710  -0.01109  -0.00812   0.00124
 Alpha virt. eigenvalues --    0.00255   0.01708   0.01789   0.02085   0.02220
 Alpha virt. eigenvalues --    0.03889   0.04774   0.04938   0.05530   0.05937

 Mulliken charges:
               1
     1  Mg   0.846893
     2  C    0.005403
     3  C   -0.055089
     4  C   -0.031297
     5  C   -0.072627
     6  N   -0.231491
     7  C   -0.075671
     8  C   -0.050066
     9  C   -0.049649
    10  C   -0.041724
    11  C    0.095473
    12  C    0.083134
    13  C   -0.058011
    14  H    0.037276
    15  N   -0.406902
    16  C    0.180165
    17  C   -0.159278
    18  C   -0.027473
    19  C    0.117518
    20  C    0.116965
    21  C   -0.040701
    22  O   -0.244754
    23  C    0.073563
    24  N   -0.320034
    25  C    0.020743
    26  C   -0.057380
    27  C   -0.052492
    28  C    0.068235
    29  C    0.098061
    30  C    0.007918
    31  C    0.024830
    32  N   -0.315190
    33  C    0.105940
    34  C   -0.190311
    35  C    0.005572
    36  C    0.086704
    37  C    0.131692
    38  C    0.079926
    39  O   -0.155755
    40  C    0.008055
    41  C    0.184164
    42  O   -0.240446
    43  O   -0.318913
    44  C    0.170282
    45  H   -0.033455
    46  H   -0.013419
    47  H   -0.020855
    48  H    0.010297
    49  H   -0.000303
    50  H    0.022597
    51  H    0.011697
    52  H    0.026501
    53  H    0.008175
    54  H    0.007406
    55  H    0.024542
    56  H    0.020989
    57  H    0.046360
    58  H    0.017054
    59  H    0.022002
    60  H    0.041820
    61  H    0.028603
    62  H    0.025081
    63  H    0.022008
    64  H   -0.000190
    65  H    0.023698
    66  H    0.038006
    67  H    0.007177
    68  H   -0.000293
    69  H    0.009452
    70  H    0.020186
    71  H    0.016601
    72  H    0.025541
    73  H    0.010513
    74  H    0.036116
    75  H    0.041389
    76  H    0.041964
    77  H    0.049426
    78  H    0.016025
    79  H    0.044029
    80  Mg   0.829352
    81  C   -0.027441
    82  C   -0.081368
    83  C   -0.048352
    84  C   -0.098001
    85  N   -0.248709
    86  C   -0.030246
    87  C    0.007188
    88  C   -0.059264
    89  C    0.026561
    90  C    0.039534
    91  C    0.031816
    92  C   -0.059011
    93  H    0.004015
    94  N   -0.302856
    95  C    0.146156
    96  C   -0.169023
    97  C   -0.020024
    98  C    0.093323
    99  C    0.099933
   100  C    0.033807
   101  O   -0.186979
   102  C    0.024081
   103  N   -0.332260
   104  C   -0.001083
   105  C   -0.024814
   106  C   -0.002643
   107  C    0.080343
   108  C    0.078537
   109  C   -0.015199
   110  C    0.023916
   111  N   -0.395361
   112  C    0.148624
   113  C   -0.178818
   114  C    0.024798
   115  C    0.119063
   116  C    0.137502
   117  C    0.044581
   118  O   -0.191631
   119  C    0.008866
   120  C    0.183315
   121  O   -0.215321
   122  O   -0.324722
   123  C    0.186203
   124  H   -0.034532
   125  H   -0.001816
   126  H   -0.023804
   127  H    0.020271
   128  H    0.020921
   129  H    0.027637
   130  H    0.023979
   131  H    0.016039
   132  H    0.005699
   133  H    0.004831
   134  H    0.020180
   135  H    0.032994
   136  H    0.044445
   137  H    0.015505
   138  H    0.008519
   139  H    0.015433
   140  H    0.052122
   141  H    0.023593
   142  H    0.017669
   143  H    0.012696
   144  H    0.031321
   145  H    0.004840
   146  H    0.019364
   147  H    0.006171
   148  H   -0.004145
   149  H    0.014288
   150  H    0.005104
   151  H    0.017083
   152  H    0.042121
   153  H    0.016899
   154  H    0.031340
   155  H    0.029683
   156  H    0.052770
   157  H    0.029849
   158  H    0.042544
 Sum of Mulliken charges =  -0.00000

 Dipole moment (field-independent basis, Debye):
    X=             -6.2790    Y=              2.7248    Z=              2.1689  Tot=              7.1802
 Quadrupole moment (field-independent basis, Debye-Ang):
   XX=           -648.6253   YY=           -493.9619   ZZ=           -490.7404
   XY=             -5.4414   XZ=            -47.6900   YZ=             49.0742

 Normal termination of Gaussian 16 at Tue Sep 14 20:34:19 2021.
