 Gaussian 16, Revision A.03,
 Gaussian 16:  ES64L-G16RevA.03 25-Dec-2016

 ----------------------------------------------------------
 #p cam-b3lyp/Def2SVP td=(nstates=5) density=(transition=1)
 ----------------------------------------------------------

 --------------------------------
 TDDFT excited states in gaussian
 --------------------------------
 Symbolic Z-matrix:
 Charge =  0 Multiplicity = 1

                         Standard orientation:
 ---------------------------------------------------------------------
 Center     Atomic      Atomic             Coordinates (Angstroms)
 Number     Number       Type             X           Y           Z
 ---------------------------------------------------------------------
      1         12           0       13.698340   -0.724732   -0.073158
      2          6           0       12.294746    2.201883   -1.616981
      3          6           0       15.951442    1.482570    1.546172
      4          6           0       15.299529   -3.439053    1.431824
      5          6           0       11.792913   -2.730364   -1.945882
      6          7           0       14.175522    1.642567   -0.242222
      7          6           0       13.393011    2.572249   -0.831011
      8          6           0       14.012484    4.001274   -0.625282
      9          6           0       15.289678    3.640202    0.214389
     10          6           0       15.113892    2.158209    0.617793
     11          6           0       16.618568    3.926281   -0.568413
     12          6           0       13.078954    4.968243    0.102566
     13          6           0       12.996122    6.351404   -0.454754
     14          1           0       12.001983    7.341403    0.169334
     15          7           0       15.213048   -0.965792    1.420729
     16          6           0       16.000681    0.063064    1.926420
     17          6           0       16.906482   -0.503803    2.905795
     18          6           0       16.689507   -1.869753    2.979763
     19          6           0       15.743186   -2.170350    1.853040
     20          6           0       17.999851    0.256062    3.600244
     21          6           0       17.392296   -2.991844    3.848331
     22          8           0       17.151574   -4.174231    3.859614
     23          6           0       18.372686   -2.567677    4.920322
     24          7           0       13.701942   -2.735561   -0.311119
     25          6           0       14.399565   -3.697152    0.372295
     26          6           0       14.200745   -5.105746   -0.234487
     27          6           0       12.907398   -4.914163   -1.135554
     28          6           0       12.773164   -3.343956   -1.102614
     29          6           0       15.467745   -5.634286   -0.980084
     30          6           0       11.634427   -5.640327   -0.603710
     31          6           0       11.051842   -5.088716    0.695570
     32          7           0       12.361057   -0.423834   -1.493748
     33          6           0       11.552385   -1.371654   -2.180757
     34          6           0       10.654030   -0.698142   -3.115936
     35          6           0       10.879361    0.670215   -2.881568
     36          6           0       11.895343    0.805594   -1.898726
     37          6           0        9.704784   -1.345371   -4.013733
     38          6           0       10.434063    1.987221   -3.325304
     39          8           0        9.544748    2.283254   -4.105667
     40          6           0       11.400307    3.060691   -2.585988
     41          6           0       10.339727    3.960926   -1.947677
     42          8           0        9.598294    3.714960   -0.979223
     43          8           0       10.263081    5.084032   -2.640175
     44          6           0        9.499782    6.263162   -2.061427
     45          1           0       16.589895    2.177671    2.094860
     46          1           0       15.744555   -4.347590    1.845004
     47          1           0       11.150809   -3.440868   -2.470046
     48          1           0       14.140298    4.383675   -1.637411
     49          1           0       15.322428    4.191635    1.155001
     50          1           0       17.335237    4.579314   -0.070385
     51          1           0       16.468745    4.201857   -1.612476
     52          1           0       17.301869    3.083844   -0.677983
     53          1           0       13.679934    5.214426    0.978140
     54          1           0       12.128055    4.516178    0.386729
     55          1           0       12.862923    6.499532   -1.527622
     56          1           0       13.983163    6.759451   -0.236876
     57          1           0       17.917891    1.327032    3.416541
     58          1           0       19.014719   -0.040131    3.330359
     59          1           0       17.998072    0.195209    4.688666
     60          1           0       17.916177   -1.918359    5.667294
     61          1           0       19.155465   -2.100198    4.322893
     62          1           0       18.787508   -3.515265    5.264027
     63          1           0       14.108180   -5.750349    0.640305
     64          1           0       13.029421   -5.008384   -2.214823
     65          1           0       15.939958   -6.470880   -0.465148
     66          1           0       16.234050   -4.914876   -1.266616
     67          1           0       15.029384   -5.954467   -1.925468
     68          1           0       11.810019   -6.712440   -0.693363
     69          1           0       10.843780   -5.482914   -1.337134
     70          1           0       11.638049   -4.314809    1.189743
     71          1           0       11.009437   -5.937642    1.377486
     72          1           0       10.109787   -4.549783    0.601433
     73          1           0        9.127390   -0.666602   -4.641744
     74          1           0        9.041386   -1.911500   -3.360016
     75          1           0       10.263630   -2.057421   -4.622659
     76          1           0       11.912908    3.712542   -3.293377
     77          1           0        9.837718    7.135051   -2.621959
     78          1           0        9.758269    6.467311   -1.022828
     79          1           0        8.417079    6.134114   -2.084958
     80         12           0      -13.695700   -0.564843   -0.282223
     81          6           0      -11.992044    2.326008    0.502997
     82          6           0      -16.585997    1.260738   -0.139100
     83          6           0      -15.396306   -3.442560   -0.762944
     84          6           0      -10.783780   -2.408962    0.175028
     85          7           0      -14.163425    1.583349    0.289990
     86          6           0      -13.350779    2.566116    0.362608
     87          6           0      -14.005674    4.036658    0.492992
     88          6           0      -15.519451    3.594069    0.583575
     89          6           0      -15.461779    2.017214    0.307037
     90          6           0      -16.214144    3.817112    2.027439
     91          6           0      -13.695666    5.031802   -0.707795
     92          6           0      -13.612396    6.565501   -0.383063
     93          1           0      -14.083223    6.991261    0.974757
     94          7           0      -15.647068   -1.016511   -0.503242
     95          6           0      -16.760865   -0.087738   -0.499449
     96          6           0      -17.968306   -0.853288   -0.791517
     97          6           0      -17.656279   -2.233847   -0.863262
     98          6           0      -16.180691   -2.279974   -0.753107
     99          6           0      -19.227842   -0.084695   -0.970624
    100          6           0      -18.549622   -3.467252   -1.133290
    101          8           0      -18.199989   -4.608523   -1.074342
    102          6           0      -20.048089   -3.154885   -1.320621
    103          7           0      -13.239479   -2.682958   -0.199509
    104          6           0      -14.062168   -3.659382   -0.418718
    105          6           0      -13.420195   -5.037717   -0.092685
    106          6           0      -11.919214   -4.711381    0.095427
    107          6           0      -11.941386   -3.167292    0.005664
    108          6           0      -14.082880   -5.679592    1.144788
    109          6           0      -11.015521   -5.427606   -0.954588
    110          6           0      -10.872021   -6.945725   -0.759906
    111          7           0      -11.739256   -0.165232    0.236740
    112          6           0      -10.651662   -1.019400    0.278921
    113          6           0       -9.498337   -0.201224    0.546972
    114          6           0       -9.930103    1.150804    0.695675
    115          6           0      -11.327060    1.062208    0.447775
    116          6           0       -8.176381   -0.686232    0.703977
    117          6           0       -9.569827    2.519217    0.889251
    118          8           0       -8.434810    3.001195    1.180817
    119          6           0      -10.936078    3.308627    0.884628
    120          6           0      -11.066035    3.953339    2.173908
    121          8           0      -11.471973    3.395185    3.192941
    122          8           0      -10.515952    5.204438    2.056930
    123          6           0      -10.342074    5.885124    3.357527
    124          1           0      -17.526311    1.811423   -0.075130
    125          1           0      -16.009458   -4.328201   -0.945967
    126          1           0       -9.884672   -3.026259    0.237691
    127          1           0      -13.657824    4.381848    1.466950
    128          1           0      -16.116069    4.151331   -0.138376
    129          1           0      -15.421417    3.909282    2.770402
    130          1           0      -16.846930    2.962371    2.265896
    131          1           0      -16.861655    4.689300    2.123266
    132          1           0      -14.536517    4.882020   -1.384500
    133          1           0      -12.910152    4.725843   -1.399635
    134          1           0      -14.145457    7.195127   -1.095363
    135          1           0      -12.565736    6.869941   -0.380900
    136          1           0      -19.699495    0.110138   -0.007035
    137          1           0      -19.879404   -0.506379   -1.736099
    138          1           0      -18.949450    0.876202   -1.402727
    139          1           0      -20.302113   -2.703941   -2.280410
    140          1           0      -20.232390   -2.487158   -0.479638
    141          1           0      -20.729942   -3.991855   -1.173073
    142          1           0      -13.587773   -5.595833   -1.013529
    143          1           0      -11.615246   -4.965916    1.110740
    144          1           0      -14.560073   -4.987454    1.838916
    145          1           0      -13.444554   -6.216084    1.847583
    146          1           0      -14.830647   -6.364713    0.745449
    147          1           0      -10.006296   -5.025096   -0.879521
    148          1           0      -11.385791   -5.222911   -1.959699
    149          1           0      -11.537724   -7.236963    0.052586
    150          1           0       -9.902117   -7.150816   -0.306531
    151          1           0      -10.952161   -7.599603   -1.627975
    152          1           0       -8.052627   -1.404032   -0.107009
    153          1           0       -7.965066   -1.223660    1.628288
    154          1           0       -7.495689    0.165566    0.720114
    155          1           0      -10.772415    4.069895    0.121426
    156          1           0       -9.589384    5.311432    3.899033
    157          1           0      -11.292693    6.039316    3.866991
    158          1           0       -9.929826    6.872971    3.151241
 ---------------------------------------------------------------------

 SCF Done:  E(RCAM-B3LYP) =  -4069.80978629     A.U. after   18 cycles

 Excitation energies and oscillator strengths:

 Excited State   1:      Singlet-A      1.6509 eV  751.00 nm  f=0.3830  <S**2>=0.000
     309 -> 315       -0.18394
     312 -> 313        0.68505
     309 <- 315       -0.11252
 This state for optimization and/or second-order correction.
 Total Energy, E(TD-HF/TD-DFT) =  -4069.74911611
 Copying the excited state density for this state as the 1-particle RhoCI density.

 Excited State   2:      Singlet-A      1.7721 eV  699.64 nm  f=0.3751  <S**2>=0.000
     310 -> 316       -0.19905
     311 -> 314        0.67921
     310 <- 316       -0.10976

 Excited State   3:      Singlet-A      2.2144 eV  559.90 nm  f=0.0828  <S**2>=0.000
     310 -> 314        0.63663
     311 -> 316        0.27859

 Excited State   4:      Singlet-A      2.2173 eV  559.17 nm  f=0.1176  <S**2>=0.000
     309 -> 313        0.61954
     312 -> 315        0.31730

 Excited State   5:      Singlet-A      3.0615 eV  404.98 nm  f=0.0000  <S**2>=0.000
     311 -> 313        0.70706

 The electronic state is 1-A.
 Alpha  occ. eigenvalues --  -46.88311 -46.88221 -19.24847 -19.24703 -19.20087
 Alpha  occ. eigenvalues --  -19.19450 -19.19284 -19.19215 -19.18143 -19.17906
 Alpha  occ. eigenvalues --  -14.42388 -14.42133 -14.41477 -14.41453 -14.40032
 Alpha  occ. eigenvalues --  -14.39605 -14.39593 -14.38856 -10.38461 -10.38373
 Alpha  occ. eigenvalues --  -10.36197 -10.35525 -10.35311 -10.34664 -10.32105
 Alpha  occ. eigenvalues --  -10.31751 -10.31330 -10.31302 -10.31177 -10.31165
 Alpha  occ. eigenvalues --  -10.31015 -10.30965 -10.30594 -10.30583 -10.30555
 Alpha  occ. eigenvalues --  -10.30391 -10.30337 -10.30252 -10.29931 -10.29840
 Alpha  occ. eigenvalues --  -10.29349 -10.29131 -10.28905 -10.28844 -10.28836
 Alpha  occ. eigenvalues --  -10.28787 -10.28696 -10.28668 -10.28526 -10.28344
 Alpha  occ. eigenvalues --  -10.28341 -10.28301 -10.28287 -10.28215 -10.28099
 Alpha  occ. eigenvalues --  -10.28067 -10.28009 -10.27703 -10.27683 -10.27534
 Alpha  occ. eigenvalues --  -10.27476 -10.27462 -10.27215 -10.27100 -10.27045
 Alpha  occ. eigenvalues --  -10.27014 -10.26832 -10.26824 -10.26766 -10.26594
 Alpha  occ. eigenvalues --  -10.26544 -10.26479 -10.26205 -10.26155 -10.26078
 Alpha  occ. eigenvalues --  -10.26016 -10.26009 -10.25942 -10.25648 -10.25590
 Alpha  occ. eigenvalues --  -10.25346 -10.25328 -10.25316 -10.25244 -10.24546
 Alpha  occ. eigenvalues --  -10.24362  -3.16924  -3.16912  -1.91817  -1.91797
 Alpha  occ. eigenvalues --   -1.91385  -1.91384  -1.91227  -1.91217  -1.15850
 Alpha  occ. eigenvalues --   -1.15429  -1.12441  -1.11389  -1.09954  -1.07132
 Alpha  occ. eigenvalues --   -1.06651  -1.05298  -1.05191  -1.04231  -1.03718
 Alpha  occ. eigenvalues --   -1.03370  -1.03054  -1.02144  -1.01629  -1.00787
 Alpha  occ. eigenvalues --   -0.92434  -0.90787  -0.89237  -0.89179  -0.88681
 Alpha  occ. eigenvalues --   -0.88276  -0.87926  -0.87759  -0.87395  -0.87281
 Alpha  occ. eigenvalues --   -0.86885  -0.86876  -0.86768  -0.86376  -0.84048
 Alpha  occ. eigenvalues --   -0.83826  -0.83510  -0.83399  -0.82290  -0.82242
 Alpha  occ. eigenvalues --   -0.81661  -0.81442  -0.80964  -0.80949  -0.80194
 Alpha  occ. eigenvalues --   -0.80093  -0.78465  -0.78064  -0.77306  -0.77232
 Alpha  occ. eigenvalues --   -0.76880  -0.76298  -0.75902  -0.75666  -0.75056
 Alpha  occ. eigenvalues --   -0.74757  -0.72521  -0.72118  -0.71576  -0.71380
 Alpha  occ. eigenvalues --   -0.69997  -0.69333  -0.68707  -0.68679  -0.68096
 Alpha  occ. eigenvalues --   -0.67461  -0.66909  -0.66205  -0.65737  -0.65407
 Alpha  occ. eigenvalues --   -0.65325  -0.65050  -0.64669  -0.64495  -0.63995
 Alpha  occ. eigenvalues --   -0.63982  -0.61693  -0.61462  -0.59941  -0.59525
 Alpha  occ. eigenvalues --   -0.59281  -0.59205  -0.59045  -0.58866  -0.58192
 Alpha  occ. eigenvalues --   -0.57793  -0.57631  -0.57578  -0.57291  -0.56156
 Alpha  occ. eigenvalues --   -0.55906  -0.55630  -0.55572  -0.55411  -0.55073
 Alpha  occ. eigenvalues --   -0.54954  -0.54597  -0.54463  -0.53891  -0.53886
 Alpha  occ. eigenvalues --   -0.53272  -0.53264  -0.53142  -0.53077  -0.52862
 Alpha  occ. eigenvalues --   -0.52814  -0.52644  -0.52639  -0.52353  -0.52051
 Alpha  occ. eigenvalues --   -0.51983  -0.51823  -0.51444  -0.51286  -0.51034
 Alpha  occ. eigenvalues --   -0.50890  -0.50858  -0.50816  -0.50629  -0.50307
 Alpha  occ. eigenvalues --   -0.50043  -0.49733  -0.49536  -0.49346  -0.49218
 Alpha  occ. eigenvalues --   -0.49153  -0.49058  -0.48878  -0.48870  -0.48570
 Alpha  occ. eigenvalues --   -0.48448  -0.48380  -0.48365  -0.48105  -0.48064
 Alpha  occ. eigenvalues --   -0.47749  -0.47700  -0.47449  -0.47382  -0.46951
 Alpha  occ. eigenvalues --   -0.46655  -0.46583  -0.46547  -0.46369  -0.46265
 Alpha  occ. eigenvalues --   -0.46144  -0.46110  -0.45949  -0.45758  -0.45516
 Alpha  occ. eigenvalues --   -0.45430  -0.45155  -0.45034  -0.44837  -0.44767
 Alpha  occ. eigenvalues --   -0.44341  -0.44325  -0.44194  -0.44090  -0.44076
 Alpha  occ. eigenvalues --   -0.43894  -0.43659  -0.43570  -0.43456  -0.43443
 Alpha  occ. eigenvalues --   -0.43125  -0.43082  -0.42915  -0.42893  -0.42835
 Alpha  occ. eigenvalues --   -0.42693  -0.42582  -0.42432  -0.42180  -0.42075
 Alpha  occ. eigenvalues --   -0.41744  -0.41621  -0.41576  -0.41379  -0.41330
 Alpha  occ. eigenvalues --   -0.41104  -0.40829  -0.40570  -0.40297  -0.40120
 Alpha  occ. eigenvalues --   -0.40116  -0.39726  -0.39509  -0.39310  -0.39125
 Alpha  occ. eigenvalues --   -0.38563  -0.38135  -0.37976  -0.37899  -0.37533
 Alpha  occ. eigenvalues --   -0.37443  -0.36797  -0.36549  -0.36466  -0.36237
 Alpha  occ. eigenvalues --   -0.35976  -0.35553  -0.34223  -0.33832  -0.33804
 Alpha  occ. eigenvalues --   -0.33351  -0.33049  -0.32641  -0.31677  -0.31368
 Alpha  occ. eigenvalues --   -0.31116  -0.30916  -0.30721  -0.30289  -0.30284
 Alpha  occ. eigenvalues --   -0.30060  -0.29908  -0.29076  -0.24035  -0.23583
 Alpha  occ. eigenvalues --   -0.21153  -0.20885
 Alpha virt. eigenvalues --   -0.08627  -0.08335  -0.01961  -0.01608   0.00054
 Alpha virt. eigenvalues --    0.00729   0.02177   0.02463   0.02688   0.03489
 Alpha virt. eigenvalues --    0.05229   0.05347   0.05556   0.06024   0.06365

 Mulliken charges:
               1
     1  Mg  12.000681
     2  C    5.977893
     3  C    6.023396
     4  C    6.028284
     5  C    5.992529
     6  N    6.990741
     7  C    6.029409
     8  C    5.995170
     9  C    6.006217
    10  C    5.966843
    11  C    6.002560
    12  C    5.994222
    13  C    5.998071
    14  H    1.000594
    15  N    7.009891
    16  C    5.948258
    17  C    5.985454
    18  C    5.981503
    19  C    5.956375
    20  C    6.006959
    21  C    5.987769
    22  O    7.973489
    23  C    6.003669
    24  N    7.012171
    25  C    5.957571
    26  C    6.007217
    27  C    5.995847
    28  C    6.033736
    29  C    6.005427
    30  C    5.994462
    31  C    5.993055
    32  N    6.994287
    33  C    6.041028
    34  C    6.028433
    35  C    6.004173
    36  C    6.036223
    37  C    5.997920
    38  C    6.014341
    39  O    8.028277
    40  C    6.002935
    41  C    6.003476
    42  O    8.005009
    43  O    8.000108
    44  C    5.997590
    45  H    0.989769
    46  H    0.993881
    47  H    1.012738
    48  H    0.996386
    49  H    1.001231
    50  H    0.997125
    51  H    0.987022
    52  H    1.002364
    53  H    1.009731
    54  H    0.996337
    55  H    0.996659
    56  H    1.005868
    57  H    0.981585
    58  H    0.979339
    59  H    0.980436
    60  H    0.992255
    61  H    0.995016
    62  H    0.985510
    63  H    1.002503
    64  H    0.997567
    65  H    1.000083
    66  H    1.001226
    67  H    0.986116
    68  H    1.010559
    69  H    0.995908
    70  H    1.011756
    71  H    1.008734
    72  H    0.995814
    73  H    1.015446
    74  H    1.018641
    75  H    1.018745
    76  H    1.008839
    77  H    1.004621
    78  H    1.005305
    79  H    1.001619
    80  Mg  11.999951
    81  C    6.000238
    82  C    5.999555
    83  C    5.999808
    84  C    6.000300
    85  N    7.000047
    86  C    5.999485
    87  C    6.000215
    88  C    5.999767
    89  C    6.000842
    90  C    5.999864
    91  C    6.000113
    92  C    5.999940
    93  H    1.000147
    94  N    6.999786
    95  C    6.000950
    96  C    6.000319
    97  C    6.000578
    98  C    6.000443
    99  C    5.999843
   100  C    6.000228
   101  O    8.000570
   102  C    5.999876
   103  N    7.000019
   104  C    6.000529
   105  C    5.999883
   106  C    6.000277
   107  C    5.999288
   108  C    5.999858
   109  C    6.000125
   110  C    5.999964
   111  N    7.000137
   112  C    5.999152
   113  C    5.999406
   114  C    5.999745
   115  C    5.999532
   116  C    6.000223
   117  C    5.999536
   118  O    7.999038
   119  C    6.000056
   120  C    5.999953
   121  O    7.999999
   122  O    7.999906
   123  C    6.000028
   124  H    1.000314
   125  H    1.000210
   126  H    0.999634
   127  H    1.000078
   128  H    1.000159
   129  H    1.000297
   130  H    1.000028
   131  H    1.000296
   132  H    0.999846
   133  H    0.999910
   134  H    0.999998
   135  H    0.999955
   136  H    1.000534
   137  H    1.000407
   138  H    1.000302
   139  H    1.000221
   140  H    1.000138
   141  H    1.000441
   142  H    0.999954
   143  H    0.999992
   144  H    1.000080
   145  H    1.000278
   146  H    1.000059
   147  H    0.999812
   148  H    0.999785
   149  H    1.000095
   150  H    0.999888
   151  H    0.999902
   152  H    0.999370
   153  H    0.999496
   154  H    0.999367
   155  H    0.999727
   156  H    0.999973
   157  H    1.000055
   158  H    0.999879
 Sum of Mulliken charges = 624.00000

 Dipole moment (field-independent basis, Debye):
    X=             -8.3197    Y=              0.9380    Z=             -7.2285  Tot=             11.0611
 Quadrupole moment (field-independent basis, Debye-Ang):
   XX=           -215.4990   YY=              1.2606   ZZ=             -0.4074
   XY=             19.0572   XZ=            -99.1362   YZ=              5.4054

 Normal termination of Gaussian 16 at Wed Sep 22 12:46:31 2021.
