 Gaussian 16, Revision A.03,
 Gaussian 16:  ES64L-G16RevA.03 25-Dec-2016

 -----------------------------------
 #p cam-b3lyp/Def2SVP td=(nstates=5)
 -----------------------------------

 --------------------------------
 TDDFT excited states in gaussian
 --------------------------------
 Symbolic Z-matrix:
 Charge =  0 Multiplicity = 1

                         Standard orientation:
 ---------------------------------------------------------------------
 Center     Atomic      Atomic             Coordinates (Angstroms)
 Number     Number       Type             X           Y           Z
 ---------------------------------------------------------------------
      1         12           0       -9.808785   -0.011630   -0.475944
      2          6           0       -8.101271    0.002516    2.549503
      3          6           0       -9.489994    3.552811   -0.407560
      4          6           0      -10.964345    0.109135   -3.550904
      5          6           0       -9.347479   -3.492982   -0.634411
      6          7           0       -8.792181    1.554333    0.858066
      7          6           0       -8.243753    1.274321    2.089568
      8          6           0       -7.732816    2.561023    2.743488
      9          6           0       -8.447791    3.650499    1.897272
     10          6           0       -8.914798    2.903962    0.675432
     11          6           0       -9.654023    4.437506    2.544882
     12          6           0       -6.199957    2.679458    2.725386
     13          6           0       -5.635477    3.815002    3.490272
     14          1           0       -4.131481    3.696199    3.947413
     15          7           0      -10.178349    1.614934   -1.836382
     16          6           0      -10.010223    2.989947   -1.610168
     17          6           0      -10.432809    3.689804   -2.791151
     18          6           0      -10.742191    2.687072   -3.782577
     19          6           0      -10.656561    1.377707   -3.047996
     20          6           0      -10.355631    5.235282   -2.930582
     21          6           0      -11.146877    3.039190   -5.217580
     22          8           0      -11.372753    4.187825   -5.560551
     23          6           0      -11.275719    1.951509   -6.214495
     24          7           0      -10.310382   -1.522334   -1.792771
     25          6           0      -10.811999   -1.199457   -2.989686
     26          6           0      -10.952439   -2.501106   -3.878359
     27          6           0      -10.390931   -3.685543   -3.001422
     28          6           0       -9.918771   -2.835153   -1.699178
     29          6           0      -12.334704   -2.783398   -4.523578
     30          6           0       -9.195735   -4.356365   -3.711708
     31          6           0       -8.999691   -5.844210   -3.396149
     32          7           0       -8.919990   -1.523791    0.678592
     33          6           0       -8.916193   -2.885776    0.564086
     34          6           0       -8.360869   -3.453527    1.798489
     35          6           0       -8.127055   -2.375681    2.609635
     36          6           0       -8.404495   -1.230852    1.897568
     37          6           0       -8.234692   -4.944231    2.128996
     38          6           0       -7.614143   -1.987027    3.888893
     39          8           0       -7.227379   -2.628412    4.834630
     40          6           0       -7.589995   -0.422073    3.908379
     41          6           0       -8.538461    0.027868    4.964035
     42          8           0       -9.672112   -0.331594    5.122378
     43          8           0       -7.937359    1.071984    5.688207
     44          6           0       -8.756007    1.676914    6.700046
     45          1           0       -9.430074    4.631320   -0.250214
     46          1           0      -11.368369   -0.008516   -4.559019
     47          1           0       -9.252416   -4.580844   -0.619409
     48          1           0       -8.165344    2.576839    3.742955
     49          1           0       -7.807501    4.429515    1.484912
     50          1           0       -9.400203    5.484767    2.382193
     51          1           0      -10.048186    4.074702    3.494529
     52          1           0      -10.510962    4.272592    1.891930
     53          1           0       -5.753359    2.866570    1.748463
     54          1           0       -5.753659    1.750505    3.080472
     55          1           0       -6.272515    3.948202    4.364652
     56          1           0       -5.757756    4.727209    2.906555
     57          1           0       -9.482885    5.265439   -3.583670
     58          1           0      -10.033064    5.779843   -2.042936
     59          1           0      -11.162319    5.843954   -3.339500
     60          1           0      -10.353877    1.378643   -6.113907
     61          1           0      -11.281144    2.396804   -7.209505
     62          1           0      -12.173426    1.421856   -5.894659
     63          1           0      -10.291762   -2.340245   -4.730726
     64          1           0      -11.127658   -4.429324   -2.699569
     65          1           0      -12.258195   -2.567482   -5.589711
     66          1           0      -13.090925   -2.212817   -3.985463
     67          1           0      -12.546238   -3.852005   -4.486294
     68          1           0       -8.327417   -3.776031   -3.400756
     69          1           0       -9.191680   -4.226832   -4.794162
     70          1           0       -9.040487   -6.307995   -4.382312
     71          1           0       -9.712344   -6.254414   -2.680527
     72          1           0       -7.995319   -6.019392   -3.010405
     73          1           0       -7.295745   -5.262357    2.580860
     74          1           0       -8.405796   -5.402308    1.154547
     75          1           0       -9.144473   -5.208103    2.668458
     76          1           0       -6.565233   -0.136256    4.145904
     77          1           0       -8.336070    1.369646    7.657869
     78          1           0       -9.828520    1.481200    6.709517
     79          1           0       -8.673770    2.756642    6.578420
     80         12           0        9.955359    0.080905   -0.246896
     81          6           0        7.397974   -2.114622    0.789255
     82          6           0        7.867509    2.717354    0.461222
     83          6           0       12.310438    2.236339   -1.290078
     84          6           0       11.805466   -2.619232   -1.483645
     85          7           0        7.962949    0.185559    0.647886
     86          6           0        7.072921   -0.732607    1.013413
     87          6           0        5.744196   -0.210533    1.598645
     88          6           0        5.927741    1.321393    1.156235
     89          6           0        7.354496    1.410581    0.672429
     90          6           0        4.947357    1.770176    0.099933
     91          6           0        5.605436   -0.389076    3.210611
     92          6           0        4.151197   -0.482387    3.681705
     93          1           0        3.797807   -1.816451    4.388288
     94          7           0       10.164641    2.228016   -0.253655
     95          6           0        9.118491    3.134471    0.048835
     96          6           0        9.716763    4.448194    0.125855
     97          6           0       11.018374    4.340852   -0.355684
     98          6           0       11.247710    2.891087   -0.647880
     99          6           0        8.941368    5.713326    0.441525
    100          6           0       12.112437    5.369510   -0.527883
    101          8           0       13.198913    5.025688   -0.892140
    102          6           0       11.909083    6.811512   -0.184641
    103          7           0       11.694249   -0.116262   -1.414144
    104          6           0       12.550299    0.918540   -1.655150
    105          6           0       13.796555    0.301666   -2.348741
    106          6           0       13.861625   -1.144372   -1.890849
    107          6           0       12.361744   -1.369316   -1.586664
    108          6           0       13.604401    0.343715   -3.864046
    109          6           0       14.767042   -1.392044   -0.741551
    110          6           0       14.701148   -0.475721    0.455151
    111          7           0        9.727842   -1.964674   -0.327959
    112          6           0       10.534917   -2.952727   -0.859809
    113          6           0        9.897853   -4.258871   -0.631227
    114          6           0        8.693253   -3.960262    0.028962
    115          6           0        8.640968   -2.601871    0.183939
    116          6           0       10.408732   -5.565439   -1.062305
    117          6           0        7.565818   -4.512382    0.731067
    118          8           0        7.238737   -5.714274    0.957876
    119          6           0        6.698932   -3.282092    1.278738
    120          6           0        5.343708   -3.395559    0.630033
    121          8           0        5.198166   -3.581862   -0.541637
    122          8           0        4.232188   -3.205559    1.495105
    123          6           0        2.921693   -2.995053    0.808002
    124          1           0        7.201972    3.565686    0.630592
    125          1           0       13.053628    2.903300   -1.732811
    126          1           0       12.401593   -3.511843   -1.685796
    127          1           0        4.905374   -0.756667    1.165316
    128          1           0        5.765609    1.878959    2.079523
    129          1           0        4.145498    2.283005    0.630847
    130          1           0        4.622546    0.957149   -0.549709
    131          1           0        5.473180    2.572426   -0.417657
    132          1           0        6.058287    0.463704    3.717321
    133          1           0        6.172153   -1.256056    3.550739
    134          1           0        3.611903   -0.310636    2.749939
    135          1           0        3.868667    0.360699    4.311878
    136          1           0        8.037220    5.355936    0.932905
    137          1           0        8.661878    6.075739   -0.547328
    138          1           0        9.489738    6.384253    1.103085
    139          1           0       11.880138    6.731803    0.902191
    140          1           0       10.966404    7.233026   -0.532567
    141          1           0       12.750154    7.408082   -0.539582
    142          1           0       14.734954    0.825650   -2.170558
    143          1           0       14.225476   -1.853042   -2.634084
    144          1           0       13.313403   -0.560883   -4.398114
    145          1           0       14.538499    0.699608   -4.298552
    146          1           0       12.859285    1.108614   -4.085699
    147          1           0       15.810047   -1.457573   -1.052210
    148          1           0       14.488726   -2.389739   -0.402584
    149          1           0       14.294213   -1.080982    1.265700
    150          1           0       14.131900    0.454095    0.474633
    151          1           0       15.721874   -0.228888    0.746770
    152          1           0       10.327773   -5.618796   -2.147932
    153          1           0        9.785716   -6.277042   -0.520600
    154          1           0       11.470397   -5.673733   -0.836364
    155          1           0        6.724664   -3.393301    2.362902
    156          1           0        2.524384   -3.945680    0.452397
    157          1           0        2.983675   -2.302932   -0.033014
    158          1           0        2.105379   -2.639315    1.435986
 ---------------------------------------------------------------------

 SCF Done:  E(RCAM-B3LYP) =  -4069.80899120     A.U. after   18 cycles

 Excitation energies and oscillator strengths:

 Excited State   1:      Singlet-A      1.6951 eV  731.41 nm  f=0.3329  <S**2>=0.000
     310 -> 316        0.17381
     312 -> 314        0.68668
     310 <- 316        0.10595
 This state for optimization and/or second-order correction.
 Total Energy, E(TD-HF/TD-DFT) =  -4069.74669629
 Copying the excited state density for this state as the 1-particle RhoCI density.

 Excited State   2:      Singlet-A      1.7652 eV  702.37 nm  f=0.4186  <S**2>=0.000
     309 -> 315        0.17224
     311 -> 313        0.68645
     309 <- 315        0.10339

 Excited State   3:      Singlet-A      2.1842 eV  567.65 nm  f=0.1207  <S**2>=0.000
     310 -> 314        0.64721
     312 -> 316       -0.27023

 Excited State   4:      Singlet-A      2.2942 eV  540.42 nm  f=0.1168  <S**2>=0.000
     309 -> 313        0.63730
     311 -> 315       -0.29083

 Excited State   5:      Singlet-A      2.8502 eV  435.00 nm  f=0.0000  <S**2>=0.000
     312 -> 313        0.70699

 The electronic state is 1-A.
 Alpha  occ. eigenvalues --  -46.89749 -46.88597 -19.25054 -19.24431 -19.20596
 Alpha  occ. eigenvalues --  -19.19991 -19.19065 -19.18770 -19.18617 -19.18205
 Alpha  occ. eigenvalues --  -14.43386 -14.42739 -14.42441 -14.41316 -14.40314
 Alpha  occ. eigenvalues --  -14.39682 -14.39183 -14.39029 -10.39608 -10.39345
 Alpha  occ. eigenvalues --  -10.35170 -10.34937 -10.34704 -10.34245 -10.32435
 Alpha  occ. eigenvalues --  -10.31818 -10.31675 -10.31599 -10.31333 -10.31267
 Alpha  occ. eigenvalues --  -10.31247 -10.31218 -10.31151 -10.31088 -10.30923
 Alpha  occ. eigenvalues --  -10.30668 -10.30580 -10.30497 -10.29627 -10.29415
 Alpha  occ. eigenvalues --  -10.29365 -10.29317 -10.28808 -10.28805 -10.28709
 Alpha  occ. eigenvalues --  -10.28440 -10.28387 -10.28357 -10.28337 -10.28295
 Alpha  occ. eigenvalues --  -10.28280 -10.28266 -10.28241 -10.28227 -10.28174
 Alpha  occ. eigenvalues --  -10.28089 -10.28001 -10.27879 -10.27849 -10.27831
 Alpha  occ. eigenvalues --  -10.27608 -10.27505 -10.27494 -10.27158 -10.27102
 Alpha  occ. eigenvalues --  -10.27101 -10.26996 -10.26917 -10.26675 -10.26628
 Alpha  occ. eigenvalues --  -10.26594 -10.26588 -10.26581 -10.26577 -10.26386
 Alpha  occ. eigenvalues --  -10.26273 -10.26145 -10.26109 -10.25635 -10.25596
 Alpha  occ. eigenvalues --  -10.25378 -10.25094 -10.25093 -10.24442 -10.24398
 Alpha  occ. eigenvalues --  -10.24071  -3.18170  -3.17092  -1.93076  -1.92628
 Alpha  occ. eigenvalues --   -1.92457  -1.92014  -1.91524  -1.91409  -1.16723
 Alpha  occ. eigenvalues --   -1.15556  -1.12100  -1.10428  -1.10196  -1.08933
 Alpha  occ. eigenvalues --   -1.07322  -1.06615  -1.05266  -1.04682  -1.03877
 Alpha  occ. eigenvalues --   -1.03813  -1.03513  -1.02913  -1.02909  -1.01745
 Alpha  occ. eigenvalues --   -0.93363  -0.92917  -0.90023  -0.89563  -0.89410
 Alpha  occ. eigenvalues --   -0.89314  -0.88899  -0.88806  -0.88178  -0.87815
 Alpha  occ. eigenvalues --   -0.86912  -0.86542  -0.86196  -0.86032  -0.85316
 Alpha  occ. eigenvalues --   -0.84665  -0.84107  -0.83550  -0.83281  -0.82659
 Alpha  occ. eigenvalues --   -0.82612  -0.82440  -0.81390  -0.81080  -0.80948
 Alpha  occ. eigenvalues --   -0.79876  -0.78890  -0.77852  -0.77436  -0.77300
 Alpha  occ. eigenvalues --   -0.77212  -0.77077  -0.76295  -0.76244  -0.75607
 Alpha  occ. eigenvalues --   -0.74964  -0.73330  -0.72431  -0.72137  -0.71306
 Alpha  occ. eigenvalues --   -0.69684  -0.69447  -0.69121  -0.68818  -0.67896
 Alpha  occ. eigenvalues --   -0.67800  -0.67078  -0.66884  -0.66161  -0.65790
 Alpha  occ. eigenvalues --   -0.65685  -0.65080  -0.64910  -0.64710  -0.64171
 Alpha  occ. eigenvalues --   -0.63388  -0.62797  -0.61723  -0.60364  -0.60324
 Alpha  occ. eigenvalues --   -0.59990  -0.59904  -0.59416  -0.59119  -0.58960
 Alpha  occ. eigenvalues --   -0.58952  -0.58563  -0.58546  -0.57652  -0.57570
 Alpha  occ. eigenvalues --   -0.56591  -0.56372  -0.56009  -0.55735  -0.55575
 Alpha  occ. eigenvalues --   -0.55011  -0.54741  -0.54521  -0.54509  -0.54104
 Alpha  occ. eigenvalues --   -0.54047  -0.53954  -0.53689  -0.53677  -0.53591
 Alpha  occ. eigenvalues --   -0.53410  -0.53249  -0.53004  -0.52744  -0.52409
 Alpha  occ. eigenvalues --   -0.51997  -0.51853  -0.51785  -0.51741  -0.51616
 Alpha  occ. eigenvalues --   -0.51490  -0.50918  -0.50825  -0.50798  -0.50699
 Alpha  occ. eigenvalues --   -0.50442  -0.50388  -0.50181  -0.49993  -0.49961
 Alpha  occ. eigenvalues --   -0.49663  -0.49561  -0.49400  -0.49163  -0.49121
 Alpha  occ. eigenvalues --   -0.49033  -0.48939  -0.48414  -0.48270  -0.48197
 Alpha  occ. eigenvalues --   -0.48183  -0.47696  -0.47619  -0.47618  -0.47469
 Alpha  occ. eigenvalues --   -0.47221  -0.47151  -0.47144  -0.46675  -0.46550
 Alpha  occ. eigenvalues --   -0.46502  -0.46337  -0.46277  -0.45897  -0.45852
 Alpha  occ. eigenvalues --   -0.45526  -0.45409  -0.45380  -0.45204  -0.45184
 Alpha  occ. eigenvalues --   -0.44929  -0.44791  -0.44290  -0.44269  -0.44131
 Alpha  occ. eigenvalues --   -0.44008  -0.43771  -0.43711  -0.43477  -0.43422
 Alpha  occ. eigenvalues --   -0.43306  -0.43136  -0.43086  -0.43041  -0.42815
 Alpha  occ. eigenvalues --   -0.42814  -0.42485  -0.42480  -0.42425  -0.42387
 Alpha  occ. eigenvalues --   -0.42117  -0.41961  -0.41777  -0.41615  -0.41523
 Alpha  occ. eigenvalues --   -0.41019  -0.40896  -0.40672  -0.40379  -0.40330
 Alpha  occ. eigenvalues --   -0.40248  -0.40104  -0.39766  -0.39723  -0.39484
 Alpha  occ. eigenvalues --   -0.38891  -0.38314  -0.38146  -0.37769  -0.37692
 Alpha  occ. eigenvalues --   -0.37252  -0.37082  -0.37068  -0.36626  -0.36374
 Alpha  occ. eigenvalues --   -0.36180  -0.36154  -0.35350  -0.34638  -0.34491
 Alpha  occ. eigenvalues --   -0.34327  -0.33809  -0.33181  -0.31857  -0.31691
 Alpha  occ. eigenvalues --   -0.31352  -0.31116  -0.30747  -0.30280  -0.30208
 Alpha  occ. eigenvalues --   -0.30033  -0.29984  -0.29304  -0.24757  -0.24118
 Alpha  occ. eigenvalues --   -0.21750  -0.21362
 Alpha virt. eigenvalues --   -0.09121  -0.08937  -0.02024  -0.01713   0.00461
 Alpha virt. eigenvalues --    0.00827   0.01951   0.02200   0.02638   0.03290
 Alpha virt. eigenvalues --    0.04224   0.04702   0.05295   0.05353   0.05672

 Mulliken charges:
               1
     1  Mg   0.819370
     2  C    0.006671
     3  C   -0.063257
     4  C   -0.089513
     5  C   -0.062866
     6  N   -0.264036
     7  C   -0.106401
     8  C    0.076823
     9  C   -0.101778
    10  C    0.006004
    11  C    0.083455
    12  C    0.079684
    13  C   -0.053456
    14  H    0.023058
    15  N   -0.352379
    16  C    0.164000
    17  C   -0.120018
    18  C   -0.079628
    19  C    0.210230
    20  C    0.108964
    21  C   -0.024751
    22  O   -0.198831
    23  C    0.067360
    24  N   -0.318183
    25  C    0.038744
    26  C   -0.072179
    27  C   -0.045914
    28  C    0.073268
    29  C    0.071458
    30  C    0.009507
    31  C    0.015527
    32  N   -0.337719
    33  C    0.071469
    34  C   -0.219920
    35  C    0.070850
    36  C    0.099059
    37  C    0.148661
    38  C    0.009665
    39  O   -0.147371
    40  C   -0.000746
    41  C    0.189606
    42  O   -0.181455
    43  O   -0.348608
    44  C    0.164074
    45  H   -0.031321
    46  H   -0.042371
    47  H   -0.030841
    48  H   -0.002809
    49  H    0.005319
    50  H    0.020900
    51  H    0.026285
    52  H    0.008456
    53  H    0.003798
    54  H    0.011534
    55  H    0.014828
    56  H    0.017910
    57  H    0.035592
    58  H   -0.003574
    59  H    0.050571
    60  H    0.031124
    61  H    0.031009
    62  H    0.058679
    63  H    0.015230
    64  H    0.017762
    65  H    0.014465
    66  H    0.028237
    67  H    0.013181
    68  H    0.008737
    69  H    0.006753
    70  H    0.015766
    71  H    0.022984
    72  H    0.016708
    73  H    0.048230
    74  H   -0.015645
    75  H    0.035326
    76  H    0.041556
    77  H    0.038475
    78  H    0.045166
    79  H    0.023478
    80  Mg   0.813686
    81  C   -0.040327
    82  C   -0.100252
    83  C   -0.056187
    84  C   -0.065296
    85  N   -0.248673
    86  C   -0.044736
    87  C   -0.042288
    88  C   -0.088343
    89  C    0.097147
    90  C    0.104676
    91  C    0.047613
    92  C   -0.047568
    93  H    0.046076
    94  N   -0.365787
    95  C    0.129977
    96  C   -0.165478
    97  C   -0.010124
    98  C    0.115980
    99  C    0.118440
   100  C   -0.027584
   101  O   -0.177990
   102  C    0.053339
   103  N   -0.336448
   104  C    0.059162
   105  C   -0.036039
   106  C    0.001126
   107  C    0.092579
   108  C    0.079035
   109  C    0.053808
   110  C   -0.013978
   111  N   -0.352970
   112  C    0.068156
   113  C   -0.192115
   114  C    0.046577
   115  C    0.100680
   116  C    0.125859
   117  C    0.022994
   118  O   -0.217043
   119  C    0.037747
   120  C    0.193584
   121  O   -0.182088
   122  O   -0.372487
   123  C    0.178807
   124  H   -0.015870
   125  H   -0.006850
   126  H   -0.026885
   127  H    0.020349
   128  H    0.010312
   129  H    0.008609
   130  H    0.034912
   131  H    0.001371
   132  H    0.003055
   133  H    0.019049
   134  H    0.008084
   135  H    0.021025
   136  H    0.008458
   137  H    0.052342
   138  H    0.037069
   139  H    0.038129
   140  H    0.030791
   141  H    0.035233
   142  H   -0.003259
   143  H   -0.010044
   144  H    0.023841
   145  H    0.009607
   146  H    0.009274
   147  H    0.006400
   148  H   -0.008890
   149  H    0.008096
   150  H    0.038143
   151  H    0.006293
   152  H    0.030514
   153  H    0.042330
   154  H    0.013561
   155  H    0.047098
   156  H    0.037750
   157  H    0.032536
   158  H    0.034323
 Sum of Mulliken charges =  -0.00000

 Dipole moment (field-independent basis, Debye):
    X=             -1.4344    Y=              7.1576    Z=             -1.5008  Tot=              7.4526
 Quadrupole moment (field-independent basis, Debye-Ang):
   XX=           -494.3368   YY=           -521.6559   ZZ=           -526.3878
   XY=             40.7364   XZ=             19.7096   YZ=             54.9993

 Normal termination of Gaussian 16 at Thu Sep 16 10:35:22 2021.
