 Gaussian 16, Revision A.03,
 Gaussian 16:  ES64L-G16RevA.03 25-Dec-2016

 -----------------------------------
 #p cam-b3lyp/Def2SVP td=(nstates=5)
 -----------------------------------

 --------------------------------
 TDDFT excited states in gaussian
 --------------------------------
 Symbolic Z-matrix:
 Charge =  0 Multiplicity = 1

                         Standard orientation:
 ---------------------------------------------------------------------
 Center     Atomic      Atomic             Coordinates (Angstroms)
 Number     Number       Type             X           Y           Z
 ---------------------------------------------------------------------
      1         12           0       14.474175   -0.205909   -0.163839
      2          6           0       11.141679   -1.032626   -0.423248
      3          6           0       14.012243    2.133225   -2.609112
      4          6           0       17.167702    1.319828    0.989310
      5          6           0       14.758543   -2.625960    2.364001
      6          7           0       12.617670    0.740971   -1.013466
      7          6           0       11.436478    0.087571   -1.161334
      8          6           0       10.523251    0.755211   -2.146570
      9          6           0       11.582180    1.429980   -3.077378
     10          6           0       12.841013    1.373153   -2.224616
     11          6           0       11.690977    0.748355   -4.471494
     12          6           0        9.569029    1.849008   -1.448708
     13          6           0        8.101846    1.976510   -2.071292
     14          1           0        7.931981    3.388746   -2.574060
     15          7           0       15.551600    1.385158   -0.871587
     16          6           0       15.207553    2.293102   -1.811176
     17          6           0       16.233156    3.321345   -1.933821
     18          6           0       17.173955    3.075341   -0.912740
     19          6           0       16.635991    1.878752   -0.206591
     20          6           0       16.117113    4.447105   -2.989980
     21          6           0       18.281541    4.034090   -0.575187
     22          8           0       18.436960    5.020631   -1.246623
     23          6           0       19.235878    3.882588    0.624764
     24          7           0       15.901951   -0.645518    1.389535
     25          6           0       16.864403    0.122339    1.650106
     26          6           0       17.609726   -0.258413    2.875596
     27          6           0       16.850892   -1.562055    3.343184
     28          6           0       15.783870   -1.636731    2.339375
     29          6           0       19.146242   -0.390374    2.602603
     30          6           0       16.285811   -1.426932    4.832513
     31          6           0       15.917054   -2.751854    5.590088
     32          7           0       13.284457   -1.621266    0.753065
     33          6           0       13.574229   -2.598900    1.687502
     34          6           0       12.454359   -3.482355    1.858851
     35          6           0       11.456208   -2.923225    0.986268
     36          6           0       11.973733   -1.764088    0.441130
     37          6           0       12.363917   -4.689774    2.735384
     38          6           0       10.136899   -3.117940    0.492134
     39          8           0        9.241406   -3.949234    0.689865
     40          6           0        9.807973   -1.802180   -0.287996
     41          6           0        9.144721   -2.215158   -1.559502
     42          8           0        7.919346   -2.294155   -1.725112
     43          8           0       10.091796   -2.546026   -2.488956
     44          6           0        9.410468   -3.001276   -3.733306
     45          1           0       14.014314    2.809140   -3.467217
     46          1           0       18.019035    1.878481    1.382349
     47          1           0       14.806902   -3.282317    3.236256
     48          1           0       10.033263   -0.075380   -2.653065
     49          1           0       11.266284    2.450998   -3.292095
     50          1           0       11.381795    1.454164   -5.241887
     51          1           0       10.957311   -0.058203   -4.490785
     52          1           0       12.705942    0.364412   -4.569255
     53          1           0        9.986644    2.848890   -1.331628
     54          1           0        9.411650    1.597926   -0.400255
     55          1           0        7.439925    1.849323   -1.214549
     56          1           0        7.757098    1.243038   -2.800263
     57          1           0       16.105763    5.458547   -2.584000
     58          1           0       15.268099    4.337174   -3.665572
     59          1           0       16.968055    4.334897   -3.661022
     60          1           0       19.871517    3.000054    0.560508
     61          1           0       18.731003    3.896543    1.591015
     62          1           0       19.777693    4.828158    0.661680
     63          1           0       17.394491    0.561041    3.561230
     64          1           0       17.359981   -2.520927    3.248758
     65          1           0       19.645337    0.314384    3.267314
     66          1           0       19.393382   -0.189711    1.559971
     67          1           0       19.586965   -1.316234    2.971933
     68          1           0       15.390321   -0.805138    4.836839
     69          1           0       17.060098   -0.894418    5.382847
     70          1           0       16.409718   -3.022572    6.523546
     71          1           0       16.130383   -3.619460    4.967206
     72          1           0       14.850759   -2.771767    5.815360
     73          1           0       13.290879   -5.029872    3.196679
     74          1           0       11.963467   -5.398612    2.011736
     75          1           0       11.562969   -4.373233    3.403628
     76          1           0        9.176752   -1.101596    0.259712
     77          1           0        8.933686   -3.963968   -3.551684
     78          1           0       10.111573   -3.272212   -4.522733
     79          1           0        8.731194   -2.207651   -4.045208
     80         12           0      -13.912956    0.842315    0.247448
     81          6           0      -14.002020   -2.557915   -0.682432
     82          6           0      -10.506940    0.794119   -0.208778
     83          6           0      -13.732280    4.058732    1.197466
     84          6           0      -17.262833    0.682056    1.245361
     85          7           0      -12.545965   -0.693697   -0.496384
     86          6           0      -12.697971   -1.971952   -0.830670
     87          6           0      -11.430892   -2.717837   -1.298363
     88          6           0      -10.369039   -1.616243   -0.813417
     89          6           0      -11.207038   -0.420750   -0.431048
     90          6           0       -9.494052   -2.076754    0.327049
     91          6           0      -11.367535   -2.991907   -2.901622
     92          6           0      -10.516917   -4.211158   -3.269488
     93          1           0      -11.299510   -5.333928   -3.998051
     94          7           0      -12.350018    2.327571    0.319330
     95          6           0      -10.973839    2.050306    0.127379
     96          6           0      -10.299099    3.326797    0.056473
     97          6           0      -11.215222    4.302777    0.438284
     98          6           0      -12.519139    3.602062    0.658723
     99          6           0       -8.804967    3.482944   -0.154780
    100          6           0      -11.086657    5.803135    0.569262
    101          8           0      -12.048839    6.460210    0.840894
    102          6           0       -9.800971    6.517808    0.295778
    103          7           0      -15.217931    2.130985    1.277715
    104          6           0      -14.944061    3.449935    1.494712
    105          6           0      -16.243399    4.076248    2.072822
    106          6           0      -17.388482    3.222821    1.557680
    107          6           0      -16.625985    1.892367    1.354548
    108          6           0      -16.204773    4.002368    3.598565
    109          6           0      -18.052322    3.744745    0.337467
    110          6           0      -17.201723    4.215413   -0.816239
    111          7           0      -15.391251   -0.591890    0.268213
    112          6           0      -16.702463   -0.545345    0.702998
    113          6           0      -17.324921   -1.858161    0.472404
    114          6           0      -16.304245   -2.646196   -0.087326
    115          6           0      -15.190723   -1.857483   -0.187220
    116          6           0      -18.698468   -2.244264    0.816260
    117          6           0      -15.997833   -3.897924   -0.726222
    118          8           0      -16.727858   -4.902341   -0.973564
    119          6           0      -14.458049   -3.843198   -1.163394
    120          6           0      -13.766632   -4.958642   -0.423090
    121          8           0      -13.910998   -5.147912    0.748249
    122          8           0      -12.873290   -5.747101   -1.197815
    123          6           0      -11.956848   -6.626803   -0.410363
    124          1           0       -9.419142    0.785546   -0.297745
    125          1           0      -13.694077    5.069473    1.609928
    126          1           0      -18.345489    0.609833    1.370363
    127          1           0      -11.380187   -3.699766   -0.826238
    128          1           0       -9.762414   -1.432658   -1.701071
    129          1           0       -8.560463   -2.411345   -0.124949
    130          1           0       -9.983916   -2.810408    0.967623
    131          1           0       -9.221881   -1.151546    0.834894
    132          1           0      -10.935220   -2.128054   -3.407511
    133          1           0      -12.371932   -3.090035   -3.314014
    134          1           0      -10.120698   -4.498704   -2.295396
    135          1           0       -9.633408   -3.936891   -3.845618
    136          1           0       -8.497275    2.534060   -0.592515
    137          1           0       -8.421648    3.519273    0.864551
    138          1           0       -8.562876    4.304967   -0.828712
    139          1           0       -9.765727    6.408935   -0.788335
    140          1           0       -8.918163    6.046085    0.726472
    141          1           0       -9.871586    7.559397    0.611029
    142          1           0      -16.391306    5.131717    1.846968
    143          1           0      -18.224189    3.099128    2.245643
    144          1           0      -16.778908    3.235114    4.118081
    145          1           0      -16.527755    4.971990    3.977392
    146          1           0      -15.162939    3.893130    3.901959
    147          1           0      -18.764730    4.536846    0.569228
    148          1           0      -18.643018    2.900474   -0.017553
    149          1           0      -17.369762    3.495007   -1.617303
    150          1           0      -16.119697    4.337919   -0.759730
    151          1           0      -17.609920    5.161477   -1.171468
    152          1           0      -18.771239   -2.303841    1.902144
    153          1           0      -18.838013   -3.191140    0.294797
    154          1           0      -19.416312   -1.482050    0.510254
    155          1           0      -14.481254   -3.928266   -2.249979
    156          1           0      -12.489040   -7.512207   -0.062753
    157          1           0      -11.511689   -6.123746    0.449257
    158          1           0      -11.130995   -7.072679   -0.963937
 ---------------------------------------------------------------------

 SCF Done:  E(RCAM-B3LYP) =  -4069.79308065     A.U. after   19 cycles

 Excitation energies and oscillator strengths:

 Excited State   1:      Singlet-A      1.6894 eV  733.91 nm  f=0.3855  <S**2>=0.000
     309 -> 315       -0.16426
     312 -> 313        0.68739
     309 <- 315       -0.10166
 This state for optimization and/or second-order correction.
 Total Energy, E(TD-HF/TD-DFT) =  -4069.73099795
 Copying the excited state density for this state as the 1-particle RhoCI density.

 Excited State   2:      Singlet-A      1.6961 eV  731.00 nm  f=0.3458  <S**2>=0.000
     310 -> 316       -0.17392
     311 -> 314        0.68715
     310 <- 316       -0.10598

 Excited State   3:      Singlet-A      2.1845 eV  567.56 nm  f=0.1201  <S**2>=0.000
     310 -> 314        0.64713
     311 -> 316        0.27021

 Excited State   4:      Singlet-A      2.2126 eV  560.36 nm  f=0.1062  <S**2>=0.000
     309 -> 313        0.64110
     312 -> 315        0.27971

 Excited State   5:      Singlet-A      3.0347 eV  408.55 nm  f=0.0000  <S**2>=0.000
     312 -> 314        0.70707

 The electronic state is 1-A.
 Alpha  occ. eigenvalues --  -46.89329 -46.88523 -19.25692 -19.24385 -19.19934
 Alpha  occ. eigenvalues --  -19.19618 -19.19179 -19.18987 -19.18142 -19.18016
 Alpha  occ. eigenvalues --  -14.43311 -14.42216 -14.42016 -14.41242 -14.40415
 Alpha  occ. eigenvalues --  -14.39606 -14.38957 -14.38697 -10.39289 -10.38796
 Alpha  occ. eigenvalues --  -10.35851 -10.35091 -10.34642 -10.34190 -10.32428
 Alpha  occ. eigenvalues --  -10.31846 -10.31814 -10.31746 -10.31562 -10.31178
 Alpha  occ. eigenvalues --  -10.31091 -10.31014 -10.30852 -10.30784 -10.30508
 Alpha  occ. eigenvalues --  -10.30423 -10.30354 -10.30082 -10.29476 -10.29336
 Alpha  occ. eigenvalues --  -10.29289 -10.28945 -10.28739 -10.28677 -10.28494
 Alpha  occ. eigenvalues --  -10.28484 -10.28321 -10.28284 -10.28265 -10.28254
 Alpha  occ. eigenvalues --  -10.28206 -10.28141 -10.28127 -10.28095 -10.28005
 Alpha  occ. eigenvalues --  -10.27954 -10.27906 -10.27809 -10.27678 -10.27675
 Alpha  occ. eigenvalues --  -10.27576 -10.27429 -10.27385 -10.27272 -10.27106
 Alpha  occ. eigenvalues --  -10.27082 -10.27034 -10.27026 -10.26772 -10.26744
 Alpha  occ. eigenvalues --  -10.26727 -10.26684 -10.26608 -10.26555 -10.26492
 Alpha  occ. eigenvalues --  -10.26365 -10.26338 -10.26322 -10.26278 -10.25523
 Alpha  occ. eigenvalues --  -10.25317 -10.25028 -10.25023 -10.24541 -10.24384
 Alpha  occ. eigenvalues --  -10.24326  -3.17902  -3.17018  -1.92790  -1.92371
 Alpha  occ. eigenvalues --   -1.92193  -1.91940  -1.91450  -1.91335  -1.16082
 Alpha  occ. eigenvalues --   -1.15503  -1.12052  -1.12023  -1.08224  -1.07271
 Alpha  occ. eigenvalues --   -1.07153  -1.06563  -1.06554  -1.05192  -1.04699
 Alpha  occ. eigenvalues --   -1.04046  -1.03439  -1.02937  -1.02836  -1.01673
 Alpha  occ. eigenvalues --   -0.92849  -0.92612  -0.89947  -0.89829  -0.89335
 Alpha  occ. eigenvalues --   -0.88788  -0.88730  -0.88383  -0.87741  -0.87409
 Alpha  occ. eigenvalues --   -0.86981  -0.86839  -0.86733  -0.86125  -0.84596
 Alpha  occ. eigenvalues --   -0.84411  -0.83909  -0.83485  -0.82530  -0.82384
 Alpha  occ. eigenvalues --   -0.82370  -0.81938  -0.81025  -0.81012  -0.80464
 Alpha  occ. eigenvalues --   -0.79815  -0.78806  -0.78524  -0.77943  -0.77241
 Alpha  occ. eigenvalues --   -0.77008  -0.76929  -0.76171  -0.76091  -0.75599
 Alpha  occ. eigenvalues --   -0.74892  -0.72797  -0.72358  -0.72331  -0.71233
 Alpha  occ. eigenvalues --   -0.70581  -0.69617  -0.69423  -0.68746  -0.68264
 Alpha  occ. eigenvalues --   -0.67881  -0.67735  -0.67014  -0.66924  -0.65718
 Alpha  occ. eigenvalues --   -0.65477  -0.64962  -0.64837  -0.64574  -0.64103
 Alpha  occ. eigenvalues --   -0.63320  -0.62544  -0.61665  -0.60619  -0.60286
 Alpha  occ. eigenvalues --   -0.59829  -0.59734  -0.59294  -0.59046  -0.58910
 Alpha  occ. eigenvalues --   -0.58884  -0.58505  -0.58081  -0.57497  -0.57105
 Alpha  occ. eigenvalues --   -0.56809  -0.56321  -0.56295  -0.55778  -0.55659
 Alpha  occ. eigenvalues --   -0.55155  -0.54676  -0.54455  -0.54255  -0.53982
 Alpha  occ. eigenvalues --   -0.53879  -0.53710  -0.53610  -0.53514  -0.53054
 Alpha  occ. eigenvalues --   -0.52940  -0.52771  -0.52507  -0.52342  -0.52082
 Alpha  occ. eigenvalues --   -0.51802  -0.51784  -0.51529  -0.51415  -0.51338
 Alpha  occ. eigenvalues --   -0.51280  -0.50763  -0.50736  -0.50631  -0.50512
 Alpha  occ. eigenvalues --   -0.50332  -0.50104  -0.50034  -0.49924  -0.49794
 Alpha  occ. eigenvalues --   -0.49586  -0.49482  -0.49250  -0.49103  -0.49038
 Alpha  occ. eigenvalues --   -0.48965  -0.48735  -0.48434  -0.48199  -0.48124
 Alpha  occ. eigenvalues --   -0.47884  -0.47800  -0.47632  -0.47542  -0.47517
 Alpha  occ. eigenvalues --   -0.47079  -0.47025  -0.46921  -0.46601  -0.46401
 Alpha  occ. eigenvalues --   -0.46331  -0.46264  -0.45932  -0.45921  -0.45782
 Alpha  occ. eigenvalues --   -0.45488  -0.45458  -0.45308  -0.45211  -0.45118
 Alpha  occ. eigenvalues --   -0.44853  -0.44788  -0.44534  -0.44395  -0.44322
 Alpha  occ. eigenvalues --   -0.44217  -0.44095  -0.44065  -0.43640  -0.43492
 Alpha  occ. eigenvalues --   -0.43405  -0.43267  -0.43066  -0.43016  -0.43010
 Alpha  occ. eigenvalues --   -0.42740  -0.42715  -0.42420  -0.42361  -0.42311
 Alpha  occ. eigenvalues --   -0.42055  -0.42014  -0.41720  -0.41563  -0.41462
 Alpha  occ. eigenvalues --   -0.41283  -0.40945  -0.40859  -0.40832  -0.40270
 Alpha  occ. eigenvalues --   -0.40190  -0.40181  -0.39712  -0.39656  -0.39414
 Alpha  occ. eigenvalues --   -0.38752  -0.38391  -0.38247  -0.37830  -0.37620
 Alpha  occ. eigenvalues --   -0.37183  -0.37019  -0.36944  -0.36820  -0.36617
 Alpha  occ. eigenvalues --   -0.36320  -0.36092  -0.35076  -0.34578  -0.34422
 Alpha  occ. eigenvalues --   -0.33711  -0.33507  -0.33109  -0.32003  -0.31614
 Alpha  occ. eigenvalues --   -0.31481  -0.31274  -0.30708  -0.30217  -0.30167
 Alpha  occ. eigenvalues --   -0.29911  -0.29233  -0.29066  -0.24290  -0.24045
 Alpha  occ. eigenvalues --   -0.21289  -0.21268
 Alpha virt. eigenvalues --   -0.08902  -0.08862  -0.01903  -0.01639   0.00097
 Alpha virt. eigenvalues --    0.00534   0.01562   0.02255   0.02271   0.03354
 Alpha virt. eigenvalues --    0.04513   0.04761   0.05408   0.05673   0.05726

 Mulliken charges:
               1
     1  Mg   0.828064
     2  C    0.029799
     3  C   -0.080531
     4  C   -0.069983
     5  C   -0.085013
     6  N   -0.279661
     7  C   -0.085714
     8  C    0.013175
     9  C   -0.095812
    10  C    0.097083
    11  C    0.091234
    12  C    0.062694
    13  C   -0.075137
    14  H    0.013219
    15  N   -0.375483
    16  C    0.100382
    17  C   -0.121982
    18  C   -0.019991
    19  C    0.147722
    20  C    0.132989
    21  C   -0.028634
    22  O   -0.181192
    23  C    0.044363
    24  N   -0.219588
    25  C   -0.003889
    26  C   -0.028934
    27  C    0.001886
    28  C   -0.020752
    29  C    0.065774
    30  C    0.026716
    31  C   -0.008620
    32  N   -0.362093
    33  C    0.142913
    34  C   -0.189868
    35  C    0.039419
    36  C    0.070809
    37  C    0.143881
    38  C    0.011178
    39  O   -0.190070
    40  C    0.005422
    41  C    0.179278
    42  O   -0.228648
    43  O   -0.342703
    44  C    0.180435
    45  H   -0.022465
    46  H   -0.066963
    47  H   -0.046912
    48  H    0.007524
    49  H    0.015365
    50  H    0.019054
    51  H    0.006537
    52  H    0.019862
    53  H    0.017374
    54  H    0.008033
    55  H    0.034892
    56  H    0.040707
    57  H    0.046053
    58  H   -0.003678
    59  H    0.028969
    60  H    0.045495
    61  H    0.039478
    62  H    0.024739
    63  H    0.020054
    64  H    0.016067
    65  H    0.008981
    66  H    0.036965
    67  H    0.015649
    68  H    0.016264
    69  H    0.011684
    70  H    0.016161
    71  H    0.015093
    72  H    0.022346
    73  H    0.021670
    74  H    0.042225
    75  H    0.041737
    76  H    0.047822
    77  H    0.046323
    78  H    0.028508
    79  H    0.044254
    80  Mg   0.813640
    81  C   -0.040291
    82  C   -0.100244
    83  C   -0.056236
    84  C   -0.065311
    85  N   -0.248710
    86  C   -0.044828
    87  C   -0.042204
    88  C   -0.088455
    89  C    0.097235
    90  C    0.104521
    91  C    0.047580
    92  C   -0.047361
    93  H    0.044804
    94  N   -0.365843
    95  C    0.130113
    96  C   -0.165478
    97  C   -0.010081
    98  C    0.116035
    99  C    0.118465
   100  C   -0.027570
   101  O   -0.178084
   102  C    0.053340
   103  N   -0.336437
   104  C    0.059216
   105  C   -0.036018
   106  C    0.001132
   107  C    0.092583
   108  C    0.079018
   109  C    0.053843
   110  C   -0.013921
   111  N   -0.352932
   112  C    0.068123
   113  C   -0.192234
   114  C    0.046555
   115  C    0.100655
   116  C    0.125881
   117  C    0.022948
   118  O   -0.217383
   119  C    0.037722
   120  C    0.193554
   121  O   -0.181841
   122  O   -0.372708
   123  C    0.178871
   124  H   -0.015359
   125  H   -0.006861
   126  H   -0.026995
   127  H    0.020314
   128  H    0.010448
   129  H    0.009180
   130  H    0.034966
   131  H    0.001739
   132  H    0.003165
   133  H    0.018863
   134  H    0.008441
   135  H    0.021188
   136  H    0.008734
   137  H    0.052692
   138  H    0.037119
   139  H    0.038085
   140  H    0.031076
   141  H    0.035167
   142  H   -0.003341
   143  H   -0.010099
   144  H    0.023869
   145  H    0.009537
   146  H    0.009397
   147  H    0.006300
   148  H   -0.008962
   149  H    0.008015
   150  H    0.038194
   151  H    0.006188
   152  H    0.030555
   153  H    0.042181
   154  H    0.013421
   155  H    0.046764
   156  H    0.037592
   157  H    0.033156
   158  H    0.033609
 Sum of Mulliken charges =  -0.00000

 Dipole moment (field-independent basis, Debye):
    X=             11.8075    Y=              4.4893    Z=             -0.2607  Tot=             12.6348
 Quadrupole moment (field-independent basis, Debye-Ang):
   XX=           -508.8448   YY=           -557.1896   ZZ=           -486.3186
   XY=            -99.6856   XZ=             33.9606   YZ=              2.5220

 Normal termination of Gaussian 16 at Thu Sep 16 02:16:23 2021.
