 Gaussian 16, Revision A.03,
 Gaussian 16:  ES64L-G16RevA.03 25-Dec-2016

 -----------------------------------
 #p cam-b3lyp/Def2SVP td=(nstates=5)
 -----------------------------------

 --------------------------------
 TDDFT excited states in gaussian
 --------------------------------
 Symbolic Z-matrix:
 Charge =  0 Multiplicity = 1

                         Standard orientation:
 ---------------------------------------------------------------------
 Center     Atomic      Atomic             Coordinates (Angstroms)
 Number     Number       Type             X           Y           Z
 ---------------------------------------------------------------------
      1         12           0       12.455468   -0.007457    0.473658
      2          6           0        9.191115   -0.158859   -0.705738
      3          6           0       12.961088    2.519571   -1.847581
      4          6           0       15.763694   -0.184383    1.242147
      5          6           0       11.780672   -2.655450    2.592308
      6          7           0       11.223565    1.015864   -1.133964
      7          6           0        9.881670    0.822347   -1.424625
      8          6           0        9.362048    1.684434   -2.641453
      9          6           0       10.731402    2.277927   -3.153619
     10          6           0       11.733145    1.894140   -2.002939
     11          6           0       11.326316    1.846923   -4.497426
     12          6           0        8.304902    2.704431   -2.180283
     13          6           0        6.875324    2.434846   -2.569885
     14          1           0        6.012285    3.657192   -2.929886
     15          7           0       14.117570    1.123506   -0.033263
     16          6           0       14.056569    2.140182   -0.934555
     17          6           0       15.433826    2.661826   -1.031725
     18          6           0       16.277324    1.858894   -0.248144
     19          6           0       15.442857    0.903854    0.371051
     20          6           0       15.722077    3.910954   -1.761093
     21          6           0       17.766734    1.905323   -0.070822
     22          8           0       18.391551    1.186269    0.757535
     23          6           0       18.635772    2.739577   -0.839755
     24          7           0       13.568573   -1.155560    1.761177
     25          6           0       14.913008   -1.034412    1.935428
     26          6           0       15.473671   -1.998151    2.905745
     27          6           0       14.197538   -2.767886    3.402553
     28          6           0       13.158657   -2.208995    2.504675
     29          6           0       16.623822   -2.988493    2.558028
     30          6           0       13.911019   -2.682168    4.982742
     31          6           0       13.145154   -1.498607    5.645140
     32          7           0       10.877274   -1.225600    0.880745
     33          6           0       10.729739   -2.233454    1.789699
     34          6           0        9.388026   -2.616045    1.871202
     35          6           0        8.768482   -1.852853    0.807961
     36          6           0        9.719031   -1.010075    0.267248
     37          6           0        8.746774   -3.594316    2.853656
     38          6           0        7.481734   -1.568528    0.240573
     39          8           0        6.344138   -1.910060    0.492715
     40          6           0        7.769983   -0.593718   -0.954535
     41          6           0        7.607717   -1.308881   -2.235890
     42          8           0        8.513670   -1.586116   -3.052372
     43          8           0        6.343571   -1.705688   -2.499600
     44          6           0        5.997628   -2.227340   -3.865800
     45          1           0       13.130471    3.268759   -2.622958
     46          1           0       16.815841   -0.315949    1.503883
     47          1           0       11.449204   -3.369064    3.350159
     48          1           0        9.110330    1.066921   -3.504305
     49          1           0       10.597645    3.359635   -3.148917
     50          1           0       12.221295    1.245390   -4.336697
     51          1           0       11.730615    2.750727   -4.950869
     52          1           0       10.644736    1.321072   -5.166921
     53          1           0        8.577396    3.636159   -2.677378
     54          1           0        8.430395    2.861445   -1.108976
     55          1           0        6.397545    1.933857   -1.727548
     56          1           0        6.735815    1.732509   -3.391807
     57          1           0       16.101227    4.593884   -1.001955
     58          1           0       14.925202    4.409596   -2.314371
     59          1           0       16.514671    3.733482   -2.487957
     60          1           0       18.290910    2.638716   -1.868496
     61          1           0       19.678622    2.544144   -0.593367
     62          1           0       18.448090    3.794158   -0.637766
     63          1           0       15.830313   -1.295061    3.657889
     64          1           0       14.284853   -3.819742    3.132940
     65          1           0       17.534924   -2.769630    3.114959
     66          1           0       16.899910   -2.917714    1.505405
     67          1           0       16.351369   -4.034732    2.696316
     68          1           0       14.920862   -2.642267    5.391619
     69          1           0       13.462594   -3.660835    5.154359
     70          1           0       12.673003   -0.801651    4.953214
     71          1           0       13.672332   -0.972704    6.441644
     72          1           0       12.361730   -1.994919    6.216367
     73          1           0        8.225706   -4.403615    2.341092
     74          1           0        7.980298   -3.049044    3.404136
     75          1           0        9.425540   -3.986513    3.611450
     76          1           0        6.958957    0.134271   -0.980321
     77          1           0        4.915087   -2.152456   -3.761899
     78          1           0        6.341194   -3.239936   -4.074681
     79          1           0        6.408010   -1.563370   -4.627240
     80         12           0      -12.059981   -0.330849   -0.366300
     81          6           0      -11.486008    2.828037    0.800687
     82          6           0       -8.838070   -0.194349   -1.870721
     83          6           0      -12.417139   -3.581001   -1.199884
     84          6           0      -14.702597   -0.648569    1.881536
     85          7           0      -10.142233    1.090787   -0.187347
     86          6           0      -10.295818    2.402795    0.146967
     87          6           0       -9.002380    3.138555   -0.068958
     88          6           0       -8.113473    2.133139   -0.922496
     89          6           0       -9.057119    0.895561   -1.049468
     90          6           0       -7.329389    2.724999   -2.036245
     91          6           0       -8.250784    3.811745    1.174947
     92          6           0       -8.378375    3.157549    2.518717
     93          1           0       -7.094077    2.937959    3.305896
     94          7           0      -10.909773   -1.599415   -1.585816
     95          6           0       -9.677380   -1.372852   -2.115562
     96          6           0       -9.190850   -2.501847   -2.851961
     97          6           0      -10.305633   -3.485959   -2.762025
     98          6           0      -11.286895   -2.902906   -1.821060
     99          6           0       -7.932846   -2.647545   -3.566226
    100          6           0      -10.451957   -4.828741   -3.463365
    101          8           0       -9.551712   -5.289393   -4.070869
    102          6           0      -11.641308   -5.746365   -3.398325
    103          7           0      -13.268053   -1.892254    0.341143
    104          6           0      -13.329555   -3.067284   -0.303739
    105          6           0      -14.325168   -4.087567    0.460962
    106          6           0      -15.278459   -3.002284    1.162997
    107          6           0      -14.342213   -1.817381    1.168521
    108          6           0      -15.079643   -5.077571   -0.430860
    109          6           0      -15.845572   -3.487714    2.509242
    110          6           0      -17.338036   -3.343408    2.829497
    111          7           0      -12.869332    0.802846    1.143003
    112          6           0      -13.969113    0.594759    1.966081
    113          6           0      -14.297581    1.755996    2.697670
    114          6           0      -13.397446    2.713378    2.259793
    115          6           0      -12.525963    2.091285    1.297073
    116          6           0      -15.423923    1.943884    3.666451
    117          6           0      -12.960393    4.046833    2.287459
    118          8           0      -13.412309    4.962952    2.971401
    119          6           0      -11.622374    4.158246    1.502507
    120          6           0      -11.863217    5.342114    0.577434
    121          8           0      -11.097048    6.324240    0.481582
    122          8           0      -12.961387    5.045230   -0.194880
    123          6           0      -13.339652    5.862469   -1.373656
    124          1           0       -7.798083   -0.135886   -2.198350
    125          1           0      -12.412864   -4.667533   -1.307797
    126          1           0      -15.575991   -0.734862    2.530745
    127          1           0       -9.212537    4.039097   -0.647146
    128          1           0       -7.361130    1.746056   -0.235900
    129          1           0       -7.433798    2.183237   -2.976220
    130          1           0       -6.290147    2.903412   -1.760074
    131          1           0       -7.732467    3.709177   -2.275224
    132          1           0       -8.564323    4.833172    1.390858
    133          1           0       -7.173172    3.760179    1.016292
    134          1           0       -9.033246    2.287172    2.542777
    135          1           0       -8.847887    3.887338    3.179137
    136          1           0       -7.625550   -1.669600   -3.935440
    137          1           0       -7.973852   -3.343781   -4.403039
    138          1           0       -7.203458   -3.011301   -2.841605
    139          1           0      -12.374216   -4.945065   -3.301191
    140          1           0      -11.638659   -6.383390   -2.514403
    141          1           0      -11.825653   -6.385351   -4.262086
    142          1           0      -13.721603   -4.560349    1.236338
    143          1           0      -16.142805   -2.632124    0.612198
    144          1           0      -16.111685   -4.729986   -0.484908
    145          1           0      -14.880580   -6.101028   -0.114375
    146          1           0      -14.722053   -5.085598   -1.460074
    147          1           0      -15.290273   -2.961562    3.286172
    148          1           0      -15.529206   -4.521445    2.649380
    149          1           0      -17.877479   -4.212105    3.207251
    150          1           0      -17.904415   -2.881816    2.019581
    151          1           0      -17.332629   -2.517162    3.539687
    152          1           0      -15.861260    2.942588    3.669381
    153          1           0      -15.056130    1.722073    4.668532
    154          1           0      -16.280923    1.301125    3.460970
    155          1           0      -10.898571    4.357453    2.291839
    156          1           0      -13.701152    5.257006   -2.204637
    157          1           0      -12.459742    6.420379   -1.694370
    158          1           0      -14.103270    6.635087   -1.293113
 ---------------------------------------------------------------------

 SCF Done:  E(RCAM-B3LYP) =  -4069.76376464     A.U. after   19 cycles

 Excitation energies and oscillator strengths:

 Excited State   1:      Singlet-A      1.6344 eV  758.61 nm  f=0.3925  <S**2>=0.000
     309 -> 315       -0.16896
     311 -> 313        0.68837
     309 <- 315       -0.10865
 This state for optimization and/or second-order correction.
 Total Energy, E(TD-HF/TD-DFT) =  -4069.70370269
 Copying the excited state density for this state as the 1-particle RhoCI density.

 Excited State   2:      Singlet-A      1.7035 eV  727.82 nm  f=0.3863  <S**2>=0.000
     310 -> 316        0.17714
     312 -> 314        0.68433
     310 <- 316        0.10748

 Excited State   3:      Singlet-A      2.1487 eV  577.01 nm  f=0.1476  <S**2>=0.000
     309 -> 313        0.65211
     311 -> 315        0.25531

 Excited State   4:      Singlet-A      2.2075 eV  561.65 nm  f=0.1421  <S**2>=0.000
     310 -> 314        0.65087
     312 -> 316       -0.26116

 Excited State   5:      Singlet-A      2.7349 eV  453.35 nm  f=0.0000  <S**2>=0.000
     312 -> 313        0.70707

 The electronic state is 1-A.
 Alpha  occ. eigenvalues --  -46.89902 -46.87504 -19.26191 -19.24035 -19.20290
 Alpha  occ. eigenvalues --  -19.18436 -19.18232 -19.18197 -19.17928 -19.17193
 Alpha  occ. eigenvalues --  -14.42536 -14.41987 -14.41977 -14.41835 -14.40008
 Alpha  occ. eigenvalues --  -14.39614 -14.39506 -14.38333 -10.40442 -10.38511
 Alpha  occ. eigenvalues --  -10.34493 -10.34235 -10.34152 -10.33531 -10.32797
 Alpha  occ. eigenvalues --  -10.32042 -10.31982 -10.31560 -10.30962 -10.30933
 Alpha  occ. eigenvalues --  -10.30882 -10.30778 -10.30712 -10.30652 -10.30567
 Alpha  occ. eigenvalues --  -10.30441 -10.30131 -10.30097 -10.29998 -10.29342
 Alpha  occ. eigenvalues --  -10.28889 -10.28855 -10.28810 -10.28530 -10.28420
 Alpha  occ. eigenvalues --  -10.28380 -10.28339 -10.28267 -10.28255 -10.28153
 Alpha  occ. eigenvalues --  -10.28125 -10.27912 -10.27892 -10.27814 -10.27758
 Alpha  occ. eigenvalues --  -10.27705 -10.27637 -10.27473 -10.27461 -10.27352
 Alpha  occ. eigenvalues --  -10.27230 -10.27227 -10.27186 -10.27117 -10.27066
 Alpha  occ. eigenvalues --  -10.26885 -10.26857 -10.26753 -10.26740 -10.26723
 Alpha  occ. eigenvalues --  -10.26671 -10.26671 -10.26646 -10.26308 -10.26285
 Alpha  occ. eigenvalues --  -10.26190 -10.26012 -10.25976 -10.25888 -10.25864
 Alpha  occ. eigenvalues --  -10.25692 -10.25643 -10.25469 -10.25122 -10.25025
 Alpha  occ. eigenvalues --  -10.24583  -3.18374  -3.16219  -1.93232  -1.92866
 Alpha  occ. eigenvalues --   -1.92649  -1.91129  -1.90678  -1.90523  -1.15650
 Alpha  occ. eigenvalues --   -1.15105  -1.11370  -1.09499  -1.09316  -1.07926
 Alpha  occ. eigenvalues --   -1.07220  -1.05125  -1.05102  -1.04812  -1.04320
 Alpha  occ. eigenvalues --   -1.04059  -1.03213  -1.02891  -1.02201  -1.02111
 Alpha  occ. eigenvalues --   -0.93650  -0.93055  -0.89804  -0.89013  -0.88687
 Alpha  occ. eigenvalues --   -0.88421  -0.88360  -0.88272  -0.87901  -0.87550
 Alpha  occ. eigenvalues --   -0.87208  -0.86982  -0.86070  -0.85841  -0.84507
 Alpha  occ. eigenvalues --   -0.84354  -0.83962  -0.83618  -0.83057  -0.82783
 Alpha  occ. eigenvalues --   -0.82435  -0.82139  -0.80960  -0.80948  -0.80550
 Alpha  occ. eigenvalues --   -0.80517  -0.78528  -0.78481  -0.77767  -0.77482
 Alpha  occ. eigenvalues --   -0.76947  -0.76843  -0.76662  -0.76181  -0.75434
 Alpha  occ. eigenvalues --   -0.75269  -0.73546  -0.73084  -0.71714  -0.71307
 Alpha  occ. eigenvalues --   -0.70077  -0.70000  -0.69349  -0.68751  -0.68356
 Alpha  occ. eigenvalues --   -0.67977  -0.67074  -0.66529  -0.66238  -0.65458
 Alpha  occ. eigenvalues --   -0.65173  -0.65062  -0.64674  -0.64583  -0.64357
 Alpha  occ. eigenvalues --   -0.64339  -0.63559  -0.61461  -0.60243  -0.59934
 Alpha  occ. eigenvalues --   -0.59618  -0.59356  -0.59120  -0.58850  -0.58566
 Alpha  occ. eigenvalues --   -0.58028  -0.57767  -0.57590  -0.57278  -0.57177
 Alpha  occ. eigenvalues --   -0.56491  -0.56142  -0.55764  -0.55609  -0.55287
 Alpha  occ. eigenvalues --   -0.55068  -0.54869  -0.54431  -0.54415  -0.53940
 Alpha  occ. eigenvalues --   -0.53803  -0.53237  -0.53219  -0.53151  -0.52884
 Alpha  occ. eigenvalues --   -0.52501  -0.52469  -0.52410  -0.52046  -0.52044
 Alpha  occ. eigenvalues --   -0.51859  -0.51807  -0.51763  -0.51312  -0.51045
 Alpha  occ. eigenvalues --   -0.51044  -0.50810  -0.50658  -0.50554  -0.50325
 Alpha  occ. eigenvalues --   -0.50137  -0.49943  -0.49736  -0.49675  -0.49611
 Alpha  occ. eigenvalues --   -0.49424  -0.49399  -0.49149  -0.48958  -0.48913
 Alpha  occ. eigenvalues --   -0.48777  -0.48447  -0.48192  -0.48159  -0.47903
 Alpha  occ. eigenvalues --   -0.47833  -0.47738  -0.47519  -0.47266  -0.47200
 Alpha  occ. eigenvalues --   -0.47180  -0.47044  -0.46857  -0.46725  -0.46467
 Alpha  occ. eigenvalues --   -0.46374  -0.46223  -0.46106  -0.45965  -0.45679
 Alpha  occ. eigenvalues --   -0.45582  -0.45493  -0.45375  -0.45279  -0.45238
 Alpha  occ. eigenvalues --   -0.45142  -0.44974  -0.44846  -0.44775  -0.44222
 Alpha  occ. eigenvalues --   -0.44116  -0.43964  -0.43954  -0.43790  -0.43765
 Alpha  occ. eigenvalues --   -0.43389  -0.43341  -0.43032  -0.42865  -0.42732
 Alpha  occ. eigenvalues --   -0.42667  -0.42603  -0.42427  -0.42335  -0.42042
 Alpha  occ. eigenvalues --   -0.41906  -0.41686  -0.41572  -0.41453  -0.41446
 Alpha  occ. eigenvalues --   -0.41248  -0.41099  -0.40767  -0.40526  -0.40308
 Alpha  occ. eigenvalues --   -0.40179  -0.39954  -0.39677  -0.38988  -0.38899
 Alpha  occ. eigenvalues --   -0.38631  -0.38178  -0.37945  -0.37795  -0.37331
 Alpha  occ. eigenvalues --   -0.36885  -0.36846  -0.36477  -0.36363  -0.36093
 Alpha  occ. eigenvalues --   -0.35572  -0.35558  -0.34749  -0.34280  -0.33825
 Alpha  occ. eigenvalues --   -0.33161  -0.33041  -0.32851  -0.31527  -0.30966
 Alpha  occ. eigenvalues --   -0.30854  -0.30588  -0.30467  -0.30005  -0.29867
 Alpha  occ. eigenvalues --   -0.29504  -0.29290  -0.28307  -0.24418  -0.23613
 Alpha  occ. eigenvalues --   -0.21675  -0.21083
 Alpha virt. eigenvalues --   -0.09622  -0.08662  -0.01915  -0.01281   0.00185
 Alpha virt. eigenvalues --    0.00713   0.01038   0.02389   0.02736   0.03596
 Alpha virt. eigenvalues --    0.04603   0.04965   0.05066   0.05668   0.05802

 Mulliken charges:
               1
     1  Mg   0.842053
     2  C   -0.018372
     3  C   -0.053908
     4  C   -0.067814
     5  C   -0.096647
     6  N   -0.267819
     7  C   -0.058726
     8  C   -0.002156
     9  C   -0.086434
    10  C    0.002188
    11  C    0.086095
    12  C    0.098639
    13  C   -0.086394
    14  H    0.020283
    15  N   -0.397019
    16  C    0.159463
    17  C   -0.172400
    18  C    0.028790
    19  C    0.105184
    20  C    0.105056
    21  C   -0.012497
    22  O   -0.250269
    23  C    0.087509
    24  N   -0.298743
    25  C    0.055475
    26  C   -0.041420
    27  C   -0.007431
    28  C    0.040368
    29  C    0.076565
    30  C    0.015284
    31  C    0.012077
    32  N   -0.356462
    33  C    0.119042
    34  C   -0.160378
    35  C   -0.009416
    36  C    0.183601
    37  C    0.132491
    38  C    0.018619
    39  O   -0.153120
    40  C   -0.052005
    41  C    0.191725
    42  O   -0.263432
    43  O   -0.324280
    44  C    0.186514
    45  H   -0.034039
    46  H   -0.005156
    47  H   -0.038758
    48  H    0.013796
    49  H    0.000823
    50  H    0.026219
    51  H    0.010469
    52  H    0.029937
    53  H    0.011959
    54  H    0.021676
    55  H    0.043686
    56  H    0.030175
    57  H    0.034860
    58  H    0.019916
    59  H    0.013906
    60  H    0.022508
    61  H    0.040293
    62  H    0.021389
    63  H    0.020237
    64  H    0.009412
    65  H    0.022339
    66  H    0.017753
    67  H    0.015173
    68  H    0.010507
    69  H    0.016460
    70  H    0.036102
    71  H    0.017590
    72  H    0.007458
    73  H    0.038045
    74  H    0.031069
    75  H    0.003128
    76  H    0.027338
    77  H    0.047674
    78  H    0.049226
    79  H    0.036952
    80  Mg   0.824900
    81  C    0.019240
    82  C   -0.076967
    83  C   -0.075363
    84  C   -0.091326
    85  N   -0.272107
    86  C   -0.046289
    87  C    0.019102
    88  C   -0.038035
    89  C    0.011922
    90  C    0.090899
    91  C    0.034461
    92  C   -0.113812
    93  H    0.012507
    94  N   -0.363537
    95  C    0.155773
    96  C   -0.164810
    97  C   -0.053214
    98  C    0.114039
    99  C    0.136373
   100  C   -0.034850
   101  O   -0.178628
   102  C    0.046396
   103  N   -0.288390
   104  C    0.057802
   105  C   -0.083509
   106  C   -0.035988
   107  C    0.048061
   108  C    0.096429
   109  C    0.030993
   110  C    0.010240
   111  N   -0.351613
   112  C    0.123546
   113  C   -0.172877
   114  C    0.107867
   115  C    0.078499
   116  C    0.118811
   117  C   -0.023732
   118  O   -0.181116
   119  C   -0.040638
   120  C    0.244470
   121  O   -0.225339
   122  O   -0.349216
   123  C    0.180544
   124  H   -0.015741
   125  H   -0.017598
   126  H   -0.037985
   127  H    0.014846
   128  H    0.022805
   129  H    0.014062
   130  H    0.019323
   131  H    0.005237
   132  H    0.034523
   133  H    0.020959
   134  H    0.042968
   135  H    0.033828
   136  H    0.010671
   137  H    0.039436
   138  H    0.030159
   139  H    0.014989
   140  H    0.049083
   141  H    0.031010
   142  H    0.029417
   143  H    0.016030
   144  H    0.016613
   145  H    0.016756
   146  H    0.012707
   147  H    0.006118
   148  H    0.002119
   149  H    0.033102
   150  H    0.005031
   151  H    0.010941
   152  H    0.037180
   153  H    0.037045
   154  H    0.010869
   155  H    0.037072
   156  H    0.035771
   157  H    0.037841
   158  H    0.041298
 Sum of Mulliken charges =  -0.00000

 Dipole moment (field-independent basis, Debye):
    X=             -1.9832    Y=              0.0779    Z=             -2.0027  Tot=              2.8196
 Quadrupole moment (field-independent basis, Debye-Ang):
   XX=           -405.2619   YY=           -525.4103   ZZ=           -499.1692
   XY=             69.7562   XZ=             11.9301   YZ=            -55.6535

 Normal termination of Gaussian 16 at Tue Sep 14 21:46:48 2021.
