 Gaussian 16, Revision A.03,
 Gaussian 16:  ES64L-G16RevA.03 25-Dec-2016

 -----------------------------------
 #p cam-b3lyp/Def2SVP td=(nstates=5)
 -----------------------------------

 --------------------------------
 TDDFT excited states in gaussian
 --------------------------------
 Symbolic Z-matrix:
 Charge =  0 Multiplicity = 1

                         Standard orientation:
 ---------------------------------------------------------------------
 Center     Atomic      Atomic             Coordinates (Angstroms)
 Number     Number       Type             X           Y           Z
 ---------------------------------------------------------------------
      1         12           0      -18.371543   -0.744947    0.162984
      2          6           0      -18.051288    2.588444   -0.829453
      3          6           0      -17.094549    0.245741    3.274615
      4          6           0      -18.090400   -3.949435    1.085586
      5          6           0      -18.595977   -1.645769   -3.150844
      6          7           0      -17.731016    1.258255    1.195615
      7          6           0      -17.661178    2.422059    0.496250
      8          6           0      -17.106012    3.585360    1.410214
      9          6           0      -16.561769    2.734337    2.665871
     10          6           0      -17.102562    1.324769    2.372820
     11          6           0      -14.996673    2.683934    2.552130
     12          6           0      -18.330840    4.481470    1.823529
     13          6           0      -18.068073    5.627492    2.838123
     14          1           0      -18.879842    6.034771    4.031650
     15          7           0      -17.883640   -1.662856    1.978144
     16          6           0      -17.413327   -1.112869    3.182307
     17          6           0      -17.203217   -2.167425    4.082690
     18          6           0      -17.660597   -3.360266    3.538835
     19          6           0      -17.910795   -3.022044    2.147440
     20          6           0      -16.746659   -1.884683    5.476463
     21          6           0      -17.730336   -4.801555    4.142994
     22          8           0      -18.174136   -5.785154    3.560317
     23          6           0      -17.441093   -5.078096    5.620899
     24          7           0      -18.231861   -2.512089   -0.914342
     25          6           0      -18.268671   -3.706923   -0.283266
     26          6           0      -18.526324   -4.897177   -1.227871
     27          6           0      -18.547873   -4.173381   -2.602797
     28          6           0      -18.578246   -2.699781   -2.238962
     29          6           0      -17.556007   -6.108366   -1.027558
     30          6           0      -19.656131   -4.590171   -3.608202
     31          6           0      -21.013028   -4.098294   -3.330222
     32          7           0      -18.432016    0.223112   -1.645381
     33          6           0      -18.524186   -0.239156   -2.870700
     34          6           0      -18.652410    0.839475   -3.855965
     35          6           0      -18.468378    1.992463   -3.027692
     36          6           0      -18.302478    1.576453   -1.721150
     37          6           0      -19.242911    0.803179   -5.187531
     38          6           0      -18.432265    3.443717   -3.074361
     39          8           0      -18.648573    4.209823   -3.985818
     40          6           0      -18.083674    3.853361   -1.638291
     41          6           0      -16.811837    4.706207   -1.583513
     42          8           0      -15.694645    4.264733   -1.657871
     43          8           0      -17.157951    6.034553   -1.514633
     44          6           0      -15.976764    6.925683   -1.449325
     45          1           0      -16.821392    0.585631    4.274917
     46          1           0      -18.218733   -4.992256    1.383962
     47          1           0      -18.811231   -2.180571   -4.077540
     48          1           0      -16.273908    4.118332    0.949460
     49          1           0      -16.857335    3.123327    3.641055
     50          1           0      -14.561995    1.739116    2.227401
     51          1           0      -14.524760    2.694122    3.534932
     52          1           0      -14.573882    3.462702    1.917736
     53          1           0      -19.103633    3.814153    2.204117
     54          1           0      -18.756696    4.878690    0.901740
     55          1           0      -17.890713    6.496878    2.204345
     56          1           0      -17.137860    5.280603    3.286393
     57          1           0      -16.533804   -0.839242    5.701328
     58          1           0      -15.950012   -2.590533    5.715431
     59          1           0      -17.612991   -2.144242    6.085524
     60          1           0      -16.399300   -4.922595    5.901445
     61          1           0      -17.800667   -6.041643    5.982342
     62          1           0      -18.071202   -4.391658    6.186777
     63          1           0      -19.521299   -5.148865   -0.861809
     64          1           0      -17.559924   -4.371119   -3.018686
     65          1           0      -17.215116   -6.168624    0.005480
     66          1           0      -16.682809   -5.977479   -1.667232
     67          1           0      -18.029283   -7.067779   -1.237479
     68          1           0      -19.622959   -5.675834   -3.522489
     69          1           0      -19.334639   -4.361478   -4.624478
     70          1           0      -21.118774   -3.086168   -3.720438
     71          1           0      -21.244919   -4.165357   -2.267466
     72          1           0      -21.770135   -4.663680   -3.874384
     73          1           0      -19.927998   -0.044577   -5.162542
     74          1           0      -18.619031    0.575327   -6.051943
     75          1           0      -19.731292    1.765905   -5.334585
     76          1           0      -18.928063    4.418339   -1.242066
     77          1           0      -16.209609    7.843283   -1.989270
     78          1           0      -15.098959    6.601389   -2.008647
     79          1           0      -15.757015    7.207814   -0.420171
     80         12           0       18.224103   -0.689638    0.070213
     81          6           0       16.179625    2.165879    0.291816
     82          6           0       20.972328    1.422415    0.347860
     83          6           0       20.110713   -3.368600   -0.469635
     84          6           0       15.379697   -2.568104   -1.057265
     85          7           0       18.535652    1.508838    0.266383
     86          6           0       17.519761    2.455118    0.461301
     87          6           0       18.118900    3.709807    1.069220
     88          6           0       19.650036    3.582464    0.828149
     89          6           0       19.730098    2.069943    0.461119
     90          6           0       20.276586    4.578875   -0.197198
     91          6           0       17.720738    3.967333    2.563857
     92          6           0       17.644105    5.506941    2.961929
     93          1           0       18.009762    6.540645    1.893398
     94          7           0       20.192263   -0.942545    0.083974
     95          6           0       21.161085    0.024469    0.289927
     96          6           0       22.465094   -0.569272    0.358915
     97          6           0       22.268722   -1.940957   -0.000955
     98          6           0       20.832081   -2.126150   -0.101833
     99          6           0       23.774194    0.244442    0.594133
    100          6           0       23.292722   -3.003950   -0.230778
    101          8           0       22.979819   -4.125963   -0.695703
    102          6           0       24.837724   -2.935938   -0.049448
    103          7           0       17.874191   -2.610199   -0.915191
    104          6           0       18.809183   -3.579028   -0.908600
    105          6           0       18.170404   -4.951356   -1.239269
    106          6           0       16.672335   -4.704272   -1.450226
    107          6           0       16.627611   -3.161170   -1.060436
    108          6           0       18.921558   -5.672048   -2.316920
    109          6           0       15.693032   -5.576799   -0.635979
    110          6           0       15.841257   -5.479097    0.902418
    111          7           0       16.167654   -0.325477   -0.387974
    112          6           0       15.169568   -1.197677   -0.661603
    113          6           0       13.916146   -0.459253   -0.515441
    114          6           0       14.208157    0.874506   -0.114486
    115          6           0       15.622921    0.933237   -0.094391
    116          6           0       12.514538   -1.053231   -0.627617
    117          6           0       13.653352    2.144483    0.230172
    118          8           0       12.511034    2.551246    0.425153
    119          6           0       14.987450    3.112883    0.462150
    120          6           0       14.870259    4.341907   -0.419557
    121          8           0       15.144755    4.348753   -1.603539
    122          8           0       14.515875    5.445557    0.322628
    123          6           0       13.984146    6.617764   -0.364938
    124          1           0       21.749161    2.156870    0.569645
    125          1           0       20.773336   -4.233438   -0.539449
    126          1           0       14.546335   -3.237648   -1.278804
    127          1           0       17.754292    4.581843    0.526537
    128          1           0       20.135098    3.728681    1.792828
    129          1           0       20.753948    3.907777   -0.910450
    130          1           0       21.081413    5.151480    0.265325
    131          1           0       19.632100    5.259484   -0.753484
    132          1           0       18.470684    3.573465    3.249121
    133          1           0       16.784674    3.448838    2.767324
    134          1           0       18.408567    5.683325    3.718783
    135          1           0       16.637536    5.693292    3.335561
    136          1           0       24.548621   -0.191123   -0.038432
    137          1           0       24.130488    0.177207    1.621507
    138          1           0       23.809323    1.321615    0.431838
    139          1           0       25.092391   -2.625959    0.964435
    140          1           0       25.317569   -2.298012   -0.791626
    141          1           0       25.322682   -3.907813    0.034064
    142          1           0       18.402592   -5.589819   -0.387854
    143          1           0       16.544992   -4.694530   -2.533293
    144          1           0       19.564781   -6.462021   -1.928776
    145          1           0       19.487962   -4.958377   -2.915435
    146          1           0       18.285121   -6.144619   -3.065897
    147          1           0       15.958213   -6.590638   -0.936522
    148          1           0       14.665099   -5.362675   -0.930063
    149          1           0       14.875122   -5.122732    1.259180
    150          1           0       16.638881   -4.761722    1.095672
    151          1           0       16.178936   -6.398557    1.380861
    152          1           0       11.844433   -0.696861    0.154210
    153          1           0       12.521825   -2.128700   -0.452713
    154          1           0       12.157684   -0.886279   -1.644296
    155          1           0       14.896866    3.445377    1.496556
    156          1           0       14.569728    6.732656   -1.277455
    157          1           0       14.062076    7.550724    0.193392
    158          1           0       12.923178    6.413017   -0.508423
 ---------------------------------------------------------------------

 SCF Done:  E(RCAM-B3LYP) =  -4069.83116247     A.U. after   18 cycles

 Excitation energies and oscillator strengths:

 Excited State   1:      Singlet-A      1.6591 eV  747.30 nm  f=0.4042  <S**2>=0.000
     309 -> 315        0.16730
     311 -> 313        0.68827
     309 <- 315        0.10535
 This state for optimization and/or second-order correction.
 Total Energy, E(TD-HF/TD-DFT) =  -4069.77019184
 Copying the excited state density for this state as the 1-particle RhoCI density.

 Excited State   2:      Singlet-A      1.7450 eV  710.51 nm  f=0.3893  <S**2>=0.000
     310 -> 316       -0.18611
     312 -> 314        0.68384
     310 <- 316       -0.10700

 Excited State   3:      Singlet-A      2.1919 eV  565.66 nm  f=0.1531  <S**2>=0.000
     309 -> 313        0.65721
     311 -> 315       -0.24506

 Excited State   4:      Singlet-A      2.2617 eV  548.20 nm  f=0.1160  <S**2>=0.000
     310 -> 314        0.64504
     312 -> 316        0.27670

 Excited State   5:      Singlet-A      2.9558 eV  419.45 nm  f=0.0000  <S**2>=0.000
     312 -> 313        0.70709

 The electronic state is 1-A.
 Alpha  occ. eigenvalues --  -46.88900 -46.88676 -19.25751 -19.24247 -19.20380
 Alpha  occ. eigenvalues --  -19.19405 -19.19349 -19.19247 -19.18803 -19.18355
 Alpha  occ. eigenvalues --  -14.42542 -14.42214 -14.41423 -14.41030 -14.40264
 Alpha  occ. eigenvalues --  -14.39370 -14.39115 -14.39107 -10.39746 -10.39108
 Alpha  occ. eigenvalues --  -10.36140 -10.35579 -10.35469 -10.34479 -10.31778
 Alpha  occ. eigenvalues --  -10.31532 -10.31403 -10.31046 -10.30928 -10.30791
 Alpha  occ. eigenvalues --  -10.30722 -10.30601 -10.30544 -10.30460 -10.30343
 Alpha  occ. eigenvalues --  -10.30329 -10.29931 -10.29844 -10.29619 -10.29587
 Alpha  occ. eigenvalues --  -10.29508 -10.29285 -10.29029 -10.28668 -10.28644
 Alpha  occ. eigenvalues --  -10.28526 -10.28365 -10.28235 -10.28193 -10.28146
 Alpha  occ. eigenvalues --  -10.27968 -10.27937 -10.27930 -10.27844 -10.27707
 Alpha  occ. eigenvalues --  -10.27615 -10.27567 -10.27515 -10.27511 -10.27476
 Alpha  occ. eigenvalues --  -10.27469 -10.27447 -10.27395 -10.27244 -10.27070
 Alpha  occ. eigenvalues --  -10.27006 -10.26929 -10.26876 -10.26717 -10.26582
 Alpha  occ. eigenvalues --  -10.26324 -10.26324 -10.26249 -10.26164 -10.26063
 Alpha  occ. eigenvalues --  -10.25961 -10.25960 -10.25799 -10.25609 -10.25590
 Alpha  occ. eigenvalues --  -10.25284 -10.25259 -10.25241 -10.25102 -10.24898
 Alpha  occ. eigenvalues --  -10.24265  -3.17470  -3.17239  -1.92341  -1.92126
 Alpha  occ. eigenvalues --   -1.91926  -1.91784  -1.91708  -1.91527  -1.16799
 Alpha  occ. eigenvalues --   -1.15438  -1.10370  -1.10269  -1.09439  -1.08735
 Alpha  occ. eigenvalues --   -1.08404  -1.07445  -1.04940  -1.04320  -1.03752
 Alpha  occ. eigenvalues --   -1.03460  -1.03318  -1.03208  -1.02411  -1.02106
 Alpha  occ. eigenvalues --   -0.93791  -0.92179  -0.89406  -0.89201  -0.88543
 Alpha  occ. eigenvalues --   -0.88535  -0.88216  -0.88140  -0.87454  -0.87360
 Alpha  occ. eigenvalues --   -0.87192  -0.86793  -0.86169  -0.85307  -0.84036
 Alpha  occ. eigenvalues --   -0.83810  -0.83595  -0.83329  -0.82374  -0.82178
 Alpha  occ. eigenvalues --   -0.81509  -0.81058  -0.80896  -0.80619  -0.80382
 Alpha  occ. eigenvalues --   -0.80032  -0.78700  -0.78482  -0.77565  -0.76942
 Alpha  occ. eigenvalues --   -0.76765  -0.76553  -0.76122  -0.75829  -0.74978
 Alpha  occ. eigenvalues --   -0.74831  -0.72534  -0.72452  -0.71769  -0.71076
 Alpha  occ. eigenvalues --   -0.70022  -0.69918  -0.69132  -0.69129  -0.68327
 Alpha  occ. eigenvalues --   -0.68325  -0.67519  -0.66976  -0.65340  -0.65210
 Alpha  occ. eigenvalues --   -0.64906  -0.64797  -0.64411  -0.64144  -0.64125
 Alpha  occ. eigenvalues --   -0.63980  -0.62457  -0.61626  -0.60899  -0.60041
 Alpha  occ. eigenvalues --   -0.59481  -0.59418  -0.59347  -0.58787  -0.58602
 Alpha  occ. eigenvalues --   -0.58211  -0.58064  -0.57411  -0.57320  -0.56945
 Alpha  occ. eigenvalues --   -0.56522  -0.55891  -0.55755  -0.55696  -0.55475
 Alpha  occ. eigenvalues --   -0.55206  -0.54915  -0.54736  -0.54563  -0.53983
 Alpha  occ. eigenvalues --   -0.53936  -0.53468  -0.53220  -0.53108  -0.53042
 Alpha  occ. eigenvalues --   -0.52769  -0.52661  -0.52538  -0.52518  -0.52342
 Alpha  occ. eigenvalues --   -0.52065  -0.51981  -0.51313  -0.51100  -0.51018
 Alpha  occ. eigenvalues --   -0.50984  -0.50713  -0.50570  -0.50256  -0.50010
 Alpha  occ. eigenvalues --   -0.49892  -0.49600  -0.49509  -0.49425  -0.49272
 Alpha  occ. eigenvalues --   -0.49197  -0.49189  -0.49020  -0.48943  -0.48790
 Alpha  occ. eigenvalues --   -0.48759  -0.48598  -0.48468  -0.48181  -0.47871
 Alpha  occ. eigenvalues --   -0.47866  -0.47744  -0.47467  -0.47408  -0.47065
 Alpha  occ. eigenvalues --   -0.46675  -0.46629  -0.46368  -0.46286  -0.46085
 Alpha  occ. eigenvalues --   -0.45970  -0.45824  -0.45706  -0.45455  -0.45338
 Alpha  occ. eigenvalues --   -0.45196  -0.45046  -0.44938  -0.44712  -0.44704
 Alpha  occ. eigenvalues --   -0.44542  -0.44396  -0.44231  -0.44178  -0.44069
 Alpha  occ. eigenvalues --   -0.44049  -0.43991  -0.43825  -0.43637  -0.43395
 Alpha  occ. eigenvalues --   -0.43307  -0.43214  -0.43128  -0.43036  -0.42869
 Alpha  occ. eigenvalues --   -0.42632  -0.42541  -0.42407  -0.42374  -0.42363
 Alpha  occ. eigenvalues --   -0.41917  -0.41839  -0.41818  -0.41629  -0.41594
 Alpha  occ. eigenvalues --   -0.41524  -0.40741  -0.40726  -0.40597  -0.40222
 Alpha  occ. eigenvalues --   -0.40092  -0.39625  -0.39581  -0.39237  -0.38813
 Alpha  occ. eigenvalues --   -0.38672  -0.38444  -0.37816  -0.37796  -0.37716
 Alpha  occ. eigenvalues --   -0.37627  -0.37293  -0.36815  -0.36683  -0.36326
 Alpha  occ. eigenvalues --   -0.36303  -0.35959  -0.34894  -0.34239  -0.34004
 Alpha  occ. eigenvalues --   -0.33735  -0.33131  -0.33051  -0.31461  -0.31412
 Alpha  occ. eigenvalues --   -0.31062  -0.30785  -0.30776  -0.30730  -0.30288
 Alpha  occ. eigenvalues --   -0.30022  -0.29483  -0.29151  -0.24115  -0.23761
 Alpha  occ. eigenvalues --   -0.21375  -0.21043
 Alpha virt. eigenvalues --   -0.09237  -0.08353  -0.01403  -0.01299  -0.00043
 Alpha virt. eigenvalues --    0.00466   0.01366   0.01928   0.02174   0.02586
 Alpha virt. eigenvalues --    0.05181   0.05216   0.05393   0.05576   0.06081

 Mulliken charges:
               1
     1  Mg   0.838635
     2  C    0.003026
     3  C   -0.061064
     4  C   -0.104772
     5  C   -0.054720
     6  N   -0.218658
     7  C   -0.092744
     8  C   -0.042337
     9  C   -0.061323
    10  C    0.011010
    11  C    0.050350
    12  C    0.024651
    13  C   -0.040709
    14  H    0.041552
    15  N   -0.391170
    16  C    0.155144
    17  C   -0.142583
    18  C   -0.042433
    19  C    0.127201
    20  C    0.119215
    21  C    0.040028
    22  O   -0.203605
    23  C    0.039545
    24  N   -0.333281
    25  C    0.048234
    26  C   -0.057760
    27  C    0.015410
    28  C   -0.039445
    29  C    0.082152
    30  C    0.031343
    31  C    0.039691
    32  N   -0.320468
    33  C    0.146496
    34  C   -0.155179
    35  C   -0.024215
    36  C    0.123366
    37  C    0.118396
    38  C    0.036047
    39  O   -0.149045
    40  C   -0.004665
    41  C    0.202099
    42  O   -0.198368
    43  O   -0.329926
    44  C    0.164244
    45  H   -0.038352
    46  H   -0.000522
    47  H   -0.043702
    48  H    0.025065
    49  H    0.023734
    50  H    0.021481
    51  H    0.003573
    52  H    0.029374
    53  H    0.011245
    54  H    0.008502
    55  H    0.027391
    56  H    0.016258
    57  H    0.020655
    58  H    0.026126
    59  H    0.028245
    60  H    0.036720
    61  H    0.028173
    62  H    0.021085
    63  H    0.014614
    64  H    0.015040
    65  H    0.028223
    66  H    0.010080
    67  H    0.017391
    68  H   -0.003804
    69  H    0.009904
    70  H    0.011552
    71  H    0.012313
    72  H    0.011246
    73  H    0.009230
    74  H    0.018056
    75  H    0.040659
    76  H    0.048827
    77  H    0.031856
    78  H    0.052161
    79  H    0.038235
    80  Mg   0.835549
    81  C    0.031220
    82  C   -0.057071
    83  C   -0.053485
    84  C   -0.058906
    85  N   -0.269260
    86  C   -0.044987
    87  C    0.002007
    88  C   -0.047180
    89  C   -0.014823
    90  C    0.074621
    91  C    0.034741
    92  C   -0.076602
    93  H    0.020649
    94  N   -0.405740
    95  C    0.178215
    96  C   -0.125149
    97  C   -0.000846
    98  C    0.109722
    99  C    0.101761
   100  C   -0.004307
   101  O   -0.244037
   102  C    0.051040
   103  N   -0.270188
   104  C    0.053246
   105  C   -0.078199
   106  C    0.027902
   107  C   -0.007821
   108  C    0.069549
   109  C    0.031243
   110  C    0.009333
   111  N   -0.344261
   112  C    0.135685
   113  C   -0.189175
   114  C    0.048240
   115  C    0.088876
   116  C    0.113948
   117  C    0.043010
   118  O   -0.170955
   119  C   -0.068814
   120  C    0.209038
   121  O   -0.207509
   122  O   -0.347391
   123  C    0.172013
   124  H   -0.027413
   125  H   -0.004057
   126  H   -0.028282
   127  H    0.008160
   128  H    0.006961
   129  H    0.010130
   130  H    0.012670
   131  H    0.036583
   132  H    0.005593
   133  H    0.014497
   134  H    0.032419
   135  H    0.046700
   136  H    0.016023
   137  H    0.027824
   138  H    0.023623
   139  H    0.009447
   140  H    0.052523
   141  H    0.022989
   142  H    0.010387
   143  H    0.010026
   144  H    0.021266
   145  H    0.019827
   146  H   -0.000285
   147  H    0.007288
   148  H    0.015381
   149  H    0.024394
   150  H    0.019922
   151  H    0.019841
   152  H    0.034793
   153  H   -0.002160
   154  H    0.036019
   155  H    0.036098
   156  H    0.043672
   157  H    0.035876
   158  H    0.046364
 Sum of Mulliken charges =  -0.00000

 Dipole moment (field-independent basis, Debye):
    X=              3.7834    Y=             -0.1858    Z=              7.5053  Tot=              8.4070
 Quadrupole moment (field-independent basis, Debye-Ang):
   XX=           -394.7183   YY=           -491.8079   ZZ=           -503.2237
   XY=             54.3492   XZ=              8.9467   YZ=             32.3367

 Normal termination of Gaussian 16 at Tue Sep 14 20:15:11 2021.
