 Gaussian 16, Revision A.03,
 Gaussian 16:  ES64L-G16RevA.03 25-Dec-2016

 ----------------------------------------------------------
 #p cam-b3lyp/Def2SVP td=(nstates=5) density=(transition=1)
 ----------------------------------------------------------

 --------------------------------
 TDDFT excited states in gaussian
 --------------------------------
 Symbolic Z-matrix:
 Charge =  0 Multiplicity = 1

                         Standard orientation:
 ---------------------------------------------------------------------
 Center     Atomic      Atomic             Coordinates (Angstroms)
 Number     Number       Type             X           Y           Z
 ---------------------------------------------------------------------
      1         12           0      -30.171915   -0.079078   -0.098943
      2          6           0      -26.955746    0.965945   -0.894755
      3          6           0      -28.694669   -3.234867    0.719770
      4          6           0      -33.050842   -1.055314    1.151668
      5          6           0      -31.224550    3.270056   -0.280559
      6          7           0      -28.055723   -0.958498    0.017944
      7          6           0      -26.932614   -0.323221   -0.462499
      8          6           0      -25.707392   -1.227582   -0.303657
      9          6           0      -26.367251   -2.612543   -0.057285
     10          6           0      -27.792006   -2.271882    0.292469
     11          6           0      -26.335695   -3.680545   -1.220105
     12          6           0      -24.772999   -0.783345    0.833696
     13          6           0      -23.487908   -1.513044    0.929787
     14          1           0      -22.307216   -0.791949    1.685489
     15          7           0      -30.815031   -1.907787    0.836635
     16          6           0      -30.073057   -3.079801    1.051013
     17          6           0      -30.939057   -4.048611    1.663019
     18          6           0      -32.191989   -3.381522    1.926205
     19          6           0      -32.061938   -2.038561    1.262186
     20          6           0      -30.457684   -5.463565    2.087380
     21          6           0      -33.353124   -4.060567    2.659457
     22          8           0      -33.337003   -5.249624    2.931291
     23          6           0      -34.532822   -3.250600    3.041235
     24          7           0      -31.951864    0.938730    0.153455
     25          6           0      -33.007225    0.285985    0.652064
     26          6           0      -34.189390    1.304418    0.914808
     27          6           0      -33.630932    2.725598    0.520382
     28          6           0      -32.108521    2.302864    0.138936
     29          6           0      -35.574381    0.969426    0.301430
     30          6           0      -33.674236    3.673551    1.737966
     31          6           0      -33.845850    5.160081    1.402598
     32          7           0      -29.331837    1.802748   -0.502103
     33          6           0      -29.886334    3.041319   -0.665213
     34          6           0      -28.857053    3.944402   -1.193887
     35          6           0      -27.753882    3.154612   -1.377266
     36          6           0      -28.038162    1.896824   -0.895810
     37          6           0      -29.060096    5.410394   -1.590112
     38          6           0      -26.384598    3.168383   -1.796197
     39          8           0      -25.690641    4.036255   -2.265882
     40          6           0      -25.812171    1.739318   -1.513102
     41          6           0      -25.448427    1.134270   -2.823848
     42          8           0      -26.128493    1.077029   -3.810602
     43          8           0      -24.203089    0.496113   -2.690369
     44          6           0      -23.740595   -0.210889   -3.850623
     45          1           0      -28.169856   -4.183157    0.849560
     46          1           0      -34.064233   -1.239746    1.515531
     47          1           0      -31.535555    4.308159   -0.415922
     48          1           0      -25.230355   -1.254033   -1.282433
     49          1           0      -26.017926   -3.157290    0.819129
     50          1           0      -25.939973   -4.576172   -0.741663
     51          1           0      -26.003832   -3.351763   -2.205290
     52          1           0      -27.374881   -3.934204   -1.428997
     53          1           0      -25.154774   -0.935332    1.843640
     54          1           0      -24.573603    0.285173    0.751642
     55          1           0      -23.182023   -1.739862   -0.091529
     56          1           0      -23.667899   -2.481801    1.395523
     57          1           0      -30.406379   -5.269552    3.159221
     58          1           0      -29.431731   -5.719147    1.821651
     59          1           0      -31.020682   -6.375745    1.888882
     60          1           0      -34.113654   -2.374343    3.535761
     61          1           0      -35.105304   -3.806811    3.783701
     62          1           0      -35.015012   -3.042181    2.085850
     63          1           0      -34.363065    1.272298    1.990775
     64          1           0      -34.105447    3.186908   -0.345135
     65          1           0      -36.229900    0.643771    1.109734
     66          1           0      -35.431635    0.247973   -0.502393
     67          1           0      -36.043774    1.881848   -0.066285
     68          1           0      -32.732793    3.499310    2.258330
     69          1           0      -34.414500    3.398776    2.489637
     70          1           0      -34.748800    5.429197    1.951721
     71          1           0      -33.889088    5.383055    0.336450
     72          1           0      -33.032145    5.741532    1.836241
     73          1           0      -28.286648    6.109298   -1.273384
     74          1           0      -30.029590    5.628699   -1.141686
     75          1           0      -29.297222    5.401620   -2.654087
     76          1           0      -24.934024    1.882284   -0.883289
     77          1           0      -22.902091    0.363188   -4.244999
     78          1           0      -24.435923   -0.418292   -4.664368
     79          1           0      -23.405166   -1.192671   -3.517518
     80         12           0       29.452073    0.407262    0.632990
     81          6           0       28.424336   -2.138126   -1.447076
     82          6           0       28.916174    2.688770   -2.064381
     83          6           0       30.753465    2.826928    2.425829
     84          6           0       30.117522   -1.882985    3.177688
     85          7           0       28.739995    0.205793   -1.480289
     86          6           0       28.348775   -0.915763   -2.092364
     87          6           0       27.808916   -0.553994   -3.514457
     88          6           0       28.127219    1.001249   -3.690953
     89          6           0       28.698353    1.338262   -2.300036
     90          6           0       29.208672    1.374684   -4.686516
     91          6           0       26.345131   -0.945162   -3.767393
     92          6           0       26.197423   -1.735936   -5.056406
     93          1           0       24.880332   -1.725846   -5.845892
     94          7           0       29.706827    2.482733    0.245818
     95          6           0       29.397146    3.232891   -0.851866
     96          6           0       29.668588    4.587694   -0.662820
     97          6           0       30.332460    4.679107    0.610070
     98          6           0       30.278164    3.286055    1.173999
     99          6           0       29.354442    5.671871   -1.683480
    100          6           0       30.996780    5.882886    1.258103
    101          8           0       31.666953    5.704393    2.293650
    102          6           0       30.970002    7.219231    0.636163
    103          7           0       30.257425    0.431766    2.500295
    104          6           0       30.700051    1.588724    3.108004
    105          6           0       31.292251    1.384868    4.551867
    106          6           0       30.793698   -0.098277    4.824644
    107          6           0       30.379595   -0.564568    3.416946
    108          6           0       32.837041    1.544327    4.841051
    109          6           0       29.761597   -0.348986    6.015972
    110          6           0       28.330640    0.017463    5.723083
    111          7           0       29.456069   -1.572818    0.840949
    112          6           0       29.740528   -2.411233    1.901977
    113          6           0       29.526055   -3.764036    1.585902
    114          6           0       28.977878   -3.677978    0.300950
    115          6           0       28.941090   -2.321058   -0.133908
    116          6           0       29.727651   -4.840293    2.565688
    117          6           0       28.566993   -4.538396   -0.740830
    118          8           0       28.609666   -5.770127   -0.761869
    119          6           0       28.140120   -3.583456   -1.974056
    120          6           0       28.926039   -3.937855   -3.142796
    121          8           0       30.091419   -3.679227   -3.339257
    122          8           0       28.217677   -4.707558   -3.959861
    123          6           0       28.853414   -5.267593   -5.113988
    124          1           0       28.798523    3.369552   -2.909541
    125          1           0       31.212244    3.520505    3.133135
    126          1           0       30.341600   -2.565930    3.999835
    127          1           0       28.502584   -1.125318   -4.130491
    128          1           0       27.211470    1.435500   -4.093670
    129          1           0       29.596098    0.538918   -5.269952
    130          1           0       30.077821    1.774741   -4.165060
    131          1           0       28.880042    2.222664   -5.288134
    132          1           0       25.642277   -0.112039   -3.784871
    133          1           0       26.015683   -1.546858   -2.920648
    134          1           0       26.288973   -2.784936   -4.772446
    135          1           0       26.997996   -1.391668   -5.710858
    136          1           0       28.705516    5.302076   -2.477428
    137          1           0       30.272070    5.930197   -2.212452
    138          1           0       29.013501    6.584019   -1.195164
    139          1           0       31.782198    7.840052    1.016021
    140          1           0       30.041736    7.695709    0.952950
    141          1           0       31.055707    7.135228   -0.446941
    142          1           0       30.746182    1.951081    5.307069
    143          1           0       31.637292   -0.682325    5.190409
    144          1           0       33.321230    1.821650    3.905532
    145          1           0       33.267623    0.555300    5.002624
    146          1           0       33.147389    2.213837    5.643783
    147          1           0       30.066120    0.321096    6.819564
    148          1           0       29.813273   -1.348586    6.445827
    149          1           0       27.707471   -0.664827    6.300165
    150          1           0       27.959963    0.064631    4.699899
    151          1           0       28.200445    1.042151    6.071203
    152          1           0       29.564087   -4.624681    3.621253
    153          1           0       30.628506   -5.439753    2.440177
    154          1           0       28.960795   -5.547269    2.250136
    155          1           0       27.083556   -3.757609   -2.176715
    156          1           0       28.786678   -4.612426   -5.983305
    157          1           0       28.298608   -6.169484   -5.371950
    158          1           0       29.906228   -5.455097   -4.902432
 ---------------------------------------------------------------------

 SCF Done:  E(RCAM-B3LYP) =  -4069.82979018     A.U. after   18 cycles

 Excitation energies and oscillator strengths:

 Excited State   1:      Singlet-A      1.7068 eV  726.43 nm  f=0.4141  <S**2>=0.000
     310 -> 316        0.17263
     312 -> 313        0.68675
     310 <- 316        0.10537
 This state for optimization and/or second-order correction.
 Total Energy, E(TD-HF/TD-DFT) =  -4069.76706753
 Copying the excited state density for this state as the 1-particle RhoCI density.

 Excited State   2:      Singlet-A      1.7655 eV  702.25 nm  f=0.3972  <S**2>=0.000
     309 -> 315        0.17238
     311 -> 314        0.68748
     309 <- 315        0.10344

 Excited State   3:      Singlet-A      2.2215 eV  558.10 nm  f=0.1598  <S**2>=0.000
     310 -> 313        0.65327
     312 -> 316       -0.25407

 Excited State   4:      Singlet-A      2.2943 eV  540.41 nm  f=0.1178  <S**2>=0.000
     309 -> 314        0.63734
     311 -> 315       -0.29069

 Excited State   5:      Singlet-A      3.2266 eV  384.26 nm  f=0.0000  <S**2>=0.000
     312 -> 314        0.70711

 The electronic state is 1-A.
 Alpha  occ. eigenvalues --  -46.89674 -46.87684 -19.24959 -19.24826 -19.20511
 Alpha  occ. eigenvalues --  -19.18704 -19.18623 -19.18590 -19.18541 -19.18240
 Alpha  occ. eigenvalues --  -14.42670 -14.42358 -14.42297 -14.42164 -14.40240
 Alpha  occ. eigenvalues --  -14.39712 -14.39109 -14.38962 -10.39520 -10.38300
 Alpha  occ. eigenvalues --  -10.34872 -10.34867 -10.34509 -10.34168 -10.32374
 Alpha  occ. eigenvalues --  -10.31607 -10.31500 -10.31239 -10.31217 -10.31191
 Alpha  occ. eigenvalues --  -10.31184 -10.31156 -10.31132 -10.31090 -10.30736
 Alpha  occ. eigenvalues --  -10.30576 -10.30154 -10.29555 -10.29382 -10.29246
 Alpha  occ. eigenvalues --  -10.29052 -10.28986 -10.28603 -10.28553 -10.28521
 Alpha  occ. eigenvalues --  -10.28362 -10.28281 -10.28273 -10.28265 -10.28262
 Alpha  occ. eigenvalues --  -10.28243 -10.28199 -10.28182 -10.27959 -10.27917
 Alpha  occ. eigenvalues --  -10.27801 -10.27759 -10.27757 -10.27697 -10.27661
 Alpha  occ. eigenvalues --  -10.27586 -10.27538 -10.27497 -10.27426 -10.27293
 Alpha  occ. eigenvalues --  -10.27188 -10.26934 -10.26812 -10.26798 -10.26601
 Alpha  occ. eigenvalues --  -10.26548 -10.26511 -10.26419 -10.26304 -10.26274
 Alpha  occ. eigenvalues --  -10.26254 -10.26184 -10.26165 -10.26088 -10.26073
 Alpha  occ. eigenvalues --  -10.25745 -10.25639 -10.25558 -10.24978 -10.24637
 Alpha  occ. eigenvalues --  -10.23997  -3.18095  -3.16468  -1.93002  -1.92553
 Alpha  occ. eigenvalues --   -1.92383  -1.91366  -1.90940  -1.90773  -1.17931
 Alpha  occ. eigenvalues --   -1.16633  -1.10351  -1.10130  -1.08852  -1.08843
 Alpha  occ. eigenvalues --   -1.08501  -1.07795  -1.04607  -1.04592  -1.03803
 Alpha  occ. eigenvalues --   -1.03735  -1.03700  -1.03330  -1.02837  -1.02545
 Alpha  occ. eigenvalues --   -0.93280  -0.92087  -0.89429  -0.89363  -0.89247
 Alpha  occ. eigenvalues --   -0.88851  -0.88771  -0.88344  -0.88107  -0.87649
 Alpha  occ. eigenvalues --   -0.87515  -0.86784  -0.86473  -0.85962  -0.85227
 Alpha  occ. eigenvalues --   -0.84592  -0.84062  -0.83863  -0.83177  -0.82949
 Alpha  occ. eigenvalues --   -0.82600  -0.82397  -0.81314  -0.81180  -0.80866
 Alpha  occ. eigenvalues --   -0.80593  -0.78339  -0.77774  -0.77366  -0.77331
 Alpha  occ. eigenvalues --   -0.77126  -0.76893  -0.76220  -0.75979  -0.75540
 Alpha  occ. eigenvalues --   -0.75282  -0.73449  -0.73261  -0.72060  -0.71451
 Alpha  occ. eigenvalues --   -0.69651  -0.69351  -0.69085  -0.68837  -0.67803
 Alpha  occ. eigenvalues --   -0.67794  -0.67144  -0.66780  -0.66112  -0.65594
 Alpha  occ. eigenvalues --   -0.65392  -0.64994  -0.64918  -0.64630  -0.64604
 Alpha  occ. eigenvalues --   -0.64383  -0.62712  -0.62342  -0.60425  -0.60254
 Alpha  occ. eigenvalues --   -0.60001  -0.59912  -0.59328  -0.58993  -0.58870
 Alpha  occ. eigenvalues --   -0.58511  -0.58473  -0.58349  -0.57681  -0.57587
 Alpha  occ. eigenvalues --   -0.56525  -0.56519  -0.56203  -0.55918  -0.55492
 Alpha  occ. eigenvalues --   -0.55090  -0.54944  -0.54671  -0.54403  -0.54359
 Alpha  occ. eigenvalues --   -0.54041  -0.53587  -0.53533  -0.53333  -0.53165
 Alpha  occ. eigenvalues --   -0.53164  -0.52773  -0.52661  -0.52504  -0.52351
 Alpha  occ. eigenvalues --   -0.52129  -0.51921  -0.51738  -0.51721  -0.51671
 Alpha  occ. eigenvalues --   -0.51326  -0.50856  -0.50751  -0.50381  -0.50302
 Alpha  occ. eigenvalues --   -0.50298  -0.50295  -0.49959  -0.49892  -0.49665
 Alpha  occ. eigenvalues --   -0.49470  -0.49332  -0.49257  -0.49142  -0.49062
 Alpha  occ. eigenvalues --   -0.48961  -0.48873  -0.48394  -0.48312  -0.48144
 Alpha  occ. eigenvalues --   -0.48117  -0.47773  -0.47554  -0.47394  -0.47328
 Alpha  occ. eigenvalues --   -0.47169  -0.47109  -0.46877  -0.46500  -0.46480
 Alpha  occ. eigenvalues --   -0.46417  -0.46376  -0.46163  -0.46023  -0.45823
 Alpha  occ. eigenvalues --   -0.45538  -0.45423  -0.45341  -0.45149  -0.45147
 Alpha  occ. eigenvalues --   -0.44925  -0.44689  -0.44587  -0.44374  -0.44182
 Alpha  occ. eigenvalues --   -0.43928  -0.43896  -0.43708  -0.43632  -0.43492
 Alpha  occ. eigenvalues --   -0.43333  -0.43251  -0.43239  -0.42971  -0.42730
 Alpha  occ. eigenvalues --   -0.42677  -0.42526  -0.42397  -0.42309  -0.42047
 Alpha  occ. eigenvalues --   -0.41994  -0.41877  -0.41586  -0.41555  -0.41509
 Alpha  occ. eigenvalues --   -0.41319  -0.41111  -0.40987  -0.40624  -0.40483
 Alpha  occ. eigenvalues --   -0.40278  -0.39934  -0.39729  -0.39197  -0.38883
 Alpha  occ. eigenvalues --   -0.38832  -0.38197  -0.38061  -0.37737  -0.37689
 Alpha  occ. eigenvalues --   -0.37189  -0.36922  -0.36535  -0.36535  -0.36355
 Alpha  occ. eigenvalues --   -0.36182  -0.36105  -0.35263  -0.34260  -0.34233
 Alpha  occ. eigenvalues --   -0.33881  -0.33738  -0.33131  -0.31779  -0.31446
 Alpha  occ. eigenvalues --   -0.31049  -0.30783  -0.30670  -0.30533  -0.30138
 Alpha  occ. eigenvalues --   -0.30060  -0.29961  -0.29766  -0.24682  -0.24124
 Alpha  occ. eigenvalues --   -0.21677  -0.21480
 Alpha virt. eigenvalues --   -0.09099  -0.09046  -0.01953  -0.01427   0.00487
 Alpha virt. eigenvalues --    0.00905   0.02019   0.02479   0.02715   0.03166
 Alpha virt. eigenvalues --    0.04400   0.05385   0.05640   0.05669   0.05810

 Mulliken charges:
               1
     1  Mg  12.000000
     2  C    5.999989
     3  C    6.000022
     4  C    6.000000
     5  C    5.999973
     6  N    6.999968
     7  C    6.000051
     8  C    5.999992
     9  C    6.000013
    10  C    5.999953
    11  C    6.000009
    12  C    5.999988
    13  C    6.000007
    14  H    0.999998
    15  N    7.000020
    16  C    5.999851
    17  C    6.000009
    18  C    5.999928
    19  C    5.999922
    20  C    6.000023
    21  C    5.999960
    22  O    7.999948
    23  C    6.000012
    24  N    7.000035
    25  C    5.999950
    26  C    6.000018
    27  C    5.999978
    28  C    6.000042
    29  C    6.000003
    30  C    5.999988
    31  C    5.999997
    32  N    7.000001
    33  C    6.000124
    34  C    6.000080
    35  C    5.999988
    36  C    6.000071
    37  C    5.999981
    38  C    6.000066
    39  O    8.000065
    40  C    5.999989
    41  C    6.000016
    42  O    8.000009
    43  O    8.000003
    44  C    5.999996
    45  H    0.999946
    46  H    1.000003
    47  H    1.000036
    48  H    0.999994
    49  H    0.999989
    50  H    0.999969
    51  H    0.999960
    52  H    1.000009
    53  H    1.000021
    54  H    0.999993
    55  H    0.999993
    56  H    1.000003
    57  H    0.999950
    58  H    0.999940
    59  H    0.999942
    60  H    0.999980
    61  H    0.999963
    62  H    0.999978
    63  H    1.000001
    64  H    1.000013
    65  H    1.000003
    66  H    1.000001
    67  H    0.999981
    68  H    0.999999
    69  H    1.000032
    70  H    1.000021
    71  H    1.000002
    72  H    1.000002
    73  H    1.000067
    74  H    1.000060
    75  H    1.000066
    76  H    1.000022
    77  H    1.000015
    78  H    1.000011
    79  H    1.000001
    80  Mg  12.002646
    81  C    5.980345
    82  C    6.022108
    83  C    6.027032
    84  C    5.987474
    85  N    6.994041
    86  C    6.029282
    87  C    5.992220
    88  C    6.016985
    89  C    5.966286
    90  C    6.003305
    91  C    5.998876
    92  C    5.998519
    93  H    1.005192
    94  N    7.008872
    95  C    5.955029
    96  C    5.983041
    97  C    5.981490
    98  C    5.959247
    99  C    6.003830
   100  C    5.986250
   101  O    7.968152
   102  C    6.006312
   103  N    7.000680
   104  C    5.957681
   105  C    6.016916
   106  C    5.988975
   107  C    6.029584
   108  C    5.999377
   109  C    5.994447
   110  C    5.996794
   111  N    6.995713
   112  C    6.041271
   113  C    6.027427
   114  C    6.003351
   115  C    6.037699
   116  C    5.994176
   117  C    6.016433
   118  O    8.033268
   119  C    6.004108
   120  C    6.004291
   121  O    8.007263
   122  O    8.001143
   123  C    5.996744
   124  H    0.990571
   125  H    0.994375
   126  H    1.011329
   127  H    0.997681
   128  H    0.991481
   129  H    0.984760
   130  H    1.004012
   131  H    0.997923
   132  H    1.009348
   133  H    0.992665
   134  H    0.993565
   135  H    1.005244
   136  H    0.981394
   137  H    0.980095
   138  H    0.983559
   139  H    0.984202
   140  H    0.988597
   141  H    0.994431
   142  H    0.995687
   143  H    1.002196
   144  H    1.003738
   145  H    0.987626
   146  H    0.998573
   147  H    1.011297
   148  H    0.997637
   149  H    0.999511
   150  H    0.999614
   151  H    1.011377
   152  H    1.021368
   153  H    1.024134
   154  H    1.015177
   155  H    1.009610
   156  H    1.007974
   157  H    1.003627
   158  H    1.001743
 Sum of Mulliken charges = 624.00000

 Dipole moment (field-independent basis, Debye):
    X=             -1.2791    Y=            -11.1730    Z=              1.2172  Tot=             11.3116
 Quadrupole moment (field-independent basis, Debye-Ang):
   XX=            -77.1655   YY=             -9.3136   ZZ=              3.4321
   XY=           -334.4982   XZ=             35.6551   YZ=             -3.2985

 Normal termination of Gaussian 16 at Thu Sep 23 12:18:00 2021.
