 Gaussian 16, Revision A.03,
 Gaussian 16:  ES64L-G16RevA.03 25-Dec-2016

 ----------------------------------------------------------
 #p cam-b3lyp/Def2SVP td=(nstates=5) density=(transition=1)
 ----------------------------------------------------------

 --------------------------------
 TDDFT excited states in gaussian
 --------------------------------
 Symbolic Z-matrix:
 Charge =  0 Multiplicity = 1

                         Standard orientation:
 ---------------------------------------------------------------------
 Center     Atomic      Atomic             Coordinates (Angstroms)
 Number     Number       Type             X           Y           Z
 ---------------------------------------------------------------------
      1         12           0       24.147991    0.603018    0.007934
      2          6           0       22.678266   -2.338633   -1.244892
      3          6           0       24.136022   -0.889586    3.148409
      4          6           0       25.227976    3.510135    1.195313
      5          6           0       23.293360    2.266736   -3.056725
      6          7           0       23.470492   -1.348010    0.846580
      7          6           0       23.012735   -2.437162    0.091810
      8          6           0       23.158301   -3.706159    0.911099
      9          6           0       23.350299   -3.219978    2.375843
     10          6           0       23.679887   -1.720064    2.110381
     11          6           0       22.175275   -3.507612    3.362414
     12          6           0       24.272539   -4.687069    0.406041
     13          6           0       23.959661   -6.224266    0.677808
     14          1           0       22.671351   -6.569541    1.429507
     15          7           0       24.716542    1.156705    1.826720
     16          6           0       24.714071    0.387054    2.977277
     17          6           0       25.321944    1.097478    4.065172
     18          6           0       25.535538    2.423728    3.570171
     19          6           0       25.195667    2.383412    2.159046
     20          6           0       25.487306    0.506602    5.498603
     21          6           0       26.013385    3.631984    4.307144
     22          8           0       26.003386    4.769043    3.778018
     23          6           0       26.497849    3.756025    5.781744
     24          7           0       24.006794    2.668647   -0.695807
     25          6           0       24.632541    3.670726   -0.049925
     26          6           0       24.770801    4.907719   -0.972635
     27          6           0       24.139020    4.531018   -2.317520
     28          6           0       23.824706    3.000098   -2.013233
     29          6           0       24.297818    6.160995   -0.301407
     30          6           0       24.995910    4.747029   -3.583386
     31          6           0       26.340627    3.979487   -3.611630
     32          7           0       23.122117    0.141751   -1.810403
     33          6           0       23.018698    0.854930   -2.956030
     34          6           0       22.550825   -0.071780   -3.985595
     35          6           0       22.411112   -1.367400   -3.413935
     36          6           0       22.727983   -1.183553   -2.046016
     37          6           0       22.380330    0.255140   -5.466795
     38          6           0       22.054832   -2.727759   -3.662789
     39          8           0       21.794253   -3.368933   -4.677363
     40          6           0       22.158255   -3.447535   -2.165239
     41          6           0       20.841741   -4.132245   -1.849639
     42          8           0       19.861384   -3.545891   -1.434553
     43          8           0       20.950317   -5.496121   -1.999718
     44          6           0       19.733311   -6.292272   -2.120514
     45          1           0       24.200962   -1.497147    4.053249
     46          1           0       25.680674    4.409798    1.616692
     47          1           0       23.188499    2.807896   -3.999068
     48          1           0       22.232624   -4.278739    0.854856
     49          1           0       24.247683   -3.707564    2.755622
     50          1           0       21.939026   -2.512507    3.737815
     51          1           0       22.525966   -4.080194    4.221899
     52          1           0       21.253793   -3.955547    2.990565
     53          1           0       25.211341   -4.529996    0.936246
     54          1           0       24.454315   -4.490787   -0.649839
     55          1           0       24.725749   -6.594237    1.359405
     56          1           0       23.979482   -6.732284   -0.286055
     57          1           0       25.291259    1.310744    6.208894
     58          1           0       26.499742    0.153814    5.692192
     59          1           0       24.901401   -0.350684    5.829739
     60          1           0       27.317114    3.063407    5.976644
     61          1           0       25.688263    3.624919    6.499665
     62          1           0       27.089451    4.647660    5.985932
     63          1           0       25.839571    5.111940   -1.022423
     64          1           0       23.154144    4.999033   -2.299475
     65          1           0       25.117095    6.781338    0.062473
     66          1           0       23.602538    5.912750    0.500665
     67          1           0       23.692060    6.807374   -0.937484
     68          1           0       25.217338    5.814029   -3.551763
     69          1           0       24.412508    4.518454   -4.475785
     70          1           0       26.283643    3.338159   -4.490915
     71          1           0       26.392414    3.403522   -2.687639
     72          1           0       27.223567    4.618284   -3.585218
     73          1           0       22.764589   -0.530724   -6.116454
     74          1           0       22.986308    1.112462   -5.758459
     75          1           0       21.335381    0.516072   -5.636648
     76          1           0       22.907095   -4.228809   -2.297916
     77          1           0       19.017412   -5.871245   -1.414102
     78          1           0       19.850814   -7.348251   -1.876953
     79          1           0       19.450184   -6.231094   -3.171351
     80         12           0      -24.037321    0.676019    0.121245
     81          6           0      -21.745372   -1.841468    1.033081
     82          6           0      -26.222343   -1.862620   -0.730585
     83          6           0      -26.313002    3.000658   -0.914087
     84          6           0      -21.700621    3.024151    0.664733
     85          7           0      -23.997561   -1.622554    0.183205
     86          6           0      -23.015155   -2.446225    0.719532
     87          6           0      -23.531219   -3.864430    0.857874
     88          6           0      -24.815917   -3.879197   -0.047930
     89          6           0      -25.023633   -2.387706   -0.185939
     90          6           0      -24.691065   -4.682368   -1.401659
     91          6           0      -23.907515   -4.233825    2.300478
     92          6           0      -23.599000   -5.677464    2.711690
     93          1           0      -24.434432   -6.823659    2.076580
     94          7           0      -26.016247    0.598751   -0.618700
     95          6           0      -26.658454   -0.555110   -0.913100
     96          6           0      -27.907601   -0.236671   -1.524760
     97          6           0      -28.088221    1.189234   -1.490054
     98          6           0      -26.779801    1.642683   -1.052448
     99          6           0      -28.842108   -1.298109   -2.035282
    100          6           0      -29.243657    2.082736   -1.941540
    101          8           0      -29.275711    3.303464   -1.670717
    102          6           0      -30.385632    1.570727   -2.812061
    103          7           0      -24.037505    2.700186   -0.004295
    104          6           0      -25.060925    3.483414   -0.529431
    105          6           0      -24.612477    4.908300   -0.567069
    106          6           0      -23.149149    5.009617   -0.004336
    107          6           0      -22.923869    3.517694    0.289946
    108          6           0      -24.857639    5.632616   -1.924924
    109          6           0      -22.978895    5.884913    1.256229
    110          6           0      -22.514894    7.321842    0.948993
    111          7           0      -22.136442    0.664968    0.666669
    112          6           0      -21.252020    1.709422    0.932435
    113          6           0      -19.924192    1.226006    1.464381
    114          6           0      -20.126748   -0.163637    1.463000
    115          6           0      -21.462961   -0.452858    1.037175
    116          6           0      -18.736879    2.082174    1.865701
    117          6           0      -19.442374   -1.407759    1.781059
    118          8           0      -18.292387   -1.621622    2.166858
    119          6           0      -20.548673   -2.534555    1.617232
    120          6           0      -19.909342   -3.599275    0.704317
    121          8           0      -19.214519   -3.392006   -0.269049
    122          8           0      -20.117378   -4.854066    1.273748
    123          6           0      -19.540485   -5.942275    0.484166
    124          1           0      -26.915938   -2.685632   -0.914026
    125          1           0      -26.963131    3.826100   -1.210702
    126          1           0      -20.966778    3.831703    0.697831
    127          1           0      -22.854953   -4.632333    0.483061
    128          1           0      -25.692494   -4.334524    0.413007
    129          1           0      -23.764257   -5.241586   -1.532926
    130          1           0      -24.737971   -4.099105   -2.320970
    131          1           0      -25.460138   -5.452208   -1.464935
    132          1           0      -24.966686   -4.061600    2.490388
    133          1           0      -23.339956   -3.634164    3.012366
    134          1           0      -23.612155   -5.803697    3.794187
    135          1           0      -22.561734   -5.935486    2.499150
    136          1           0      -28.169353   -1.917424   -2.628725
    137          1           0      -29.642751   -0.989105   -2.707129
    138          1           0      -29.288378   -1.924715   -1.263409
    139          1           0      -30.001927    1.032054   -3.678649
    140          1           0      -30.896336    2.495919   -3.078687
    141          1           0      -31.019000    0.875879   -2.260593
    142          1           0      -25.330639    5.474250    0.027043
    143          1           0      -22.391370    5.300723   -0.732891
    144          1           0      -25.266674    4.900195   -2.621216
    145          1           0      -23.901543    5.982134   -2.313644
    146          1           0      -25.581208    6.410829   -1.679869
    147          1           0      -22.351759    5.329097    1.952921
    148          1           0      -23.941790    6.069321    1.733099
    149          1           0      -22.790007    7.587785   -0.071827
    150          1           0      -21.439480    7.500337    0.957387
    151          1           0      -23.053530    7.997003    1.614583
    152          1           0      -18.998169    2.574421    2.802627
    153          1           0      -18.470138    2.875335    1.167522
    154          1           0      -17.909707    1.387209    2.009435
    155          1           0      -20.876210   -3.012415    2.540333
    156          1           0      -20.207328   -6.365741   -0.267504
    157          1           0      -19.253591   -6.679944    1.233460
    158          1           0      -18.654518   -5.748892   -0.120598
 ---------------------------------------------------------------------

 SCF Done:  E(RCAM-B3LYP) =  -4069.84862509     A.U. after   16 cycles

 Excitation energies and oscillator strengths:

 Excited State   1:      Singlet-A      1.6591 eV  747.30 nm  f=0.4035  <S**2>=0.000
     309 -> 316       -0.16731
     311 -> 313        0.68827
     309 <- 316       -0.10535
 This state for optimization and/or second-order correction.
 Total Energy, E(TD-HF/TD-DFT) =  -4069.78765460
 Copying the excited state density for this state as the 1-particle RhoCI density.

 Excited State   2:      Singlet-A      1.7014 eV  728.72 nm  f=0.3750  <S**2>=0.000
     310 -> 315       -0.18654
     312 -> 314        0.68387
     310 <- 315       -0.10956

 Excited State   3:      Singlet-A      2.1919 eV  565.65 nm  f=0.1537  <S**2>=0.000
     309 -> 313        0.65721
     311 -> 316        0.24506

 Excited State   4:      Singlet-A      2.2323 eV  555.40 nm  f=0.0997  <S**2>=0.000
     310 -> 314        0.63578
     312 -> 315        0.29948

 Excited State   5:      Singlet-A      3.0264 eV  409.68 nm  f=0.0000  <S**2>=0.000
     312 -> 313        0.70710

 The electronic state is 1-A.
 Alpha  occ. eigenvalues --  -46.88878 -46.87627 -19.25741 -19.24222 -19.20388
 Alpha  occ. eigenvalues --  -19.19327 -19.19223 -19.19186 -19.19075 -19.18333
 Alpha  occ. eigenvalues --  -14.42654 -14.42519 -14.41401 -14.41255 -14.40242
 Alpha  occ. eigenvalues --  -14.39873 -14.39460 -14.39347 -10.39662 -10.39084
 Alpha  occ. eigenvalues --  -10.35826 -10.35556 -10.35447 -10.35058 -10.31510
 Alpha  occ. eigenvalues --  -10.31455 -10.31418 -10.31379 -10.30905 -10.30853
 Alpha  occ. eigenvalues --  -10.30768 -10.30723 -10.30706 -10.30700 -10.30438
 Alpha  occ. eigenvalues --  -10.30321 -10.30304 -10.30256 -10.29822 -10.29563
 Alpha  occ. eigenvalues --  -10.29486 -10.29261 -10.29200 -10.29085 -10.29007
 Alpha  occ. eigenvalues --  -10.28722 -10.28717 -10.28692 -10.28608 -10.28537
 Alpha  occ. eigenvalues --  -10.28358 -10.28212 -10.28170 -10.28122 -10.27945
 Alpha  occ. eigenvalues --  -10.27915 -10.27834 -10.27822 -10.27526 -10.27492
 Alpha  occ. eigenvalues --  -10.27488 -10.27445 -10.27426 -10.27352 -10.27181
 Alpha  occ. eigenvalues --  -10.27045 -10.27026 -10.26855 -10.26696 -10.26581
 Alpha  occ. eigenvalues --  -10.26560 -10.26405 -10.26381 -10.26315 -10.26303
 Alpha  occ. eigenvalues --  -10.26226 -10.26041 -10.25988 -10.25968 -10.25672
 Alpha  occ. eigenvalues --  -10.25641 -10.25588 -10.25569 -10.25540 -10.25262
 Alpha  occ. eigenvalues --  -10.24877  -3.17448  -3.16410  -1.92318  -1.91904
 Alpha  occ. eigenvalues --   -1.91762  -1.91308  -1.90841  -1.90754  -1.16279
 Alpha  occ. eigenvalues --   -1.15414  -1.09416  -1.09210  -1.08909  -1.08383
 Alpha  occ. eigenvalues --   -1.08152  -1.07421  -1.04694  -1.04298  -1.03646
 Alpha  occ. eigenvalues --   -1.03437  -1.03186  -1.03053  -1.02084  -1.01436
 Alpha  occ. eigenvalues --   -0.92553  -0.92156  -0.89415  -0.89180  -0.89000
 Alpha  occ. eigenvalues --   -0.88520  -0.88276  -0.88118  -0.87463  -0.87338
 Alpha  occ. eigenvalues --   -0.86994  -0.86771  -0.86126  -0.85285  -0.84396
 Alpha  occ. eigenvalues --   -0.83788  -0.83528  -0.83307  -0.82280  -0.82155
 Alpha  occ. eigenvalues --   -0.81710  -0.81035  -0.80967  -0.80596  -0.80066
 Alpha  occ. eigenvalues --   -0.80010  -0.78679  -0.78436  -0.77447  -0.77268
 Alpha  occ. eigenvalues --   -0.76921  -0.76742  -0.76133  -0.75806  -0.75040
 Alpha  occ. eigenvalues --   -0.74956  -0.72662  -0.72512  -0.71644  -0.71054
 Alpha  occ. eigenvalues --   -0.69896  -0.69366  -0.69107  -0.68797  -0.68304
 Alpha  occ. eigenvalues --   -0.68168  -0.67496  -0.67298  -0.65769  -0.65486
 Alpha  occ. eigenvalues --   -0.65188  -0.64884  -0.64473  -0.64144  -0.64123
 Alpha  occ. eigenvalues --   -0.64103  -0.62557  -0.61603  -0.60878  -0.60355
 Alpha  occ. eigenvalues --   -0.60133  -0.59459  -0.58916  -0.58764  -0.58481
 Alpha  occ. eigenvalues --   -0.58042  -0.57730  -0.57480  -0.57388  -0.56923
 Alpha  occ. eigenvalues --   -0.56002  -0.55869  -0.55733  -0.55432  -0.55095
 Alpha  occ. eigenvalues --   -0.54892  -0.54714  -0.54673  -0.53912  -0.53785
 Alpha  occ. eigenvalues --   -0.53477  -0.53445  -0.53117  -0.53020  -0.52861
 Alpha  occ. eigenvalues --   -0.52748  -0.52548  -0.52515  -0.52320  -0.52133
 Alpha  occ. eigenvalues --   -0.51959  -0.51836  -0.51732  -0.51290  -0.51205
 Alpha  occ. eigenvalues --   -0.50996  -0.50691  -0.50465  -0.50198  -0.50024
 Alpha  occ. eigenvalues --   -0.49988  -0.49777  -0.49487  -0.49349  -0.49249
 Alpha  occ. eigenvalues --   -0.49175  -0.49051  -0.48998  -0.48884  -0.48737
 Alpha  occ. eigenvalues --   -0.48575  -0.48476  -0.48224  -0.48159  -0.48068
 Alpha  occ. eigenvalues --   -0.47844  -0.47722  -0.47601  -0.47386  -0.47383
 Alpha  occ. eigenvalues --   -0.46836  -0.46653  -0.46642  -0.46507  -0.46346
 Alpha  occ. eigenvalues --   -0.46264  -0.46257  -0.45886  -0.45801  -0.45497
 Alpha  occ. eigenvalues --   -0.45433  -0.45174  -0.44903  -0.44689  -0.44607
 Alpha  occ. eigenvalues --   -0.44520  -0.44514  -0.44337  -0.44325  -0.44209
 Alpha  occ. eigenvalues --   -0.44047  -0.43969  -0.43571  -0.43478  -0.43372
 Alpha  occ. eigenvalues --   -0.43168  -0.43105  -0.43014  -0.42995  -0.42667
 Alpha  occ. eigenvalues --   -0.42610  -0.42385  -0.42339  -0.41920  -0.41895
 Alpha  occ. eigenvalues --   -0.41817  -0.41733  -0.41591  -0.41572  -0.41502
 Alpha  occ. eigenvalues --   -0.41212  -0.41034  -0.40704  -0.40574  -0.40431
 Alpha  occ. eigenvalues --   -0.40226  -0.40069  -0.39671  -0.39604  -0.39213
 Alpha  occ. eigenvalues --   -0.38692  -0.38650  -0.38293  -0.37915  -0.37773
 Alpha  occ. eigenvalues --   -0.37605  -0.37246  -0.36856  -0.36792  -0.36618
 Alpha  occ. eigenvalues --   -0.36281  -0.35935  -0.35140  -0.34935  -0.33980
 Alpha  occ. eigenvalues --   -0.33712  -0.33029  -0.32835  -0.31503  -0.31438
 Alpha  occ. eigenvalues --   -0.30956  -0.30922  -0.30763  -0.30708  -0.30537
 Alpha  occ. eigenvalues --   -0.30266  -0.29980  -0.29461  -0.24092  -0.23932
 Alpha  occ. eigenvalues --   -0.21353  -0.21059
 Alpha virt. eigenvalues --   -0.09214  -0.08554  -0.01762  -0.01381  -0.00020
 Alpha virt. eigenvalues --    0.00015   0.01389   0.01765   0.02196   0.03755
 Alpha virt. eigenvalues --    0.04773   0.05048   0.05239   0.05417   0.05622

 Mulliken charges:
               1
     1  Mg  12.000528
     2  C    5.973984
     3  C    6.005570
     4  C    6.023305
     5  C    5.990457
     6  N    6.988894
     7  C    6.037452
     8  C    5.990273
     9  C    6.012112
    10  C    5.974969
    11  C    5.998145
    12  C    5.996997
    13  C    5.999216
    14  H    1.005480
    15  N    7.007400
    16  C    5.959931
    17  C    5.974522
    18  C    5.986617
    19  C    5.966082
    20  C    6.003541
    21  C    5.991970
    22  O    7.967209
    23  C    6.004482
    24  N    7.008473
    25  C    5.965641
    26  C    6.005237
    27  C    5.991336
    28  C    6.021818
    29  C    6.002523
    30  C    5.995847
    31  C    5.994496
    32  N    6.995163
    33  C    6.037350
    34  C    6.038589
    35  C    5.998629
    36  C    6.041830
    37  C    5.996271
    38  C    6.012375
    39  O    8.026243
    40  C    6.005697
    41  C    6.003022
    42  O    8.005615
    43  O    8.001756
    44  C    5.997959
    45  H    0.985914
    46  H    0.996262
    47  H    1.010412
    48  H    0.999038
    49  H    0.996956
    50  H    1.005043
    51  H    0.997065
    52  H    0.986383
    53  H    1.012621
    54  H    0.992053
    55  H    1.005616
    56  H    0.996816
    57  H    0.983728
    58  H    0.978519
    59  H    0.979925
    60  H    0.991746
    61  H    0.990905
    62  H    0.985515
    63  H    1.000394
    64  H    1.004350
    65  H    1.002017
    66  H    1.003927
    67  H    0.990009
    68  H    1.009655
    69  H    0.995288
    70  H    0.994563
    71  H    1.007345
    72  H    1.008256
    73  H    1.019785
    74  H    1.021692
    75  H    1.023408
    76  H    1.008894
    77  H    1.004814
    78  H    1.006047
    79  H    1.000026
    80  Mg  12.000004
    81  C    5.999941
    82  C    5.999909
    83  C    6.000045
    84  C    6.000052
    85  N    7.000023
    86  C    5.999965
    87  C    6.000008
    88  C    5.999976
    89  C    6.000092
    90  C    6.000002
    91  C    6.000012
    92  C    6.000001
    93  H    0.999975
    94  N    6.999990
    95  C    6.000124
    96  C    6.000028
    97  C    6.000048
    98  C    6.000025
    99  C    5.999990
   100  C    6.000044
   101  O    8.000063
   102  C    5.999990
   103  N    6.999970
   104  C    6.000025
   105  C    5.999983
   106  C    6.000027
   107  C    5.999946
   108  C    6.000001
   109  C    6.000003
   110  C    5.999997
   111  N    7.000008
   112  C    5.999870
   113  C    5.999962
   114  C    5.999973
   115  C    5.999986
   116  C    6.000010
   117  C    5.999937
   118  O    7.999922
   119  C    6.000042
   120  C    5.999968
   121  O    7.999961
   122  O    8.000015
   123  C    6.000026
   124  H    1.000027
   125  H    1.000011
   126  H    0.999978
   127  H    0.999977
   128  H    1.000016
   129  H    1.000002
   130  H    0.999977
   131  H    1.000010
   132  H    0.999991
   133  H    1.000030
   134  H    1.000026
   135  H    0.999990
   136  H    1.000016
   137  H    1.000037
   138  H    1.000066
   139  H    1.000000
   140  H    1.000042
   141  H    1.000032
   142  H    1.000024
   143  H    0.999975
   144  H    0.999972
   145  H    1.000007
   146  H    1.000025
   147  H    1.000027
   148  H    1.000003
   149  H    0.999972
   150  H    0.999998
   151  H    1.000026
   152  H    0.999995
   153  H    0.999936
   154  H    0.999955
   155  H    1.000002
   156  H    0.999971
   157  H    0.999999
   158  H    0.999949
 Sum of Mulliken charges = 624.00000

 Dipole moment (field-independent basis, Debye):
    X=             -3.7504    Y=             -3.0378    Z=            -10.2454  Tot=             11.3253
 Quadrupole moment (field-independent basis, Debye-Ang):
   XX=           -176.3651   YY=             -0.9234   ZZ=             -2.5003
   XY=            -74.2711   XZ=           -245.4789   YZ=             -6.2878

 Normal termination of Gaussian 16 at Wed Sep 22 08:02:35 2021.
