 Gaussian 16, Revision A.03,
 Gaussian 16:  ES64L-G16RevA.03 25-Dec-2016

 -----------------------------------
 #p cam-b3lyp/Def2SVP td=(nstates=5)
 -----------------------------------

 --------------------------------
 TDDFT excited states in gaussian
 --------------------------------
 Symbolic Z-matrix:
 Charge =  0 Multiplicity = 1

                         Standard orientation:
 ---------------------------------------------------------------------
 Center     Atomic      Atomic             Coordinates (Angstroms)
 Number     Number       Type             X           Y           Z
 ---------------------------------------------------------------------
      1         12           0       23.834859    0.529114    0.181789
      2          6           0       23.037869   -2.345662   -1.614875
      3          6           0       23.965992   -1.339960    3.066960
      4          6           0       24.325705    3.443895    1.814417
      5          6           0       23.277561    2.414230   -2.802413
      6          7           0       23.424767   -1.557302    0.640254
      7          6           0       23.145729   -2.565253   -0.230147
      8          6           0       23.116251   -3.925483    0.478791
      9          6           0       23.278651   -3.492894    2.002874
     10          6           0       23.595216   -1.998895    1.877829
     11          6           0       22.005612   -3.732487    2.805577
     12          6           0       24.298889   -4.901675    0.141062
     13          6           0       24.031746   -6.379685    0.259567
     14          1           0       22.850014   -6.844933    0.986054
     15          7           0       24.190656    0.959489    2.117635
     16          6           0       24.194925    0.026864    3.174125
     17          6           0       24.653127    0.739816    4.337650
     18          6           0       24.821614    2.111014    4.018726
     19          6           0       24.437711    2.231946    2.590690
     20          6           0       24.691402    0.128077    5.721740
     21          6           0       25.302996    3.243768    4.824718
     22          8           0       25.206232    4.400175    4.472971
     23          6           0       25.832159    3.012044    6.286497
     24          7           0       23.983443    2.684283   -0.418127
     25          6           0       24.163330    3.639838    0.444000
     26          6           0       24.117901    5.039774   -0.239123
     27          6           0       23.863473    4.738731   -1.704936
     28          6           0       23.632109    3.184772   -1.694712
     29          6           0       23.071237    5.993089    0.508474
     30          6           0       25.000389    5.222807   -2.629590
     31          6           0       24.817784    6.625328   -3.321313
     32          7           0       23.546623    0.172998   -1.791006
     33          6           0       23.333901    1.027236   -2.901418
     34          6           0       23.128119    0.285348   -4.086564
     35          6           0       22.923856   -1.065606   -3.573361
     36          6           0       23.234032   -1.027868   -2.183825
     37          6           0       22.772355    0.857301   -5.446684
     38          6           0       22.539522   -2.352671   -4.022747
     39          8           0       22.262338   -2.787781   -5.133385
     40          6           0       22.695420   -3.319501   -2.672971
     41          6           0       21.378612   -4.027532   -2.545401
     42          8           0       20.288989   -3.460064   -2.414428
     43          8           0       21.492650   -5.437755   -2.727407
     44          6           0       20.216112   -6.211956   -2.625793
     45          1           0       23.988274   -1.993954    3.941999
     46          1           0       24.305408    4.340249    2.437209
     47          1           0       23.147460    2.935704   -3.752616
     48          1           0       22.132450   -4.350093    0.277701
     49          1           0       24.067247   -4.041125    2.518131
     50          1           0       21.318581   -4.387058    2.269951
     51          1           0       21.528764   -2.806149    3.127066
     52          1           0       22.154184   -4.347557    3.693140
     53          1           0       25.140019   -4.627224    0.776721
     54          1           0       24.648311   -4.628999   -0.854995
     55          1           0       24.854176   -6.803160    0.835669
     56          1           0       23.982642   -6.812885   -0.739478
     57          1           0       23.967568    0.569806    6.406521
     58          1           0       25.710421    0.217255    6.100556
     59          1           0       24.445681   -0.931861    5.784943
     60          1           0       24.944039    2.953469    6.916246
     61          1           0       26.341629    3.905912    6.646675
     62          1           0       26.376148    2.071077    6.359129
     63          1           0       25.120809    5.428317   -0.061187
     64          1           0       22.894671    5.112579   -2.032644
     65          1           0       22.323345    6.365015   -0.191696
     66          1           0       23.515089    6.912638    0.890464
     67          1           0       22.605583    5.349752    1.256194
     68          1           0       25.092152    4.467819   -3.411200
     69          1           0       25.914666    5.196642   -2.036517
     70          1           0       24.247068    6.468530   -4.237307
     71          1           0       25.698755    7.237713   -3.514550
     72          1           0       24.130869    7.099520   -2.621133
     73          1           0       23.744756    1.103908   -5.872171
     74          1           0       22.177433    1.765119   -5.353750
     75          1           0       22.077901    0.273733   -6.052436
     76          1           0       23.539738   -3.993878   -2.821213
     77          1           0       19.512571   -5.930359   -3.408441
     78          1           0       19.660428   -6.175898   -1.688390
     79          1           0       20.604405   -7.205736   -2.848789
     80         12           0      -24.009883    0.564465    0.158920
     81          6           0      -21.635936   -2.030762    0.474193
     82          6           0      -26.451328   -1.752542   -0.431829
     83          6           0      -25.975720    3.040447   -0.776541
     84          6           0      -21.317054    2.870026    0.296430
     85          7           0      -24.026178   -1.657392    0.155860
     86          6           0      -22.980017   -2.443857    0.314571
     87          6           0      -23.479776   -3.852559    0.579523
     88          6           0      -24.892002   -3.871276   -0.122647
     89          6           0      -25.171808   -2.322520   -0.157870
     90          6           0      -24.838828   -4.633488   -1.501036
     91          6           0      -23.658900   -4.145007    2.091427
     92          6           0      -23.677958   -5.683531    2.499452
     93          1           0      -23.563425   -6.799458    1.457460
     94          7           0      -25.962506    0.652119   -0.301799
     95          6           0      -26.886790   -0.415118   -0.439055
     96          6           0      -28.225009    0.162714   -0.704367
     97          6           0      -28.059044    1.582366   -0.888403
     98          6           0      -26.625114    1.864811   -0.661108
     99          6           0      -29.477346   -0.638919   -0.760489
    100          6           0      -29.071526    2.747072   -1.218950
    101          8           0      -28.763946    3.946408   -1.250789
    102          6           0      -30.459691    2.379174   -1.656426
    103          7           0      -23.667647    2.674742   -0.308274
    104          6           0      -24.645901    3.484222   -0.616360
    105          6           0      -24.258352    4.927600   -0.776301
    106          6           0      -22.726810    4.894568   -0.436309
    107          6           0      -22.548971    3.397545   -0.028324
    108          6           0      -24.701809    5.489669   -2.130159
    109          6           0      -22.303883    5.826867    0.692006
    110          6           0      -20.938900    6.582105    0.508583
    111          7           0      -21.856288    0.527033    0.422150
    112          6           0      -20.909268    1.567107    0.497996
    113          6           0      -19.654299    1.014197    0.876013
    114          6           0      -19.813385   -0.399008    0.713710
    115          6           0      -21.146268   -0.638334    0.494122
    116          6           0      -18.468998    1.790264    1.374233
    117          6           0      -19.239874   -1.760474    0.839953
    118          8           0      -18.103648   -2.108672    1.085328
    119          6           0      -20.377694   -2.810445    0.426778
    120          6           0      -20.199418   -4.098777    1.161294
    121          8           0      -20.235898   -4.257018    2.345902
    122          8           0      -19.871958   -5.147891    0.282100
    123          6           0      -19.015712   -6.223372    0.825820
    124          1           0      -27.232080   -2.412523   -0.816746
    125          1           0      -26.566285    3.944510   -0.935112
    126          1           0      -20.524437    3.612819    0.408775
    127          1           0      -22.657209   -4.471655    0.221623
    128          1           0      -25.642927   -4.359221    0.499651
    129          1           0      -23.826042   -4.981904   -1.700665
    130          1           0      -24.999597   -3.841633   -2.232654
    131          1           0      -25.488066   -5.506751   -1.565523
    132          1           0      -24.628962   -3.708991    2.333589
    133          1           0      -22.872080   -3.603600    2.616563
    134          1           0      -24.609189   -5.804243    3.055022
    135          1           0      -22.875569   -5.783690    3.230775
    136          1           0      -29.458672   -1.677580   -0.432402
    137          1           0      -29.867056   -0.727228   -1.774217
    138          1           0      -30.153296   -0.105604   -0.091617
    139          1           0      -31.162722    2.241254   -0.835085
    140          1           0      -30.231196    1.466682   -2.208478
    141          1           0      -30.772845    3.163167   -2.345366
    142          1           0      -24.820817    5.397732    0.030260
    143          1           0      -22.080564    5.122361   -1.283107
    144          1           0      -24.810793    4.733569   -2.908287
    145          1           0      -23.891747    6.147280   -2.443029
    146          1           0      -25.641590    6.039082   -2.070617
    147          1           0      -22.223663    5.289087    1.636555
    148          1           0      -23.184821    6.445515    0.862593
    149          1           0      -20.397836    6.222043   -0.366297
    150          1           0      -20.367922    6.325901    1.400776
    151          1           0      -20.944200    7.670703    0.444485
    152          1           0      -18.344126    2.599310    0.654383
    153          1           0      -17.539649    1.222063    1.417755
    154          1           0      -18.703670    2.250001    2.334799
    155          1           0      -20.191088   -3.135522   -0.596248
    156          1           0      -19.599240   -7.144140    0.826933
    157          1           0      -18.643800   -5.992283    1.824616
    158          1           0      -18.181469   -6.301980    0.128759
 ---------------------------------------------------------------------

 SCF Done:  E(RCAM-B3LYP) =  -4069.83042657     A.U. after   19 cycles

 Excitation energies and oscillator strengths:

 Excited State   1:      Singlet-A      1.7264 eV  718.15 nm  f=0.3735  <S**2>=0.000
     309 -> 316        0.17541
     311 -> 313        0.68644
     309 <- 316        0.10553
 This state for optimization and/or second-order correction.
 Total Energy, E(TD-HF/TD-DFT) =  -4069.76698076
 Copying the excited state density for this state as the 1-particle RhoCI density.

 Excited State   2:      Singlet-A      1.7949 eV  690.77 nm  f=0.3735  <S**2>=0.000
     310 -> 315        0.18886
     312 -> 314        0.68031
     310 <- 315        0.10305

 Excited State   3:      Singlet-A      2.1693 eV  571.55 nm  f=0.0984  <S**2>=0.000
     310 -> 314        0.64307
     312 -> 315       -0.27289

 Excited State   4:      Singlet-A      2.2226 eV  557.83 nm  f=0.1464  <S**2>=0.000
     309 -> 313        0.65064
     311 -> 316       -0.26124

 Excited State   5:      Singlet-A      3.1405 eV  394.79 nm  f=0.0000  <S**2>=0.000
     312 -> 313        0.70710

 The electronic state is 1-A.
 Alpha  occ. eigenvalues --  -46.88523 -46.87964 -19.24125 -19.23249 -19.20291
 Alpha  occ. eigenvalues --  -19.19560 -19.19426 -19.19250 -19.18349 -19.18197
 Alpha  occ. eigenvalues --  -14.42664 -14.41951 -14.41724 -14.41627 -14.40147
 Alpha  occ. eigenvalues --  -14.39727 -14.39329 -14.37988 -10.39040 -10.38532
 Alpha  occ. eigenvalues --  -10.36782 -10.35450 -10.34796 -10.34315 -10.32198
 Alpha  occ. eigenvalues --  -10.31676 -10.31586 -10.31532 -10.31161 -10.31135
 Alpha  occ. eigenvalues --  -10.30866 -10.30829 -10.30799 -10.30788 -10.30670
 Alpha  occ. eigenvalues --  -10.30619 -10.30594 -10.30079 -10.29717 -10.29677
 Alpha  occ. eigenvalues --  -10.29192 -10.28877 -10.28845 -10.28464 -10.28194
 Alpha  occ. eigenvalues --  -10.28172 -10.28081 -10.28075 -10.28025 -10.27965
 Alpha  occ. eigenvalues --  -10.27912 -10.27876 -10.27840 -10.27825 -10.27748
 Alpha  occ. eigenvalues --  -10.27746 -10.27736 -10.27679 -10.27615 -10.27610
 Alpha  occ. eigenvalues --  -10.27592 -10.27577 -10.27482 -10.27454 -10.27372
 Alpha  occ. eigenvalues --  -10.26884 -10.26858 -10.26788 -10.26682 -10.26345
 Alpha  occ. eigenvalues --  -10.26325 -10.26305 -10.26206 -10.26140 -10.26063
 Alpha  occ. eigenvalues --  -10.25972 -10.25963 -10.25857 -10.25848 -10.25839
 Alpha  occ. eigenvalues --  -10.25828 -10.25784 -10.25601 -10.25431 -10.24510
 Alpha  occ. eigenvalues --  -10.24408  -3.16984  -3.16660  -1.91897  -1.91571
 Alpha  occ. eigenvalues --   -1.91441  -1.91280  -1.91108  -1.90978  -1.15185
 Alpha  occ. eigenvalues --   -1.13421  -1.11105  -1.10469  -1.09525  -1.08603
 Alpha  occ. eigenvalues --   -1.06981  -1.05800  -1.05174  -1.05090  -1.04504
 Alpha  occ. eigenvalues --   -1.03932  -1.03360  -1.02404  -1.01678  -1.00954
 Alpha  occ. eigenvalues --   -0.92083  -0.91800  -0.89275  -0.89267  -0.88958
 Alpha  occ. eigenvalues --   -0.88886  -0.88391  -0.87748  -0.87731  -0.87579
 Alpha  occ. eigenvalues --   -0.87469  -0.87220  -0.86249  -0.85425  -0.84313
 Alpha  occ. eigenvalues --   -0.83967  -0.83672  -0.82971  -0.82852  -0.82186
 Alpha  occ. eigenvalues --   -0.81681  -0.81478  -0.80657  -0.80375  -0.80010
 Alpha  occ. eigenvalues --   -0.79850  -0.78773  -0.78584  -0.77254  -0.77173
 Alpha  occ. eigenvalues --   -0.76847  -0.76362  -0.75845  -0.75383  -0.75134
 Alpha  occ. eigenvalues --   -0.75045  -0.73105  -0.72491  -0.71681  -0.71602
 Alpha  occ. eigenvalues --   -0.69812  -0.69550  -0.68960  -0.68606  -0.67969
 Alpha  occ. eigenvalues --   -0.67274  -0.67237  -0.66615  -0.66028  -0.65771
 Alpha  occ. eigenvalues --   -0.65238  -0.65179  -0.64936  -0.64594  -0.64508
 Alpha  occ. eigenvalues --   -0.63449  -0.61378  -0.61032  -0.60334  -0.60188
 Alpha  occ. eigenvalues --   -0.59625  -0.59303  -0.59087  -0.58586  -0.58516
 Alpha  occ. eigenvalues --   -0.58040  -0.57765  -0.57526  -0.57337  -0.56814
 Alpha  occ. eigenvalues --   -0.56441  -0.56246  -0.55420  -0.55064  -0.54959
 Alpha  occ. eigenvalues --   -0.54612  -0.54250  -0.53989  -0.53665  -0.53379
 Alpha  occ. eigenvalues --   -0.53218  -0.53184  -0.53102  -0.52888  -0.52808
 Alpha  occ. eigenvalues --   -0.52476  -0.52355  -0.52241  -0.52163  -0.52036
 Alpha  occ. eigenvalues --   -0.52004  -0.51716  -0.51578  -0.51348  -0.51184
 Alpha  occ. eigenvalues --   -0.51003  -0.50893  -0.50546  -0.50493  -0.50159
 Alpha  occ. eigenvalues --   -0.50122  -0.50016  -0.49856  -0.49592  -0.49498
 Alpha  occ. eigenvalues --   -0.49272  -0.49265  -0.49067  -0.48923  -0.48637
 Alpha  occ. eigenvalues --   -0.48553  -0.48367  -0.48316  -0.48131  -0.48009
 Alpha  occ. eigenvalues --   -0.47822  -0.47640  -0.47504  -0.47484  -0.47300
 Alpha  occ. eigenvalues --   -0.47201  -0.47126  -0.47005  -0.46917  -0.46693
 Alpha  occ. eigenvalues --   -0.46543  -0.46477  -0.46136  -0.45758  -0.45544
 Alpha  occ. eigenvalues --   -0.45431  -0.45057  -0.45034  -0.45026  -0.44860
 Alpha  occ. eigenvalues --   -0.44673  -0.44521  -0.44240  -0.44237  -0.44076
 Alpha  occ. eigenvalues --   -0.43928  -0.43878  -0.43704  -0.43358  -0.43312
 Alpha  occ. eigenvalues --   -0.43059  -0.43005  -0.42868  -0.42722  -0.42600
 Alpha  occ. eigenvalues --   -0.42585  -0.42461  -0.42240  -0.41997  -0.41983
 Alpha  occ. eigenvalues --   -0.41822  -0.41673  -0.41537  -0.41481  -0.41340
 Alpha  occ. eigenvalues --   -0.41289  -0.41133  -0.40961  -0.40803  -0.40247
 Alpha  occ. eigenvalues --   -0.40121  -0.39985  -0.39849  -0.39415  -0.39043
 Alpha  occ. eigenvalues --   -0.38771  -0.38610  -0.37764  -0.37708  -0.37544
 Alpha  occ. eigenvalues --   -0.37216  -0.36970  -0.36362  -0.36147  -0.35764
 Alpha  occ. eigenvalues --   -0.35739  -0.35387  -0.34359  -0.34156  -0.33836
 Alpha  occ. eigenvalues --   -0.33780  -0.33496  -0.33084  -0.31887  -0.31645
 Alpha  occ. eigenvalues --   -0.31174  -0.31060  -0.30494  -0.30460  -0.29906
 Alpha  occ. eigenvalues --   -0.29760  -0.29468  -0.28284  -0.24173  -0.23711
 Alpha  occ. eigenvalues --   -0.21531  -0.21313
 Alpha virt. eigenvalues --   -0.09042  -0.08473  -0.02009  -0.01639  -0.00109
 Alpha virt. eigenvalues --    0.00227   0.02413   0.02735   0.03023   0.03759
 Alpha virt. eigenvalues --    0.04727   0.04838   0.05225   0.05783   0.06145

 Mulliken charges:
               1
     1  Mg   0.837791
     2  C   -0.064347
     3  C   -0.101912
     4  C   -0.064658
     5  C   -0.069203
     6  N   -0.258968
     7  C   -0.042770
     8  C    0.004752
     9  C   -0.089129
    10  C    0.049858
    11  C    0.062941
    12  C    0.057710
    13  C   -0.049643
    14  H    0.021492
    15  N   -0.445161
    16  C    0.218511
    17  C   -0.136281
    18  C    0.001399
    19  C    0.123248
    20  C    0.099291
    21  C   -0.029034
    22  O   -0.193704
    23  C    0.055179
    24  N   -0.251945
    25  C    0.025441
    26  C   -0.042239
    27  C    0.006476
    28  C    0.003620
    29  C    0.061046
    30  C    0.040848
    31  C    0.012893
    32  N   -0.354130
    33  C    0.120115
    34  C   -0.140586
    35  C   -0.036378
    36  C    0.156033
    37  C    0.107120
    38  C    0.042576
    39  O   -0.174818
    40  C   -0.012625
    41  C    0.224443
    42  O   -0.232294
    43  O   -0.374610
    44  C    0.182336
    45  H   -0.020853
    46  H    0.005679
    47  H   -0.023878
    48  H    0.019861
    49  H    0.013816
    50  H    0.012123
    51  H    0.027954
    52  H    0.000693
    53  H    0.000777
    54  H    0.001715
    55  H    0.026158
    56  H    0.043842
    57  H    0.040784
    58  H    0.027819
    59  H    0.006510
    60  H    0.030800
    61  H    0.029443
    62  H    0.018257
    63  H    0.021879
    64  H    0.001266
    65  H    0.008346
    66  H    0.023151
    67  H    0.031289
    68  H    0.001433
    69  H    0.002339
    70  H    0.015186
    71  H    0.031720
    72  H    0.007763
    73  H    0.030990
    74  H    0.017762
    75  H    0.040075
    76  H    0.041905
    77  H    0.040498
    78  H    0.036972
    79  H    0.035243
    80  Mg   0.811761
    81  C    0.065933
    82  C   -0.080744
    83  C   -0.049832
    84  C   -0.080328
    85  N   -0.243708
    86  C   -0.044106
    87  C   -0.078548
    88  C   -0.052587
    89  C    0.070656
    90  C    0.081536
    91  C    0.031121
    92  C   -0.039733
    93  H    0.027240
    94  N   -0.472456
    95  C    0.156183
    96  C   -0.129859
    97  C   -0.044031
    98  C    0.185466
    99  C    0.083035
   100  C    0.032485
   101  O   -0.206818
   102  C    0.049069
   103  N   -0.232701
   104  C   -0.065516
   105  C    0.007718
   106  C   -0.051200
   107  C    0.034426
   108  C    0.080383
   109  C    0.038149
   110  C   -0.000208
   111  N   -0.356291
   112  C    0.124443
   113  C   -0.178826
   114  C    0.006974
   115  C    0.040653
   116  C    0.124955
   117  C    0.058955
   118  O   -0.165391
   119  C   -0.025046
   120  C    0.157009
   121  O   -0.178247
   122  O   -0.379219
   123  C    0.174382
   124  H   -0.025473
   125  H   -0.012912
   126  H   -0.046848
   127  H    0.010056
   128  H    0.009986
   129  H    0.016374
   130  H    0.011426
   131  H    0.026188
   132  H    0.000535
   133  H    0.030962
   134  H    0.019258
   135  H    0.041692
   136  H    0.019239
   137  H    0.042654
   138  H    0.038246
   139  H    0.056909
   140  H    0.022343
   141  H    0.039033
   142  H    0.015451
   143  H    0.015298
   144  H    0.024432
   145  H    0.009858
   146  H    0.034401
   147  H    0.006784
   148  H   -0.002349
   149  H    0.016815
   150  H    0.017331
   151  H    0.022482
   152  H    0.015624
   153  H    0.033884
   154  H    0.028224
   155  H    0.049821
   156  H    0.034566
   157  H    0.052958
   158  H    0.037615
 Sum of Mulliken charges =  -0.00000

 Dipole moment (field-independent basis, Debye):
    X=             -3.3709    Y=              0.4960    Z=              3.4133  Tot=              4.8228
 Quadrupole moment (field-independent basis, Debye-Ang):
   XX=           -167.7624   YY=           -477.9473   ZZ=           -519.9683
   XY=            -13.3115   XZ=            150.9812   YZ=            -25.5066

 Normal termination of Gaussian 16 at Thu Sep 16 05:39:45 2021.
