 Gaussian 16, Revision A.03,
 Gaussian 16:  ES64L-G16RevA.03 25-Dec-2016

 -----------------------------------
 #p cam-b3lyp/Def2SVP td=(nstates=5)
 -----------------------------------

 --------------------------------
 TDDFT excited states in gaussian
 --------------------------------
 Symbolic Z-matrix:
 Charge =  0 Multiplicity = 1

                         Standard orientation:
 ---------------------------------------------------------------------
 Center     Atomic      Atomic             Coordinates (Angstroms)
 Number     Number       Type             X           Y           Z
 ---------------------------------------------------------------------
      1         12           0       30.067676    0.412445    0.379560
      2          6           0       29.436797   -2.375540   -1.457456
      3          6           0       29.104394    2.557872   -2.144782
      4          6           0       30.963892    3.068379    2.345821
      5          6           0       31.513688   -1.709883    2.928219
      6          7           0       29.558054    0.105707   -1.627787
      7          6           0       29.097714   -1.160019   -2.123682
      8          6           0       28.332901   -0.990276   -3.375076
      9          6           0       28.631331    0.537599   -3.719666
     10          6           0       29.139230    1.153557   -2.435055
     11          6           0       29.705118    0.721745   -4.905104
     12          6           0       26.848625   -1.463922   -3.303223
     13          6           0       26.380261   -2.273634   -4.469186
     14          1           0       26.888210   -1.804935   -5.889465
     15          7           0       29.969617    2.527762    0.159586
     16          6           0       29.550237    3.151553   -0.977678
     17          6           0       29.611227    4.553620   -0.743746
     18          6           0       30.073458    4.772226    0.612636
     19          6           0       30.306946    3.400084    1.175283
     20          6           0       29.313468    5.586088   -1.852964
     21          6           0       30.279573    6.003893    1.437778
     22          8           0       30.781613    6.099854    2.563304
     23          6           0       29.737183    7.336953    0.796538
     24          7           0       31.215000    0.672779    2.361537
     25          6           0       31.337122    1.834265    2.954451
     26          6           0       31.787237    1.702127    4.407921
     27          6           0       31.957378    0.164998    4.574296
     28          6           0       31.553380   -0.342384    3.191415
     29          6           0       33.139175    2.514978    4.743201
     30          6           0       30.974357   -0.337591    5.721594
     31          6           0       29.437744   -0.290141    5.534291
     32          7           0       30.563430   -1.618478    0.626101
     33          6           0       31.079951   -2.299781    1.712033
     34          6           0       30.956902   -3.737697    1.397320
     35          6           0       30.322533   -3.878481    0.199699
     36          6           0       30.103459   -2.521143   -0.235378
     37          6           0       31.584959   -4.824530    2.199893
     38          6           0       29.803681   -4.804758   -0.806437
     39          8           0       29.806790   -6.023422   -0.854195
     40          6           0       29.218933   -3.830484   -1.920984
     41          6           0       29.996533   -4.064910   -3.154695
     42          8           0       31.227889   -3.989159   -3.309599
     43          8           0       29.041824   -4.398141   -4.094024
     44          6           0       29.551432   -4.501115   -5.467684
     45          1           0       28.759244    3.268851   -2.898133
     46          1           0       31.115783    3.956360    2.964031
     47          1           0       31.874106   -2.370012    3.719124
     48          1           0       28.833345   -1.647968   -4.086909
     49          1           0       27.687681    1.008152   -3.994037
     50          1           0       29.889130   -0.189937   -5.473502
     51          1           0       30.662539    0.902288   -4.416582
     52          1           0       29.334714    1.591278   -5.446484
     53          1           0       26.190455   -0.598079   -3.230351
     54          1           0       26.838888   -2.077332   -2.402372
     55          1           0       25.299697   -2.242644   -4.603256
     56          1           0       26.524079   -3.353449   -4.509268
     57          1           0       28.260397    5.740508   -2.087826
     58          1           0       29.901618    5.203987   -2.687173
     59          1           0       29.587976    6.602769   -1.572523
     60          1           0       30.399469    7.631881   -0.017438
     61          1           0       29.535186    8.039765    1.604634
     62          1           0       28.725066    7.250829    0.400657
     63          1           0       30.977737    2.044638    5.052072
     64          1           0       32.968007   -0.135315    4.851111
     65          1           0       32.827472    3.381090    5.328076
     66          1           0       33.607067    2.862153    3.821412
     67          1           0       33.916151    2.046068    5.345618
     68          1           0       31.150032    0.100468    6.703979
     69          1           0       31.218088   -1.400159    5.748152
     70          1           0       29.167813   -1.346228    5.544793
     71          1           0       29.140632    0.226762    4.622663
     72          1           0       28.910598    0.227624    6.335593
     73          1           0       30.884857   -5.649110    2.069206
     74          1           0       31.713978   -4.557387    3.248910
     75          1           0       32.448339   -5.180890    1.639558
     76          1           0       28.227214   -4.268483   -2.030764
     77          1           0       28.680582   -4.878457   -6.004502
     78          1           0       30.305459   -5.287942   -5.446380
     79          1           0       30.042107   -3.610054   -5.859826
     80         12           0      -30.423138   -0.688593   -0.351582
     81          6           0      -28.431004    2.126310   -1.083903
     82          6           0      -27.634050   -2.171591    0.924690
     83          6           0      -32.461893   -3.058749    1.029464
     84          6           0      -33.218508    1.321024   -1.272101
     85          7           0      -28.267269   -0.014719    0.022508
     86          6           0      -27.617209    1.078760   -0.473653
     87          6           0      -26.149631    1.141876   -0.016366
     88          6           0      -25.959781   -0.429487    0.261658
     89          6           0      -27.380830   -0.912856    0.411882
     90          6           0      -25.206595   -1.222431   -0.839923
     91          6           0      -25.902810    1.997243    1.306813
     92          6           0      -24.522686    2.585965    1.555348
     93          1           0      -23.600048    2.071832    2.680928
     94          7           0      -30.156103   -2.469345    0.823666
     95          6           0      -28.905492   -2.939745    1.101007
     96          6           0      -28.959745   -4.231295    1.627763
     97          6           0      -30.366912   -4.561625    1.658456
     98          6           0      -31.097913   -3.349165    1.193129
     99          6           0      -27.749406   -5.064945    2.030894
    100          6           0      -30.876639   -5.905889    2.126646
    101          8           0      -30.057371   -6.785088    2.498833
    102          6           0      -32.386726   -6.330003    2.076764
    103          7           0      -32.494819   -0.791468   -0.186898
    104          6           0      -33.116867   -1.920652    0.411275
    105          6           0      -34.584335   -1.930459    0.084564
    106          6           0      -34.898660   -0.471503   -0.311551
    107          6           0      -33.485203    0.056266   -0.694238
    108          6           0      -35.113744   -2.835561   -1.050735
    109          6           0      -35.494822    0.386992    0.924436
    110          6           0      -36.986276    0.305553    1.212841
    111          7           0      -30.720311    1.261560   -1.213644
    112          6           0      -31.895257    1.924337   -1.535280
    113          6           0      -31.651421    3.210425   -1.979003
    114          6           0      -30.256109    3.343909   -1.876539
    115          6           0      -29.744478    2.132707   -1.381059
    116          6           0      -32.695810    4.176445   -2.442198
    117          6           0      -29.202916    4.165929   -2.165490
    118          8           0      -29.176114    5.226040   -2.758990
    119          6           0      -28.015465    3.512783   -1.427398
    120          6           0      -27.750585    4.409456   -0.254965
    121          8           0      -28.559345    4.674843    0.579032
    122          8           0      -26.460646    4.937447   -0.333217
    123          6           0      -26.219764    5.922982    0.662609
    124          1           0      -26.743891   -2.762472    1.151431
    125          1           0      -33.149619   -3.873606    1.266964
    126          1           0      -34.106784    1.819833   -1.664736
    127          1           0      -25.467849    1.373553   -0.833975
    128          1           0      -25.350473   -0.509048    1.161516
    129          1           0      -24.194730   -1.278147   -0.437536
    130          1           0      -25.170490   -0.683172   -1.786418
    131          1           0      -25.602643   -2.232113   -0.949733
    132          1           0      -26.076164    1.385254    2.192029
    133          1           0      -26.683425    2.757948    1.330093
    134          1           0      -24.718074    3.646264    1.722069
    135          1           0      -23.970922    2.515763    0.618080
    136          1           0      -27.757399   -6.143209    1.868081
    137          1           0      -27.695905   -4.756674    3.074764
    138          1           0      -26.885904   -4.780028    1.429785
    139          1           0      -32.726789   -6.337240    1.041547
    140          1           0      -32.858835   -5.571540    2.700915
    141          1           0      -32.643211   -7.256469    2.590379
    142          1           0      -35.102703   -2.143324    1.018926
    143          1           0      -35.596794   -0.410464   -1.146487
    144          1           0      -35.494380   -2.307721   -1.924974
    145          1           0      -35.617050   -3.717176   -0.653279
    146          1           0      -34.212212   -3.298886   -1.451255
    147          1           0      -35.207455    1.389298    0.607424
    148          1           0      -34.979827    0.138680    1.852648
    149          1           0      -37.133337    0.054470    2.262937
    150          1           0      -37.430186   -0.471986    0.590547
    151          1           0      -37.474018    1.268460    1.058923
    152          1           0      -32.498010    5.106686   -1.910420
    153          1           0      -33.703931    3.876854   -2.153120
    154          1           0      -32.643420    4.377147   -3.512419
    155          1           0      -27.161152    3.508267   -2.103448
    156          1           0      -26.453284    6.909859    0.263991
    157          1           0      -25.163775    6.045302    0.906483
    158          1           0      -26.811460    5.758999    1.561606
 ---------------------------------------------------------------------

 SCF Done:  E(RCAM-B3LYP) =  -4069.78082946     A.U. after   19 cycles

 Excitation energies and oscillator strengths:

 Excited State   1:      Singlet-A      1.6991 eV  729.71 nm  f=0.3659  <S**2>=0.000
     309 -> 316       -0.18623
     312 -> 314        0.68394
     309 <- 316       -0.10902
 This state for optimization and/or second-order correction.
 Total Energy, E(TD-HF/TD-DFT) =  -4069.71838933
 Copying the excited state density for this state as the 1-particle RhoCI density.

 Excited State   2:      Singlet-A      1.7067 eV  726.48 nm  f=0.4180  <S**2>=0.000
     310 -> 315       -0.18531
     311 -> 313        0.68226
     310 <- 315       -0.10817

 Excited State   3:      Singlet-A      2.1433 eV  578.46 nm  f=0.1303  <S**2>=0.000
     310 -> 313        0.65034
     311 -> 315        0.26013

 Excited State   4:      Singlet-A      2.2666 eV  547.01 nm  f=0.0453  <S**2>=0.000
     309 -> 314        0.60928
     312 -> 316        0.34928

 Excited State   5:      Singlet-A      2.9366 eV  422.20 nm  f=0.0000  <S**2>=0.000
     312 -> 313        0.70711

 The electronic state is 1-A.
 Alpha  occ. eigenvalues --  -46.90340 -46.89273 -19.25674 -19.25421 -19.20951
 Alpha  occ. eigenvalues --  -19.20278 -19.19576 -19.19521 -19.18122 -19.17911
 Alpha  occ. eigenvalues --  -14.43204 -14.42697 -14.42315 -14.42215 -14.39848
 Alpha  occ. eigenvalues --  -14.39525 -14.39505 -14.39233 -10.39727 -10.39542
 Alpha  occ. eigenvalues --  -10.35728 -10.35430 -10.35051 -10.33383 -10.32428
 Alpha  occ. eigenvalues --  -10.32354 -10.32004 -10.31854 -10.31796 -10.31662
 Alpha  occ. eigenvalues --  -10.31016 -10.30967 -10.30892 -10.30743 -10.30358
 Alpha  occ. eigenvalues --  -10.30254 -10.30199 -10.29974 -10.29917 -10.29612
 Alpha  occ. eigenvalues --  -10.29262 -10.29258 -10.29126 -10.29107 -10.28840
 Alpha  occ. eigenvalues --  -10.28356 -10.28355 -10.28351 -10.28330 -10.28237
 Alpha  occ. eigenvalues --  -10.28152 -10.28088 -10.28080 -10.27985 -10.27910
 Alpha  occ. eigenvalues --  -10.27890 -10.27866 -10.27862 -10.27779 -10.27694
 Alpha  occ. eigenvalues --  -10.27607 -10.27580 -10.27576 -10.27516 -10.27478
 Alpha  occ. eigenvalues --  -10.27438 -10.27437 -10.27400 -10.27373 -10.27366
 Alpha  occ. eigenvalues --  -10.26618 -10.26610 -10.26517 -10.26513 -10.26506
 Alpha  occ. eigenvalues --  -10.26393 -10.26250 -10.26109 -10.25870 -10.25870
 Alpha  occ. eigenvalues --  -10.25864 -10.25685 -10.25592 -10.25513 -10.24753
 Alpha  occ. eigenvalues --  -10.24193  -3.18632  -3.17677  -1.93530  -1.93080
 Alpha  occ. eigenvalues --   -1.92929  -1.92580  -1.92122  -1.91978  -1.17668
 Alpha  occ. eigenvalues --   -1.15985  -1.10220  -1.10075  -1.09628  -1.09536
 Alpha  occ. eigenvalues --   -1.07494  -1.07347  -1.05784  -1.05150  -1.04678
 Alpha  occ. eigenvalues --   -1.03950  -1.03800  -1.02916  -1.01943  -1.01736
 Alpha  occ. eigenvalues --   -0.94370  -0.92400  -0.89123  -0.88995  -0.88817
 Alpha  occ. eigenvalues --   -0.88752  -0.88709  -0.88029  -0.87594  -0.87301
 Alpha  occ. eigenvalues --   -0.87130  -0.86932  -0.86272  -0.85939  -0.84672
 Alpha  occ. eigenvalues --   -0.84415  -0.83665  -0.83397  -0.82945  -0.82441
 Alpha  occ. eigenvalues --   -0.81919  -0.81561  -0.81231  -0.80722  -0.80380
 Alpha  occ. eigenvalues --   -0.79989  -0.78108  -0.78102  -0.77419  -0.77381
 Alpha  occ. eigenvalues --   -0.77225  -0.76980  -0.75997  -0.75827  -0.75722
 Alpha  occ. eigenvalues --   -0.74999  -0.73642  -0.72490  -0.72286  -0.72201
 Alpha  occ. eigenvalues --   -0.69891  -0.69518  -0.69286  -0.68507  -0.68466
 Alpha  occ. eigenvalues --   -0.68374  -0.67456  -0.67196  -0.66343  -0.65397
 Alpha  occ. eigenvalues --   -0.65258  -0.65024  -0.64780  -0.64728  -0.64415
 Alpha  occ. eigenvalues --   -0.64251  -0.62845  -0.62560  -0.60557  -0.60324
 Alpha  occ. eigenvalues --   -0.60185  -0.59645  -0.59443  -0.59218  -0.59056
 Alpha  occ. eigenvalues --   -0.58940  -0.58801  -0.58093  -0.57997  -0.57507
 Alpha  occ. eigenvalues --   -0.56535  -0.55948  -0.55815  -0.55561  -0.55343
 Alpha  occ. eigenvalues --   -0.55113  -0.55089  -0.54902  -0.54444  -0.53878
 Alpha  occ. eigenvalues --   -0.53584  -0.53564  -0.53228  -0.53215  -0.53176
 Alpha  occ. eigenvalues --   -0.52826  -0.52636  -0.52418  -0.52309  -0.52309
 Alpha  occ. eigenvalues --   -0.52152  -0.51966  -0.51862  -0.51526  -0.51475
 Alpha  occ. eigenvalues --   -0.51251  -0.51078  -0.50913  -0.50850  -0.50639
 Alpha  occ. eigenvalues --   -0.50182  -0.49879  -0.49862  -0.49776  -0.49676
 Alpha  occ. eigenvalues --   -0.49383  -0.49358  -0.49029  -0.48941  -0.48845
 Alpha  occ. eigenvalues --   -0.48607  -0.48542  -0.48497  -0.48467  -0.48143
 Alpha  occ. eigenvalues --   -0.47972  -0.47720  -0.47406  -0.47377  -0.47262
 Alpha  occ. eigenvalues --   -0.47258  -0.47037  -0.46868  -0.46768  -0.46631
 Alpha  occ. eigenvalues --   -0.46429  -0.46377  -0.46162  -0.46053  -0.45898
 Alpha  occ. eigenvalues --   -0.45815  -0.45639  -0.45315  -0.45210  -0.45108
 Alpha  occ. eigenvalues --   -0.44795  -0.44748  -0.44625  -0.44556  -0.43932
 Alpha  occ. eigenvalues --   -0.43880  -0.43798  -0.43485  -0.43364  -0.43284
 Alpha  occ. eigenvalues --   -0.43241  -0.43010  -0.42972  -0.42931  -0.42792
 Alpha  occ. eigenvalues --   -0.42619  -0.42531  -0.42330  -0.42215  -0.42160
 Alpha  occ. eigenvalues --   -0.42127  -0.41959  -0.41711  -0.41578  -0.41559
 Alpha  occ. eigenvalues --   -0.41353  -0.41218  -0.41046  -0.40765  -0.40562
 Alpha  occ. eigenvalues --   -0.40534  -0.40334  -0.39814  -0.39539  -0.39429
 Alpha  occ. eigenvalues --   -0.38518  -0.37893  -0.37835  -0.37674  -0.37516
 Alpha  occ. eigenvalues --   -0.37167  -0.37166  -0.36985  -0.36745  -0.36611
 Alpha  occ. eigenvalues --   -0.36417  -0.36282  -0.35528  -0.35082  -0.34689
 Alpha  occ. eigenvalues --   -0.34231  -0.33501  -0.33438  -0.31472  -0.31242
 Alpha  occ. eigenvalues --   -0.31133  -0.31005  -0.30474  -0.30400  -0.30058
 Alpha  occ. eigenvalues --   -0.29951  -0.29903  -0.29544  -0.24432  -0.24349
 Alpha  occ. eigenvalues --   -0.22063  -0.20977
 Alpha virt. eigenvalues --   -0.09617  -0.08507  -0.02506  -0.02377  -0.00263
 Alpha virt. eigenvalues --   -0.00105   0.01396   0.01929   0.02151   0.02572
 Alpha virt. eigenvalues --    0.04272   0.04712   0.04918   0.05126   0.05419

 Mulliken charges:
               1
     1  Mg   0.798360
     2  C    0.018721
     3  C   -0.098316
     4  C   -0.026576
     5  C   -0.072685
     6  N   -0.371552
     7  C   -0.042123
     8  C   -0.004782
     9  C   -0.083334
    10  C    0.109740
    11  C    0.079489
    12  C    0.115794
    13  C   -0.087218
    14  H   -0.012872
    15  N   -0.377575
    16  C    0.154386
    17  C   -0.133052
    18  C   -0.038233
    19  C    0.104454
    20  C    0.104471
    21  C    0.019112
    22  O   -0.205631
    23  C    0.005660
    24  N   -0.192986
    25  C   -0.005883
    26  C   -0.021524
    27  C    0.004538
    28  C    0.005381
    29  C    0.043643
    30  C   -0.019993
    31  C   -0.000262
    32  N   -0.317240
    33  C    0.124304
    34  C   -0.222840
    35  C    0.035495
    36  C    0.083063
    37  C    0.127720
    38  C    0.060054
    39  O   -0.156783
    40  C   -0.043860
    41  C    0.209639
    42  O   -0.230294
    43  O   -0.341664
    44  C    0.182862
    45  H   -0.025409
    46  H   -0.002700
    47  H   -0.021283
    48  H    0.011626
    49  H    0.000551
    50  H    0.022068
    51  H    0.023901
    52  H    0.028384
    53  H    0.014414
    54  H    0.017221
    55  H    0.020352
    56  H    0.040254
    57  H    0.031535
    58  H    0.040609
    59  H   -0.006178
    60  H    0.059096
    61  H    0.025850
    62  H    0.020790
    63  H    0.023726
    64  H    0.011276
    65  H    0.021393
    66  H    0.027448
    67  H    0.019036
    68  H    0.016330
    69  H   -0.003148
    70  H    0.022475
    71  H    0.020501
    72  H    0.015719
    73  H    0.023479
    74  H    0.018836
    75  H    0.042594
    76  H    0.039242
    77  H    0.040908
    78  H    0.037738
    79  H    0.041757
    80  Mg   0.815266
    81  C    0.014450
    82  C   -0.065264
    83  C   -0.076228
    84  C   -0.071959
    85  N   -0.233129
    86  C   -0.080888
    87  C    0.006784
    88  C   -0.104048
    89  C    0.065298
    90  C    0.076822
    91  C    0.039650
    92  C   -0.043148
    93  H    0.028180
    94  N   -0.343528
    95  C    0.106409
    96  C   -0.141782
    97  C   -0.040943
    98  C    0.143929
    99  C    0.134046
   100  C   -0.011074
   101  O   -0.242989
   102  C    0.048395
   103  N   -0.357493
   104  C    0.064217
   105  C   -0.039294
   106  C   -0.064034
   107  C    0.055453
   108  C    0.104240
   109  C    0.008803
   110  C    0.034454
   111  N   -0.298983
   112  C    0.103982
   113  C   -0.159969
   114  C    0.083464
   115  C    0.089600
   116  C    0.137602
   117  C   -0.048545
   118  O   -0.168375
   119  C   -0.001936
   120  C    0.189497
   121  O   -0.180551
   122  O   -0.329026
   123  C    0.162241
   124  H   -0.027413
   125  H   -0.039850
   126  H   -0.015035
   127  H    0.002577
   128  H    0.015777
   129  H    0.016341
   130  H    0.021274
   131  H    0.022333
   132  H    0.019976
   133  H    0.022649
   134  H    0.026590
   135  H    0.021089
   136  H    0.045650
   137  H    0.041293
   138  H    0.008721
   139  H    0.046350
   140  H    0.030954
   141  H    0.024847
   142  H    0.004667
   143  H    0.002862
   144  H    0.027600
   145  H    0.021423
   146  H   -0.005824
   147  H    0.000844
   148  H    0.012713
   149  H    0.013764
   150  H    0.012288
   151  H    0.020666
   152  H    0.032761
   153  H    0.002704
   154  H    0.040536
   155  H    0.015278
   156  H    0.028749
   157  H    0.030543
   158  H    0.044708
 Sum of Mulliken charges =  -0.00000

 Dipole moment (field-independent basis, Debye):
    X=             -4.4509    Y=              1.7079    Z=             -1.5854  Tot=              5.0240
 Quadrupole moment (field-independent basis, Debye-Ang):
   XX=           -600.0697   YY=           -583.0510   ZZ=           -494.4933
   XY=            124.3638   XZ=              2.1676   YZ=              6.3661

 Normal termination of Gaussian 16 at Tue Sep 14 16:20:11 2021.
