 Gaussian 16, Revision A.03,
 Gaussian 16:  ES64L-G16RevA.03 25-Dec-2016

 ----------------------------------------------------------
 #p cam-b3lyp/Def2SVP td=(nstates=5) density=(transition=1)
 ----------------------------------------------------------

 --------------------------------
 TDDFT excited states in gaussian
 --------------------------------
 Symbolic Z-matrix:
 Charge =  0 Multiplicity = 1

                         Standard orientation:
 ---------------------------------------------------------------------
 Center     Atomic      Atomic             Coordinates (Angstroms)
 Number     Number       Type             X           Y           Z
 ---------------------------------------------------------------------
      1         12           0       25.007640   -0.200036   -0.694765
      2          6           0       23.927590    1.283133    2.330074
      3          6           0       25.234065   -3.228538    0.944924
      4          6           0       26.316633   -1.531153   -3.522536
      5          6           0       24.966268    2.936520   -2.259920
      6          7           0       24.700852   -0.766896    1.423386
      7          6           0       24.052363   -0.064263    2.436209
      8          6           0       23.804100   -0.977292    3.705917
      9          6           0       24.491850   -2.302754    3.283231
     10          6           0       24.894064   -2.102248    1.804914
     11          6           0       25.720723   -2.804315    4.130250
     12          6           0       22.318004   -1.052982    4.247666
     13          6           0       22.129040   -0.589503    5.660410
     14          1           0       21.068407   -1.388246    6.516889
     15          7           0       25.661474   -2.079323   -1.152777
     16          6           0       25.623813   -3.229144   -0.390386
     17          6           0       26.195061   -4.331146   -1.148651
     18          6           0       26.525707   -3.890543   -2.461411
     19          6           0       26.147292   -2.429654   -2.443582
     20          6           0       26.253782   -5.786994   -0.643948
     21          6           0       27.083415   -4.668833   -3.648730
     22          8           0       27.242915   -4.193166   -4.754024
     23          6           0       27.422203   -6.215565   -3.619969
     24          7           0       25.656791    0.628308   -2.609440
     25          6           0       26.149747   -0.122694   -3.585592
     26          6           0       26.460601    0.717202   -4.875575
     27          6           0       25.836916    2.124992   -4.521490
     28          6           0       25.426866    1.899312   -3.034812
     29          6           0       27.968561    0.665088   -5.256086
     30          6           0       24.719583    2.510798   -5.470517
     31          6           0       24.744355    3.976816   -5.899356
     32          7           0       24.690833    1.783704   -0.143652
     33          6           0       24.609282    2.942212   -0.892226
     34          6           0       24.345406    4.016990    0.014267
     35          6           0       24.025621    3.446558    1.271275
     36          6           0       24.254052    2.047301    1.151803
     37          6           0       24.313485    5.458102   -0.328604
     38          6           0       23.514971    3.737950    2.622210
     39          8           0       23.295194    4.786002    3.222362
     40          6           0       23.403317    2.198667    3.369069
     41          6           0       24.181917    2.188147    4.568054
     42          8           0       25.258326    1.644078    4.686808
     43          8           0       23.486364    2.762735    5.607777
     44          6           0       24.278763    2.825167    6.861135
     45          1           0       25.202714   -4.226445    1.387678
     46          1           0       26.779471   -1.895150   -4.441612
     47          1           0       24.897301    3.855551   -2.846762
     48          1           0       24.494431   -0.584961    4.451880
     49          1           0       23.778749   -3.127069    3.296792
     50          1           0       25.613207   -3.885551    4.222136
     51          1           0       25.698767   -2.304127    5.098149
     52          1           0       26.691661   -2.600661    3.678258
     53          1           0       22.005839   -2.088536    4.111741
     54          1           0       21.722599   -0.389511    3.620219
     55          1           0       21.795446    0.449018    5.664584
     56          1           0       23.129647   -0.662444    6.085579
     57          1           0       25.564177   -6.334254   -1.285659
     58          1           0       25.797563   -5.837317    0.344989
     59          1           0       27.229077   -6.271888   -0.701581
     60          1           0       26.518440   -6.750452   -3.326078
     61          1           0       28.363204   -6.433196   -3.113875
     62          1           0       27.769282   -6.433737   -4.629494
     63          1           0       25.917449    0.376919   -5.756990
     64          1           0       26.671007    2.826973   -4.523740
     65          1           0       28.320178    1.686968   -5.401125
     66          1           0       28.177767    0.019045   -6.109081
     67          1           0       28.537554    0.233637   -4.434188
     68          1           0       23.735580    2.286626   -5.060014
     69          1           0       24.685703    1.918875   -6.386483
     70          1           0       25.461734    4.551609   -5.313535
     71          1           0       23.748714    4.370313   -5.692598
     72          1           0       24.873496    4.094427   -6.975386
     73          1           0       24.528378    5.732858   -1.361239
     74          1           0       24.855324    5.969237    0.468081
     75          1           0       23.245011    5.674134   -0.347792
     76          1           0       22.358688    1.996583    3.607451
     77          1           0       25.183209    3.411600    6.697845
     78          1           0       24.442558    1.791093    7.164275
     79          1           0       23.755540    3.334917    7.669203
     80         12           0      -25.414367    0.401298    0.291148
     81          6           0      -23.282171   -2.248066    0.241985
     82          6           0      -22.610762    2.551259    0.452251
     83          6           0      -27.386684    2.895297   -0.730675
     84          6           0      -28.164975   -1.828533   -0.419225
     85          7           0      -23.257108    0.132144    0.364354
     86          6           0      -22.571744   -0.962208    0.327055
     87          6           0      -21.052909   -0.756073    0.667321
     88          6           0      -20.928242    0.775250    1.019003
     89          6           0      -22.372994    1.241932    0.628926
     90          6           0      -20.371772    1.112093    2.403096
     91          6           0      -20.069854   -1.293405   -0.533423
     92          6           0      -20.630196   -1.400015   -1.942470
     93          1           0      -19.693623   -1.458978   -3.149210
     94          7           0      -25.032487    2.439782   -0.092337
     95          6           0      -23.866881    3.144183    0.090889
     96          6           0      -24.058179    4.477058   -0.286256
     97          6           0      -25.442562    4.626981   -0.684323
     98          6           0      -26.029310    3.267377   -0.552220
     99          6           0      -22.970324    5.512325   -0.066704
    100          6           0      -26.069539    5.953464   -1.150330
    101          8           0      -25.332663    6.964370   -1.188839
    102          6           0      -27.434194    6.139050   -1.551228
    103          7           0      -27.506691    0.503358   -0.644359
    104          6           0      -28.054007    1.680725   -0.751602
    105          6           0      -29.580416    1.617844   -1.042970
    106          6           0      -29.851589    0.104947   -0.892686
    107          6           0      -28.428871   -0.525954   -0.607933
    108          6           0      -30.420251    2.417568   -0.113548
    109          6           0      -30.591589   -0.523420   -2.165878
    110          6           0      -32.087841   -0.992736   -1.942093
    111          7           0      -25.767938   -1.618500    0.078660
    112          6           0      -26.899913   -2.405953   -0.166181
    113          6           0      -26.494372   -3.845778   -0.137626
    114          6           0      -25.098049   -3.787240   -0.024675
    115          6           0      -24.687721   -2.424345    0.070400
    116          6           0      -27.316743   -5.033456   -0.268947
    117          6           0      -23.987878   -4.624953   -0.020437
    118          8           0      -23.840665   -5.854994   -0.069067
    119          6           0      -22.772916   -3.691162    0.244872
    120          6           0      -22.052006   -4.190356    1.519617
    121          8           0      -20.872602   -4.473882    1.642773
    122          8           0      -22.908217   -4.295086    2.594435
    123          6           0      -22.355124   -4.796431    3.858156
    124          1           0      -21.684579    3.129463    0.454399
    125          1           0      -28.115665    3.687574   -0.912139
    126          1           0      -29.028741   -2.495013   -0.463366
    127          1           0      -20.887069   -1.254513    1.622761
    128          1           0      -20.301428    1.311048    0.305497
    129          1           0      -21.144612    1.594839    3.000922
    130          1           0      -19.532595    1.806819    2.352313
    131          1           0      -19.952045    0.274924    2.960912
    132          1           0      -19.730452   -2.242246   -0.117291
    133          1           0      -19.201776   -0.666751   -0.739113
    134          1           0      -21.262992   -0.516200   -2.019034
    135          1           0      -21.298670   -2.260787   -1.917195
    136          1           0      -23.177869    6.399182    0.532618
    137          1           0      -22.562375    5.797481   -1.036711
    138          1           0      -22.127131    5.036382    0.433529
    139          1           0      -28.212613    5.943925   -0.813816
    140          1           0      -27.709308    5.405686   -2.308579
    141          1           0      -27.620040    7.093277   -2.043205
    142          1           0      -29.942537    1.965975   -2.010236
    143          1           0      -30.399352   -0.146065    0.015715
    144          1           0      -30.811591    3.346338   -0.528394
    145          1           0      -29.814976    2.825223    0.696910
    146          1           0      -31.249500    1.815030    0.256761
    147          1           0      -30.070182   -1.442579   -2.436480
    148          1           0      -30.697998    0.159540   -3.007611
    149          1           0      -32.708775   -0.636832   -2.763251
    150          1           0      -32.473962   -0.469378   -1.067294
    151          1           0      -32.047123   -2.081314   -1.984316
    152          1           0      -28.276087   -4.744637    0.161041
    153          1           0      -26.894860   -5.858947    0.305481
    154          1           0      -27.288588   -5.307350   -1.323184
    155          1           0      -21.938720   -3.868560   -0.433521
    156          1           0      -23.170247   -5.223709    4.442510
    157          1           0      -21.900895   -4.079388    4.541795
    158          1           0      -21.538529   -5.507577    3.730061
 ---------------------------------------------------------------------

 SCF Done:  E(RCAM-B3LYP) =  -4069.77966316     A.U. after   19 cycles

 Excitation energies and oscillator strengths:

 Excited State   1:      Singlet-A      1.7059 eV  726.79 nm  f=0.4304  <S**2>=0.000
     309 -> 315        0.16085
     311 -> 313        0.68877
     309 <- 315        0.10272
 This state for optimization and/or second-order correction.
 Total Energy, E(TD-HF/TD-DFT) =  -4069.71697218
 Copying the excited state density for this state as the 1-particle RhoCI density.

 Excited State   2:      Singlet-A      1.7837 eV  695.10 nm  f=0.3751  <S**2>=0.000
     310 -> 316        0.17650
     312 -> 314        0.68529
     310 <- 316        0.10146

 Excited State   3:      Singlet-A      2.2508 eV  550.84 nm  f=0.1197  <S**2>=0.000
     309 -> 313        0.64222
     311 -> 315       -0.27237

 Excited State   4:      Singlet-A      2.2587 eV  548.93 nm  f=0.1142  <S**2>=0.000
     310 -> 314        0.63967
     312 -> 316       -0.28423

 Excited State   5:      Singlet-A      3.0138 eV  411.39 nm  f=0.0000  <S**2>=0.000
     312 -> 313        0.70711

 The electronic state is 1-A.
 Alpha  occ. eigenvalues --  -46.90336 -46.88213 -19.24919 -19.24313 -19.20135
 Alpha  occ. eigenvalues --  -19.19864 -19.19366 -19.19204 -19.18991 -19.17442
 Alpha  occ. eigenvalues --  -14.43220 -14.42251 -14.41947 -14.41742 -14.40561
 Alpha  occ. eigenvalues --  -14.40320 -14.39844 -14.38701 -10.39743 -10.38303
 Alpha  occ. eigenvalues --  -10.36381 -10.35975 -10.34738 -10.34280 -10.33024
 Alpha  occ. eigenvalues --  -10.32498 -10.31957 -10.31794 -10.31529 -10.31290
 Alpha  occ. eigenvalues --  -10.31251 -10.31250 -10.31108 -10.30774 -10.30762
 Alpha  occ. eigenvalues --  -10.30669 -10.30400 -10.30167 -10.30150 -10.29789
 Alpha  occ. eigenvalues --  -10.29657 -10.29324 -10.29288 -10.29049 -10.28844
 Alpha  occ. eigenvalues --  -10.28828 -10.28687 -10.28634 -10.28491 -10.28476
 Alpha  occ. eigenvalues --  -10.28444 -10.28317 -10.28006 -10.27975 -10.27788
 Alpha  occ. eigenvalues --  -10.27763 -10.27744 -10.27645 -10.27589 -10.27584
 Alpha  occ. eigenvalues --  -10.27345 -10.27197 -10.27115 -10.27104 -10.27090
 Alpha  occ. eigenvalues --  -10.27061 -10.26928 -10.26887 -10.26857 -10.26758
 Alpha  occ. eigenvalues --  -10.26728 -10.26701 -10.26477 -10.26425 -10.26315
 Alpha  occ. eigenvalues --  -10.26230 -10.26177 -10.26028 -10.25960 -10.25803
 Alpha  occ. eigenvalues --  -10.25671 -10.25634 -10.25269 -10.25125 -10.24931
 Alpha  occ. eigenvalues --  -10.24857  -3.18743  -3.16743  -1.93621  -1.93232
 Alpha  occ. eigenvalues --   -1.93010  -1.91650  -1.91192  -1.91050  -1.16163
 Alpha  occ. eigenvalues --   -1.15857  -1.11494  -1.09245  -1.09077  -1.07637
 Alpha  occ. eigenvalues --   -1.07414  -1.07375  -1.05057  -1.04532  -1.04068
 Alpha  occ. eigenvalues --   -1.03664  -1.02450  -1.02272  -1.01945  -1.00923
 Alpha  occ. eigenvalues --   -0.93022  -0.91832  -0.89693  -0.89452  -0.89119
 Alpha  occ. eigenvalues --   -0.89011  -0.88418  -0.88346  -0.88025  -0.87823
 Alpha  occ. eigenvalues --   -0.87203  -0.86875  -0.85591  -0.85318  -0.84670
 Alpha  occ. eigenvalues --   -0.84362  -0.84216  -0.83623  -0.82974  -0.82533
 Alpha  occ. eigenvalues --   -0.82489  -0.81484  -0.81021  -0.80702  -0.80293
 Alpha  occ. eigenvalues --   -0.80083  -0.78504  -0.78417  -0.77418  -0.76989
 Alpha  occ. eigenvalues --   -0.76924  -0.76437  -0.76379  -0.75748  -0.75303
 Alpha  occ. eigenvalues --   -0.74702  -0.73423  -0.72228  -0.71977  -0.71285
 Alpha  occ. eigenvalues --   -0.69588  -0.69039  -0.68945  -0.68832  -0.68432
 Alpha  occ. eigenvalues --   -0.67408  -0.67221  -0.66862  -0.66058  -0.65678
 Alpha  occ. eigenvalues --   -0.65613  -0.64893  -0.64785  -0.64571  -0.64567
 Alpha  occ. eigenvalues --   -0.64336  -0.63359  -0.61131  -0.60924  -0.60020
 Alpha  occ. eigenvalues --   -0.59980  -0.59152  -0.58968  -0.58782  -0.58545
 Alpha  occ. eigenvalues --   -0.58047  -0.58009  -0.57793  -0.57276  -0.56990
 Alpha  occ. eigenvalues --   -0.56352  -0.55930  -0.55751  -0.55639  -0.55625
 Alpha  occ. eigenvalues --   -0.54837  -0.54722  -0.54568  -0.54227  -0.53889
 Alpha  occ. eigenvalues --   -0.53680  -0.53529  -0.53275  -0.53227  -0.53193
 Alpha  occ. eigenvalues --   -0.53023  -0.52900  -0.52619  -0.52538  -0.52252
 Alpha  occ. eigenvalues --   -0.52113  -0.51680  -0.51511  -0.51394  -0.51272
 Alpha  occ. eigenvalues --   -0.51003  -0.50958  -0.50899  -0.50707  -0.50573
 Alpha  occ. eigenvalues --   -0.50287  -0.50129  -0.49923  -0.49587  -0.49562
 Alpha  occ. eigenvalues --   -0.49500  -0.49450  -0.49246  -0.49017  -0.48842
 Alpha  occ. eigenvalues --   -0.48632  -0.48575  -0.48529  -0.48315  -0.48051
 Alpha  occ. eigenvalues --   -0.47989  -0.47720  -0.47677  -0.47478  -0.47428
 Alpha  occ. eigenvalues --   -0.47205  -0.46858  -0.46774  -0.46765  -0.46407
 Alpha  occ. eigenvalues --   -0.46206  -0.46201  -0.45982  -0.45904  -0.45744
 Alpha  occ. eigenvalues --   -0.45512  -0.45270  -0.45127  -0.45031  -0.44887
 Alpha  occ. eigenvalues --   -0.44831  -0.44663  -0.44619  -0.44474  -0.44455
 Alpha  occ. eigenvalues --   -0.43979  -0.43916  -0.43843  -0.43610  -0.43552
 Alpha  occ. eigenvalues --   -0.43272  -0.43180  -0.42947  -0.42712  -0.42687
 Alpha  occ. eigenvalues --   -0.42393  -0.42279  -0.42272  -0.42092  -0.42024
 Alpha  occ. eigenvalues --   -0.41980  -0.41506  -0.41493  -0.41159  -0.40971
 Alpha  occ. eigenvalues --   -0.40870  -0.40734  -0.40547  -0.40269  -0.40010
 Alpha  occ. eigenvalues --   -0.40003  -0.39854  -0.39660  -0.39415  -0.39088
 Alpha  occ. eigenvalues --   -0.38738  -0.38670  -0.38055  -0.37863  -0.37646
 Alpha  occ. eigenvalues --   -0.37158  -0.36879  -0.36850  -0.36543  -0.36413
 Alpha  occ. eigenvalues --   -0.36232  -0.35897  -0.34830  -0.34315  -0.34271
 Alpha  occ. eigenvalues --   -0.34058  -0.33829  -0.33066  -0.31640  -0.31626
 Alpha  occ. eigenvalues --   -0.31466  -0.31097  -0.30936  -0.30630  -0.30214
 Alpha  occ. eigenvalues --   -0.30190  -0.29036  -0.28643  -0.24955  -0.24048
 Alpha  occ. eigenvalues --   -0.21682  -0.21298
 Alpha virt. eigenvalues --   -0.09540  -0.08501  -0.01912  -0.01759  -0.00044
 Alpha virt. eigenvalues --    0.00061   0.00611   0.02117   0.02197   0.02983
 Alpha virt. eigenvalues --    0.04555   0.04994   0.05245   0.05414   0.05420

 Mulliken charges:
               1
     1  Mg  11.999985
     2  C    5.999982
     3  C    5.999973
     4  C    5.999995
     5  C    6.000010
     6  N    7.000018
     7  C    5.999981
     8  C    6.000021
     9  C    5.999972
    10  C    6.000083
    11  C    5.999975
    12  C    6.000004
    13  C    6.000009
    14  H    1.000013
    15  N    7.000007
    16  C    6.000150
    17  C    6.000061
    18  C    6.000052
    19  C    6.000090
    20  C    5.999966
    21  C    6.000038
    22  O    8.000079
    23  C    5.999986
    24  N    6.999980
    25  C    6.000044
    26  C    5.999989
    27  C    6.000019
    28  C    5.999954
    29  C    5.999990
    30  C    6.000017
    31  C    6.000010
    32  N    6.999994
    33  C    5.999865
    34  C    5.999913
    35  C    5.999991
    36  C    5.999915
    37  C    6.000045
    38  C    5.999909
    39  O    7.999900
    40  C    5.999994
    41  C    6.000001
    42  O    7.999971
    43  O    7.999994
    44  C    6.000011
    45  H    1.000059
    46  H    1.000002
    47  H    0.999942
    48  H    0.999982
    49  H    1.000033
    50  H    1.000029
    51  H    1.000051
    52  H    0.999998
    53  H    0.999995
    54  H    1.000012
    55  H    0.999995
    56  H    0.999990
    57  H    1.000088
    58  H    1.000071
    59  H    1.000072
    60  H    1.000042
    61  H    1.000035
    62  H    1.000052
    63  H    1.000012
    64  H    0.999982
    65  H    1.000020
    66  H    1.000005
    67  H    0.999996
    68  H    1.000006
    69  H    0.999969
    70  H    0.999998
    71  H    0.999985
    72  H    0.999972
    73  H    0.999913
    74  H    0.999916
    75  H    0.999901
    76  H    0.999976
    77  H    0.999981
    78  H    0.999994
    79  H    0.999970
    80  Mg  12.001781
    81  C    5.987841
    82  C    5.957825
    83  C    6.004938
    84  C    6.037511
    85  N    6.977271
    86  C    5.977189
    87  C    6.006013
    88  C    5.987203
    89  C    6.049604
    90  C    6.000763
    91  C    6.001515
    92  C    6.008937
    93  H    0.988347
    94  N    6.998268
    95  C    6.057351
    96  C    6.007965
    97  C    6.022875
    98  C    6.032166
    99  C    5.991939
   100  C    6.012862
   101  O    8.026741
   102  C    5.991079
   103  N    7.024352
   104  C    6.012815
   105  C    5.990094
   106  C    6.006704
   107  C    5.958740
   108  C    5.998135
   109  C    6.000253
   110  C    6.000329
   111  N    7.001605
   112  C    5.942928
   113  C    5.979422
   114  C    5.986862
   115  C    5.980158
   116  C    6.002787
   117  C    5.983307
   118  O    7.963568
   119  C    6.006801
   120  C    5.994639
   121  O    7.987398
   122  O    8.004609
   123  C    6.005126
   124  H    1.005317
   125  H    1.015913
   126  H    0.996131
   127  H    0.999226
   128  H    0.999768
   129  H    0.997634
   130  H    0.999992
   131  H    1.011415
   132  H    1.002920
   133  H    0.989846
   134  H    0.988279
   135  H    1.012020
   136  H    1.017751
   137  H    1.019732
   138  H    1.022176
   139  H    1.012158
   140  H    1.010404
   141  H    1.015710
   142  H    1.003790
   143  H    1.001354
   144  H    0.999107
   145  H    0.995968
   146  H    1.013136
   147  H    1.006679
   148  H    0.991709
   149  H    0.996711
   150  H    0.995715
   151  H    1.004349
   152  H    0.982473
   153  H    0.986383
   154  H    0.980398
   155  H    0.986301
   156  H    0.995885
   157  H    0.990078
   158  H    0.994955
 Sum of Mulliken charges = 624.00000

 Dipole moment (field-independent basis, Debye):
    X=             -0.4466    Y=             11.5049    Z=             -0.6998  Tot=             11.5349
 Quadrupole moment (field-independent basis, Debye-Ang):
   XX=             21.5401   YY=              8.6868   ZZ=             -0.5765
   XY=           -290.6995   XZ=             18.0045   YZ=             -2.9827

 Normal termination of Gaussian 16 at Thu Sep 23 08:34:33 2021.
