 Gaussian 16, Revision A.03,
 Gaussian 16:  ES64L-G16RevA.03 25-Dec-2016

 ----------------------------------------------------------
 #p cam-b3lyp/Def2SVP td=(nstates=5) density=(transition=1)
 ----------------------------------------------------------

 --------------------------------
 TDDFT excited states in gaussian
 --------------------------------
 Symbolic Z-matrix:
 Charge =  0 Multiplicity = 1

                         Standard orientation:
 ---------------------------------------------------------------------
 Center     Atomic      Atomic             Coordinates (Angstroms)
 Number     Number       Type             X           Y           Z
 ---------------------------------------------------------------------
      1         12           0      -20.456942   -0.574525    0.058510
      2          6           0      -20.136035    2.684532   -1.090376
      3          6           0      -20.217932    0.507993    3.243655
      4          6           0      -20.596231   -3.773245    1.035072
      5          6           0      -20.533718   -1.615893   -3.283890
      6          7           0      -20.232935    1.428376    0.909209
      7          6           0      -20.216881    2.591377    0.303056
      8          6           0      -20.140017    3.720784    1.430886
      9          6           0      -19.426455    2.912211    2.493664
     10          6           0      -20.022968    1.490477    2.244323
     11          6           0      -17.896937    3.048229    2.333096
     12          6           0      -21.574598    4.353523    1.689490
     13          6           0      -21.553119    5.726004    2.369347
     14          1           0      -20.242377    6.240202    2.939208
     15          7           0      -20.591901   -1.479061    1.863268
     16          6           0      -20.550332   -0.823946    3.091775
     17          6           0      -20.903952   -1.821919    4.145416
     18          6           0      -20.957176   -3.133325    3.506742
     19          6           0      -20.627935   -2.794515    2.096694
     20          6           0      -21.080977   -1.449785    5.598484
     21          6           0      -21.318650   -4.577449    4.088216
     22          8           0      -21.394455   -5.596911    3.394071
     23          6           0      -21.595392   -4.655868    5.575116
     24          7           0      -20.437231   -2.386180   -0.941176
     25          6           0      -20.486237   -3.569458   -0.335210
     26          6           0      -20.363305   -4.764184   -1.330613
     27          6           0      -20.594314   -4.030457   -2.659454
     28          6           0      -20.582821   -2.578044   -2.299384
     29          6           0      -19.020025   -5.541767   -1.249050
     30          6           0      -21.788980   -4.515043   -3.595818
     31          6           0      -23.027852   -3.681411   -3.618031
     32          7           0      -20.153321    0.276210   -1.826476
     33          6           0      -20.275407   -0.235443   -3.074361
     34          6           0      -20.069228    0.727889   -4.096329
     35          6           0      -20.009806    1.946756   -3.350049
     36          6           0      -20.074864    1.569575   -2.028147
     37          6           0      -19.936989    0.654797   -5.595458
     38          6           0      -19.900370    3.374582   -3.391751
     39          8           0      -19.792876    4.153232   -4.314483
     40          6           0      -20.131009    3.950719   -1.958315
     41          6           0      -19.059321    4.895847   -1.630685
     42          8           0      -17.885815    4.561247   -1.573207
     43          8           0      -19.485019    6.247462   -1.569890
     44          6           0      -18.427289    7.248672   -1.361080
     45          1           0      -20.070412    0.890085    4.254827
     46          1           0      -20.597562   -4.806517    1.386173
     47          1           0      -20.511638   -1.982825   -4.311819
     48          1           0      -19.550891    4.562440    1.069181
     49          1           0      -19.714766    3.158560    3.515262
     50          1           0      -17.621734    3.599753    3.232718
     51          1           0      -17.610071    3.605372    1.440271
     52          1           0      -17.496795    2.039086    2.428650
     53          1           0      -22.166594    3.692565    2.323189
     54          1           0      -21.992904    4.511126    0.695092
     55          1           0      -22.297255    5.689295    3.164374
     56          1           0      -21.923033    6.443797    1.637610
     57          1           0      -21.499125   -0.448207    5.705255
     58          1           0      -20.199913   -1.506358    6.236900
     59          1           0      -21.833368   -2.108926    6.031287
     60          1           0      -20.726161   -4.171498    6.019374
     61          1           0      -21.625452   -5.667446    5.978933
     62          1           0      -22.551954   -4.182980    5.798134
     63          1           0      -21.143123   -5.506009   -1.159025
     64          1           0      -19.648313   -4.102265   -3.194890
     65          1           0      -18.732934   -5.717389   -2.286079
     66          1           0      -19.023685   -6.477516   -0.692218
     67          1           0      -18.308923   -4.918643   -0.706627
     68          1           0      -21.997091   -5.561404   -3.372093
     69          1           0      -21.466058   -4.458680   -4.635109
     70          1           0      -23.095499   -3.227007   -4.606768
     71          1           0      -23.011063   -2.777536   -3.007826
     72          1           0      -23.952462   -4.239872   -3.471610
     73          1           0      -19.929047   -0.372044   -5.962717
     74          1           0      -19.078159    1.251618   -5.903936
     75          1           0      -20.779762    1.029213   -6.176932
     76          1           0      -21.084929    4.471592   -1.880036
     77          1           0      -18.782186    8.255727   -1.143407
     78          1           0      -17.882899    7.230091   -2.305608
     79          1           0      -17.783387    6.829210   -0.588966
     80         12           0       19.756048   -0.646301   -0.285439
     81          6           0       21.929864    2.137889   -0.233611
     82          6           0       17.701808    0.885842    1.789912
     83          6           0       18.270209   -3.672757    0.267444
     84          6           0       22.605885   -2.535519   -1.694153
     85          7           0       19.882052    1.292023    0.698129
     86          6           0       20.696585    2.323146    0.393817
     87          6           0       20.118230    3.618407    0.996625
     88          6           0       18.803929    3.233826    1.596669
     89          6           0       18.775125    1.687749    1.400528
     90          6           0       18.596034    3.817515    3.053847
     91          6           0       20.042453    4.893888    0.092320
     92          6           0       18.856506    5.945606    0.199220
     93          1           0       19.202389    7.441859    0.195829
     94          7           0       18.046914   -1.225973    0.686104
     95          6           0       17.314590   -0.406725    1.515318
     96          6           0       16.174940   -1.152457    1.968281
     97          6           0       16.303532   -2.542308    1.578076
     98          6           0       17.597267   -2.537751    0.860201
     99          6           0       15.203083   -0.470785    2.843817
    100          6           0       15.339864   -3.739937    1.766402
    101          8           0       15.657332   -4.824706    1.404477
    102          6           0       13.919123   -3.510466    2.167640
    103          7           0       20.415456   -2.806208   -0.627031
    104          6           0       19.503477   -3.778789   -0.402989
    105          6           0       20.022385   -5.183667   -0.847437
    106          6           0       21.389669   -4.839311   -1.513366
    107          6           0       21.524036   -3.315326   -1.272076
    108          6           0       20.164182   -6.203511    0.251038
    109          6           0       21.580943   -5.183894   -3.031809
    110          6           0       20.965500   -4.299084   -4.062547
    111          7           0       21.841533   -0.387072   -0.894207
    112          6           0       22.775808   -1.202611   -1.465616
    113          6           0       23.934921   -0.422400   -1.824487
    114          6           0       23.688067    0.901002   -1.373523
    115          6           0       22.414203    0.853479   -0.771666
    116          6           0       25.229109   -0.911313   -2.372406
    117          6           0       24.218310    2.228194   -1.243878
    118          8           0       25.260762    2.758001   -1.611120
    119          6           0       23.085858    3.105649   -0.543889
    120          6           0       23.604981    3.916883    0.631240
    121          8           0       24.029790    3.430501    1.647365
    122          8           0       23.462912    5.266691    0.351412
    123          6           0       23.970871    6.133837    1.415081
    124          1           0       16.872900    1.376884    2.304712
    125          1           0       17.708145   -4.592377    0.441518
    126          1           0       23.409670   -3.067519   -2.207155
    127          1           0       20.905264    3.813991    1.724942
    128          1           0       18.023618    3.724534    1.014278
    129          1           0       19.405711    4.509528    3.284877
    130          1           0       18.450114    2.973643    3.728097
    131          1           0       17.727794    4.475414    3.095968
    132          1           0       20.034026    4.541257   -0.939321
    133          1           0       20.951213    5.492727    0.158162
    134          1           0       18.349341    5.683672    1.128023
    135          1           0       18.149526    5.764633   -0.610516
    136          1           0       14.873931   -1.226245    3.556933
    137          1           0       14.347650   -0.205738    2.223588
    138          1           0       15.461851    0.426790    3.405756
    139          1           0       13.971353   -3.589991    3.252694
    140          1           0       13.280609   -4.214394    1.633019
    141          1           0       13.546374   -2.500878    1.993349
    142          1           0       19.429412   -5.595677   -1.664220
    143          1           0       22.314899   -5.187644   -1.055401
    144          1           0       19.692259   -5.864006    1.173976
    145          1           0       21.206957   -6.388317    0.510400
    146          1           0       19.672647   -7.102083   -0.121046
    147          1           0       21.210788   -6.190256   -3.227865
    148          1           0       22.647388   -5.332337   -3.202901
    149          1           0       20.129790   -3.751880   -3.625936
    150          1           0       20.503592   -4.714105   -4.958647
    151          1           0       21.786715   -3.679843   -4.424843
    152          1           0       25.748197   -1.635082   -1.744731
    153          1           0       25.923004   -0.078937   -2.252470
    154          1           0       25.128386   -1.260013   -3.400574
    155          1           0       22.705003    3.767521   -1.321952
    156          1           0       22.955182    6.457030    1.641055
    157          1           0       24.559359    6.873780    0.873132
    158          1           0       24.496834    5.589354    2.199599
 ---------------------------------------------------------------------

 SCF Done:  E(RCAM-B3LYP) =  -4069.80454632     A.U. after   19 cycles

 Excitation energies and oscillator strengths:

 Excited State   1:      Singlet-A      1.7017 eV  728.58 nm  f=0.3836  <S**2>=0.000
     310 -> 315        0.18701
     312 -> 314        0.68383
     310 <- 315        0.11026
 This state for optimization and/or second-order correction.
 Total Energy, E(TD-HF/TD-DFT) =  -4069.74200895
 Copying the excited state density for this state as the 1-particle RhoCI density.

 Excited State   2:      Singlet-A      1.7356 eV  714.37 nm  f=0.3945  <S**2>=0.000
     309 -> 316       -0.17783
     311 -> 313        0.68646
     309 <- 316       -0.10692

 Excited State   3:      Singlet-A      2.1898 eV  566.19 nm  f=0.1077  <S**2>=0.000
     310 -> 314        0.64226
     312 -> 315       -0.28261

 Excited State   4:      Singlet-A      2.2152 eV  559.69 nm  f=0.1513  <S**2>=0.000
     309 -> 313        0.65493
     311 -> 316        0.25752

 Excited State   5:      Singlet-A      3.0820 eV  402.29 nm  f=0.0000  <S**2>=0.000
     312 -> 313        0.70710

 The electronic state is 1-A.
 Alpha  occ. eigenvalues --  -46.89983 -46.87803 -19.24726 -19.23955 -19.20516
 Alpha  occ. eigenvalues --  -19.20016 -19.19568 -19.19529 -19.18620 -19.17942
 Alpha  occ. eigenvalues --  -14.42204 -14.42052 -14.41770 -14.41499 -14.40149
 Alpha  occ. eigenvalues --  -14.39484 -14.38797 -14.38672 -10.39108 -10.38915
 Alpha  occ. eigenvalues --  -10.37273 -10.35716 -10.34787 -10.34146 -10.31616
 Alpha  occ. eigenvalues --  -10.31370 -10.31248 -10.31177 -10.31114 -10.31107
 Alpha  occ. eigenvalues --  -10.31037 -10.30875 -10.30700 -10.30631 -10.30495
 Alpha  occ. eigenvalues --  -10.30352 -10.30346 -10.29890 -10.29574 -10.29435
 Alpha  occ. eigenvalues --  -10.29053 -10.29004 -10.28860 -10.28710 -10.28662
 Alpha  occ. eigenvalues --  -10.28579 -10.28171 -10.28159 -10.28135 -10.28029
 Alpha  occ. eigenvalues --  -10.27997 -10.27990 -10.27916 -10.27820 -10.27668
 Alpha  occ. eigenvalues --  -10.27645 -10.27629 -10.27590 -10.27547 -10.27354
 Alpha  occ. eigenvalues --  -10.27332 -10.27286 -10.27280 -10.27199 -10.27101
 Alpha  occ. eigenvalues --  -10.27015 -10.26800 -10.26768 -10.26710 -10.26551
 Alpha  occ. eigenvalues --  -10.26526 -10.26367 -10.26339 -10.26247 -10.26118
 Alpha  occ. eigenvalues --  -10.25932 -10.25802 -10.25782 -10.25713 -10.25618
 Alpha  occ. eigenvalues --  -10.25382 -10.25095 -10.24958 -10.24868 -10.24557
 Alpha  occ. eigenvalues --  -10.24222  -3.18292  -3.16569  -1.93165  -1.92756
 Alpha  occ. eigenvalues --   -1.92582  -1.91480  -1.90988  -1.90916  -1.16280
 Alpha  occ. eigenvalues --   -1.14540  -1.12887  -1.10522  -1.09615  -1.09199
 Alpha  occ. eigenvalues --   -1.08528  -1.06786  -1.05624  -1.04767  -1.04210
 Alpha  occ. eigenvalues --   -1.04187  -1.03201  -1.03129  -1.02471  -1.01824
 Alpha  occ. eigenvalues --   -0.92171  -0.91602  -0.89294  -0.89247  -0.88868
 Alpha  occ. eigenvalues --   -0.88621  -0.88324  -0.88246  -0.87360  -0.87334
 Alpha  occ. eigenvalues --   -0.87163  -0.87159  -0.86301  -0.86083  -0.84373
 Alpha  occ. eigenvalues --   -0.83992  -0.83703  -0.83647  -0.82801  -0.82604
 Alpha  occ. eigenvalues --   -0.82517  -0.81986  -0.80993  -0.80828  -0.80390
 Alpha  occ. eigenvalues --   -0.80109  -0.78626  -0.78274  -0.77281  -0.77146
 Alpha  occ. eigenvalues --   -0.77088  -0.76704  -0.75900  -0.75843  -0.75111
 Alpha  occ. eigenvalues --   -0.74640  -0.72857  -0.72316  -0.71457  -0.71217
 Alpha  occ. eigenvalues --   -0.69803  -0.69289  -0.69263  -0.68792  -0.68192
 Alpha  occ. eigenvalues --   -0.67971  -0.66895  -0.66655  -0.65093  -0.64908
 Alpha  occ. eigenvalues --   -0.64704  -0.64293  -0.64230  -0.64127  -0.64043
 Alpha  occ. eigenvalues --   -0.64000  -0.61695  -0.61291  -0.60674  -0.60015
 Alpha  occ. eigenvalues --   -0.59628  -0.59541  -0.59169  -0.58793  -0.58338
 Alpha  occ. eigenvalues --   -0.58056  -0.58020  -0.57986  -0.57660  -0.57374
 Alpha  occ. eigenvalues --   -0.56137  -0.55868  -0.55839  -0.55711  -0.55479
 Alpha  occ. eigenvalues --   -0.55378  -0.55042  -0.54827  -0.54573  -0.54048
 Alpha  occ. eigenvalues --   -0.54030  -0.53730  -0.53711  -0.53396  -0.53333
 Alpha  occ. eigenvalues --   -0.53036  -0.52756  -0.52698  -0.52373  -0.52364
 Alpha  occ. eigenvalues --   -0.52176  -0.51839  -0.51717  -0.51250  -0.51184
 Alpha  occ. eigenvalues --   -0.50920  -0.50816  -0.50763  -0.50732  -0.50605
 Alpha  occ. eigenvalues --   -0.50385  -0.50286  -0.50022  -0.49931  -0.49543
 Alpha  occ. eigenvalues --   -0.49510  -0.49275  -0.49191  -0.49045  -0.48971
 Alpha  occ. eigenvalues --   -0.48847  -0.48758  -0.48585  -0.48584  -0.48537
 Alpha  occ. eigenvalues --   -0.48328  -0.47795  -0.47684  -0.47417  -0.47196
 Alpha  occ. eigenvalues --   -0.47126  -0.46916  -0.46753  -0.46494  -0.46330
 Alpha  occ. eigenvalues --   -0.46061  -0.46018  -0.45825  -0.45770  -0.45611
 Alpha  occ. eigenvalues --   -0.45543  -0.45417  -0.44985  -0.44683  -0.44619
 Alpha  occ. eigenvalues --   -0.44550  -0.44364  -0.44319  -0.44077  -0.44048
 Alpha  occ. eigenvalues --   -0.43983  -0.43705  -0.43631  -0.43483  -0.43359
 Alpha  occ. eigenvalues --   -0.43261  -0.43236  -0.43016  -0.42988  -0.42919
 Alpha  occ. eigenvalues --   -0.42599  -0.42517  -0.42330  -0.42107  -0.42024
 Alpha  occ. eigenvalues --   -0.41834  -0.41816  -0.41450  -0.41446  -0.41066
 Alpha  occ. eigenvalues --   -0.41011  -0.40863  -0.40584  -0.40563  -0.40256
 Alpha  occ. eigenvalues --   -0.40116  -0.40012  -0.39225  -0.39181  -0.38952
 Alpha  occ. eigenvalues --   -0.38232  -0.38106  -0.38094  -0.37894  -0.37603
 Alpha  occ. eigenvalues --   -0.37374  -0.36891  -0.36661  -0.36188  -0.35899
 Alpha  occ. eigenvalues --   -0.35706  -0.35666  -0.34613  -0.34478  -0.33978
 Alpha  occ. eigenvalues --   -0.33546  -0.33290  -0.33141  -0.32231  -0.31781
 Alpha  occ. eigenvalues --   -0.31191  -0.30827  -0.30598  -0.30544  -0.30220
 Alpha  occ. eigenvalues --   -0.29819  -0.29599  -0.29332  -0.23934  -0.23813
 Alpha  occ. eigenvalues --   -0.21430  -0.21043
 Alpha virt. eigenvalues --   -0.08873  -0.08631  -0.01613  -0.01293  -0.00054
 Alpha virt. eigenvalues --    0.00326   0.01169   0.02436   0.02525   0.03468
 Alpha virt. eigenvalues --    0.04522   0.04755   0.05285   0.05700   0.05962

 Mulliken charges:
               1
     1  Mg  12.000000
     2  C    6.000169
     3  C    5.999895
     4  C    5.999852
     5  C    6.000052
     6  N    7.000085
     7  C    5.999789
     8  C    6.000014
     9  C    5.999987
    10  C    6.000173
    11  C    6.000008
    12  C    6.000017
    13  C    5.999998
    14  H    1.000044
    15  N    6.999987
    16  C    6.000322
    17  C    6.000083
    18  C    6.000158
    19  C    6.000207
    20  C    5.999956
    21  C    6.000125
    22  O    8.000173
    23  C    5.999949
    24  N    6.999949
    25  C    6.000208
    26  C    5.999915
    27  C    6.000068
    28  C    5.999858
    29  C    5.999983
    30  C    6.000006
    31  C    6.000042
    32  N    6.999917
    33  C    5.999786
    34  C    5.999819
    35  C    5.999979
    36  C    5.999834
    37  C    6.000080
    38  C    5.999895
    39  O    7.999761
    40  C    5.999996
    41  C    5.999943
    42  O    8.000047
    43  O    7.999953
    44  C    6.000000
    45  H    1.000120
    46  H    1.000038
    47  H    0.999882
    48  H    1.000034
    49  H    0.999980
    50  H    1.000066
    51  H    1.000125
    52  H    1.000058
    53  H    0.999887
    54  H    1.000018
    55  H    0.999927
    56  H    0.999977
    57  H    1.000079
    58  H    1.000219
    59  H    1.000068
    60  H    1.000086
    61  H    1.000094
    62  H    0.999998
    63  H    0.999951
    64  H    1.000031
    65  H    1.000084
    66  H    0.999999
    67  H    1.000075
    68  H    0.999908
    69  H    0.999991
    70  H    0.999975
    71  H    1.000020
    72  H    0.999866
    73  H    0.999857
    74  H    0.999902
    75  H    0.999759
    76  H    0.999890
    77  H    0.999914
    78  H    1.000014
    79  H    1.000028
    80  Mg  11.998758
    81  C    5.968394
    82  C    6.014547
    83  C    6.022683
    84  C    5.993273
    85  N    6.984850
    86  C    6.039755
    87  C    5.992629
    88  C    6.013228
    89  C    5.965648
    90  C    5.999877
    91  C    5.998873
    92  C    6.002243
    93  H    0.997740
    94  N    7.011093
    95  C    5.956072
    96  C    5.981274
    97  C    5.980830
    98  C    5.965498
    99  C    6.007851
   100  C    5.986403
   101  O    7.974582
   102  C    6.005005
   103  N    7.001500
   104  C    5.968858
   105  C    6.013054
   106  C    5.996120
   107  C    6.027125
   108  C    6.000616
   109  C    5.994540
   110  C    5.991617
   111  N    6.995430
   112  C    6.036795
   113  C    6.037586
   114  C    5.999858
   115  C    6.039039
   116  C    5.996057
   117  C    6.013344
   118  O    8.029490
   119  C    6.004076
   120  C    6.003775
   121  O    8.003574
   122  O    8.001418
   123  C    5.998436
   124  H    0.991058
   125  H    0.995184
   126  H    1.012031
   127  H    0.997708
   128  H    0.994636
   129  H    0.987732
   130  H    1.003650
   131  H    0.997127
   132  H    0.997493
   133  H    0.995915
   134  H    1.007422
   135  H    1.002191
   136  H    0.981379
   137  H    0.978278
   138  H    0.979179
   139  H    0.990981
   140  H    0.985805
   141  H    0.996249
   142  H    0.997937
   143  H    0.998641
   144  H    1.007443
   145  H    0.990466
   146  H    0.998481
   147  H    1.012015
   148  H    0.998588
   149  H    1.010564
   150  H    1.008209
   151  H    0.993210
   152  H    1.024112
   153  H    1.014609
   154  H    1.021824
   155  H    1.006116
   156  H    1.006210
   157  H    1.001987
   158  H    1.002159
 Sum of Mulliken charges = 624.00000

 Dipole moment (field-independent basis, Debye):
    X=              9.7437    Y=              1.7200    Z=             -4.5821  Tot=             10.9039
 Quadrupole moment (field-independent basis, Debye-Ang):
   XX=            390.2564   YY=             -1.4656   ZZ=             -0.1914
   XY=             27.6940   XZ=            -93.5772   YZ=              4.8959

 Normal termination of Gaussian 16 at Thu Sep 23 13:45:35 2021.
