 Gaussian 16, Revision A.03,
 Gaussian 16:  ES64L-G16RevA.03 25-Dec-2016

 -----------------------------------
 #p cam-b3lyp/Def2SVP td=(nstates=5)
 -----------------------------------

 --------------------------------
 TDDFT excited states in gaussian
 --------------------------------
 Symbolic Z-matrix:
 Charge =  0 Multiplicity = 1

                         Standard orientation:
 ---------------------------------------------------------------------
 Center     Atomic      Atomic             Coordinates (Angstroms)
 Number     Number       Type             X           Y           Z
 ---------------------------------------------------------------------
      1         12           0       17.605069    0.710335    0.252277
      2          6           0       17.315261   -2.438415   -1.246400
      3          6           0       16.838826   -0.669709    3.283607
      4          6           0       17.560379    3.761122    1.529733
      5          6           0       18.205445    2.048723   -3.007276
      6          7           0       17.084242   -1.342234    0.906097
      7          6           0       17.084080   -2.507485    0.172009
      8          6           0       17.000305   -3.713649    1.089127
      9          6           0       16.568614   -3.079862    2.470370
     10          6           0       16.952177   -1.585353    2.198205
     11          6           0       15.087635   -3.249881    2.784242
     12          6           0       18.327294   -4.551769    0.996751
     13          6           0       18.417725   -5.684165    2.057044
     14          1           0       17.108958   -6.295979    2.511750
     15          7           0       17.277105    1.415359    2.085274
     16          6           0       16.865654    0.714669    3.212025
     17          6           0       16.639106    1.611034    4.359367
     18          6           0       16.897476    2.911541    3.826817
     19          6           0       17.253096    2.725204    2.422550
     20          6           0       16.283804    1.123576    5.713941
     21          6           0       16.800197    4.213990    4.578569
     22          8           0       17.091212    5.318644    4.041583
     23          6           0       16.426525    4.249052    6.035695
     24          7           0       17.908661    2.644401   -0.625689
     25          6           0       17.830247    3.716188    0.163394
     26          6           0       17.937127    5.048851   -0.700730
     27          6           0       18.110568    4.483397   -2.218994
     28          6           0       18.058774    2.978780   -1.950353
     29          6           0       16.629232    5.909163   -0.461627
     30          6           0       19.493514    4.856442   -2.905615
     31          6           0       19.542565    6.234985   -3.624961
     32          7           0       17.677830    0.041388   -1.714382
     33          6           0       18.044640    0.653714   -2.941876
     34          6           0       18.088341   -0.401876   -4.045997
     35          6           0       17.740292   -1.610796   -3.451961
     36          6           0       17.579667   -1.294088   -2.009822
     37          6           0       18.474623   -0.214059   -5.479670
     38          6           0       17.561088   -3.031439   -3.639955
     39          8           0       17.634496   -3.750728   -4.641268
     40          6           0       17.453584   -3.673816   -2.168922
     41          6           0       16.307802   -4.651207   -2.039630
     42          8           0       15.182767   -4.335883   -1.760085
     43          8           0       16.772423   -5.985806   -2.052811
     44          6           0       15.880702   -7.015030   -1.497604
     45          1           0       16.538142   -1.248122    4.160082
     46          1           0       17.528873    4.766873    1.954276
     47          1           0       18.279138    2.399862   -4.038742
     48          1           0       16.208950   -4.358200    0.708607
     49          1           0       17.146925   -3.401249    3.337211
     50          1           0       15.049040   -3.758490    3.747414
     51          1           0       14.614868   -3.763317    1.947315
     52          1           0       14.599729   -2.309684    3.040193
     53          1           0       19.072432   -3.760717    0.918416
     54          1           0       18.312511   -5.000671    0.004158
     55          1           0       18.939236   -5.202981    2.884492
     56          1           0       19.026160   -6.486698    1.640338
     57          1           0       15.287110    1.540710    5.856785
     58          1           0       17.001468    1.417613    6.479376
     59          1           0       16.156251    0.053556    5.882846
     60          1           0       17.195577    3.733958    6.609678
     61          1           0       15.460237    3.748453    5.962612
     62          1           0       16.233419    5.232311    6.463766
     63          1           0       18.865050    5.457621   -0.298878
     64          1           0       17.254557    4.569659   -2.889599
     65          1           0       15.900064    5.448455    0.204609
     66          1           0       16.121472    6.081455   -1.411003
     67          1           0       16.965264    6.808890    0.052964
     68          1           0       19.900229    4.032845   -3.491752
     69          1           0       20.210233    4.942367   -2.089540
     70          1           0       20.378249    6.783020   -3.191210
     71          1           0       18.569169    6.714222   -3.519595
     72          1           0       19.741366    6.132920   -4.692073
     73          1           0       19.459304   -0.669052   -5.589026
     74          1           0       18.485906    0.847014   -5.731787
     75          1           0       17.864232   -0.701943   -6.239314
     76          1           0       18.412305   -4.157111   -1.983073
     77          1           0       15.148710   -7.200056   -2.283318
     78          1           0       15.502046   -6.712958   -0.520935
     79          1           0       16.507455   -7.885512   -1.305705
     80         12           0      -17.670156    0.621792    0.011029
     81          6           0      -15.305212   -1.955807    0.441420
     82          6           0      -20.110298   -1.816158    0.227208
     83          6           0      -20.067748    2.994055   -0.516711
     84          6           0      -15.195440    2.827062   -0.519853
     85          7           0      -17.701312   -1.654042    0.340372
     86          6           0      -16.629978   -2.490477    0.629886
     87          6           0      -17.126561   -3.842652    1.100837
     88          6           0      -18.636940   -3.852829    0.665178
     89          6           0      -18.820519   -2.372289    0.418124
     90          6           0      -18.994522   -4.799827   -0.546674
     91          6           0      -17.022534   -4.029760    2.621800
     92          6           0      -16.652299   -5.442150    3.087039
     93          1           0      -17.693628   -6.580593    2.900887
     94          7           0      -19.783738    0.620302   -0.038055
     95          6           0      -20.531171   -0.505119    0.034508
     96          6           0      -21.898550   -0.156997   -0.177585
     97          6           0      -22.002408    1.274414   -0.263094
     98          6           0      -20.606320    1.668998   -0.328816
     99          6           0      -22.989214   -1.190802   -0.225393
    100          6           0      -23.206501    2.202235   -0.425967
    101          8           0      -23.100589    3.443360   -0.312205
    102          6           0      -24.589853    1.691698   -0.812948
    103          7           0      -17.633143    2.615865   -0.356828
    104          6           0      -18.741081    3.416517   -0.617657
    105          6           0      -18.275002    4.791004   -0.973154
    106          6           0      -16.705280    4.837538   -0.927693
    107          6           0      -16.453850    3.371492   -0.539514
    108          6           0      -18.924005    5.386666   -2.258647
    109          6           0      -16.096959    5.823655    0.092930
    110          6           0      -15.704221    7.180810   -0.522165
    111          7           0      -15.697501    0.521451   -0.086516
    112          6           0      -14.735098    1.516777   -0.250298
    113          6           0      -13.326012    0.990712   -0.117955
    114          6           0      -13.571457   -0.371802    0.117522
    115          6           0      -14.983550   -0.600176    0.182951
    116          6           0      -12.040539    1.790161   -0.228568
    117          6           0      -12.869329   -1.624961    0.349850
    118          8           0      -11.665618   -1.885285    0.368847
    119          6           0      -14.010872   -2.674257    0.690825
    120          6           0      -13.748331   -3.874259   -0.240224
    121          8           0      -13.403997   -3.823541   -1.402998
    122          8           0      -13.806377   -5.043189    0.516259
    123          6           0      -13.563196   -6.248836   -0.276031
    124          1           0      -20.857000   -2.598007    0.379590
    125          1           0      -20.746732    3.831657   -0.688192
    126          1           0      -14.460695    3.574829   -0.824410
    127          1           0      -16.641052   -4.695135    0.626443
    128          1           0      -19.330609   -4.188908    1.435923
    129          1           0      -18.184533   -5.439285   -0.898724
    130          1           0      -19.317934   -4.313606   -1.466740
    131          1           0      -19.770961   -5.510632   -0.263784
    132          1           0      -17.953189   -3.757751    3.119258
    133          1           0      -16.229992   -3.404654    3.033649
    134          1           0      -16.314311   -5.453573    4.123158
    135          1           0      -15.753068   -5.799906    2.585975
    136          1           0      -22.573023   -1.918447   -0.922274
    137          1           0      -23.953411   -0.892794   -0.636984
    138          1           0      -23.181334   -1.697428    0.720122
    139          1           0      -24.532997    1.037799   -1.683325
    140          1           0      -25.123540    2.620612   -1.013411
    141          1           0      -25.033541    1.108838   -0.005791
    142          1           0      -18.735896    5.469295   -0.254458
    143          1           0      -16.217929    4.992042   -1.891219
    144          1           0      -19.566955    4.619350   -2.690406
    145          1           0      -18.135681    5.619231   -2.974080
    146          1           0      -19.496348    6.239497   -1.892145
    147          1           0      -15.297924    5.296844    0.614105
    148          1           0      -16.842090    6.130226    0.827349
    149          1           0      -16.288624    7.359360   -1.424982
    150          1           0      -14.679568    7.275973   -0.881993
    151          1           0      -15.967987    7.961031    0.192443
    152          1           0      -11.960571    2.395936    0.674234
    153          1           0      -11.987222    2.483422   -1.067767
    154          1           0      -11.239585    1.052401   -0.273642
    155          1           0      -14.035535   -3.026770    1.721782
    156          1           0      -14.455677   -6.695737   -0.715084
    157          1           0      -13.075062   -6.924326    0.426355
    158          1           0      -12.918015   -6.188198   -1.152466
 ---------------------------------------------------------------------

 SCF Done:  E(RCAM-B3LYP) =  -4069.85454500     A.U. after   17 cycles

 Excitation energies and oscillator strengths:

 Excited State   1:      Singlet-A      1.7014 eV  728.72 nm  f=0.3786  <S**2>=0.000
     309 -> 316       -0.18650
     311 -> 313        0.68373
     309 <- 316       -0.10954
 This state for optimization and/or second-order correction.
 Total Energy, E(TD-HF/TD-DFT) =  -4069.79201982
 Copying the excited state density for this state as the 1-particle RhoCI density.

 Excited State   2:      Singlet-A      1.7141 eV  723.31 nm  f=0.3810  <S**2>=0.000
     310 -> 315        0.19953
     312 -> 314        0.68021
     310 <- 315        0.11164

 Excited State   3:      Singlet-A      2.2323 eV  555.40 nm  f=0.0986  <S**2>=0.000
     309 -> 313        0.63577
     311 -> 316        0.29947

 Excited State   4:      Singlet-A      2.2903 eV  541.35 nm  f=0.0345  <S**2>=0.000
     310 -> 314        0.58795
     312 -> 315       -0.38620

 Excited State   5:      Singlet-A      2.9498 eV  420.31 nm  f=0.0000  <S**2>=0.000
     312 -> 313        0.70709

 The electronic state is 1-A.
 Alpha  occ. eigenvalues --  -46.88020 -46.87635 -19.25749 -19.23923 -19.20396
 Alpha  occ. eigenvalues --  -19.20245 -19.19194 -19.19132 -19.19083 -19.18343
 Alpha  occ. eigenvalues --  -14.42662 -14.42100 -14.41509 -14.41264 -14.39901
 Alpha  occ. eigenvalues --  -14.39881 -14.39826 -14.39468 -10.39670 -10.39366
 Alpha  occ. eigenvalues --  -10.35834 -10.35483 -10.35198 -10.35066 -10.31705
 Alpha  occ. eigenvalues --  -10.31463 -10.31426 -10.30864 -10.30861 -10.30731
 Alpha  occ. eigenvalues --  -10.30714 -10.30705 -10.30561 -10.30316 -10.30312
 Alpha  occ. eigenvalues --  -10.30306 -10.30265 -10.30263 -10.30063 -10.29572
 Alpha  occ. eigenvalues --  -10.29572 -10.29426 -10.29208 -10.29176 -10.29095
 Alpha  occ. eigenvalues --  -10.29054 -10.28730 -10.28725 -10.28700 -10.28616
 Alpha  occ. eigenvalues --  -10.28546 -10.28490 -10.28366 -10.28249 -10.28143
 Alpha  occ. eigenvalues --  -10.28089 -10.27842 -10.27687 -10.27656 -10.27562
 Alpha  occ. eigenvalues --  -10.27534 -10.27526 -10.27361 -10.27189 -10.27112
 Alpha  occ. eigenvalues --  -10.27054 -10.27034 -10.26854 -10.26590 -10.26570
 Alpha  occ. eigenvalues --  -10.26413 -10.26396 -10.26389 -10.26387 -10.26323
 Alpha  occ. eigenvalues --  -10.26171 -10.25995 -10.25976 -10.25936 -10.25709
 Alpha  occ. eigenvalues --  -10.25680 -10.25648 -10.25548 -10.25519 -10.25354
 Alpha  occ. eigenvalues --  -10.25101  -3.16702  -3.16418  -1.91607  -1.91316
 Alpha  occ. eigenvalues --   -1.91143  -1.91033  -1.90849  -1.90762  -1.16287
 Alpha  occ. eigenvalues --   -1.15421  -1.09218  -1.09064  -1.08917  -1.08160
 Alpha  occ. eigenvalues --   -1.07757  -1.07721  -1.04703  -1.04278  -1.03654
 Alpha  occ. eigenvalues --   -1.03417  -1.03061  -1.02748  -1.01444  -1.01326
 Alpha  occ. eigenvalues --   -0.92561  -0.91555  -0.89424  -0.89009  -0.88864
 Alpha  occ. eigenvalues --   -0.88526  -0.88284  -0.87779  -0.87514  -0.87471
 Alpha  occ. eigenvalues --   -0.87002  -0.86676  -0.86272  -0.86134  -0.84404
 Alpha  occ. eigenvalues --   -0.84197  -0.83536  -0.82888  -0.82288  -0.82142
 Alpha  occ. eigenvalues --   -0.81882  -0.81719  -0.80975  -0.80705  -0.80074
 Alpha  occ. eigenvalues --   -0.79951  -0.78913  -0.78444  -0.77455  -0.77369
 Alpha  occ. eigenvalues --   -0.77277  -0.76925  -0.76141  -0.75710  -0.75048
 Alpha  occ. eigenvalues --   -0.74494  -0.72670  -0.72017  -0.71652  -0.71418
 Alpha  occ. eigenvalues --   -0.69374  -0.69360  -0.68805  -0.68568  -0.68225
 Alpha  occ. eigenvalues --   -0.68176  -0.67306  -0.67015  -0.65777  -0.65494
 Alpha  occ. eigenvalues --   -0.65463  -0.65078  -0.64481  -0.64152  -0.63892
 Alpha  occ. eigenvalues --   -0.63713  -0.62565  -0.61212  -0.60587  -0.60363
 Alpha  occ. eigenvalues --   -0.60142  -0.59443  -0.58924  -0.58645  -0.58489
 Alpha  occ. eigenvalues --   -0.57743  -0.57738  -0.57488  -0.57461  -0.56723
 Alpha  occ. eigenvalues --   -0.56101  -0.56010  -0.55895  -0.55441  -0.55103
 Alpha  occ. eigenvalues --   -0.54681  -0.54471  -0.54186  -0.53902  -0.53794
 Alpha  occ. eigenvalues --   -0.53631  -0.53486  -0.53191  -0.53126  -0.52869
 Alpha  occ. eigenvalues --   -0.52556  -0.52461  -0.52159  -0.52141  -0.51848
 Alpha  occ. eigenvalues --   -0.51845  -0.51741  -0.51699  -0.51388  -0.51213
 Alpha  occ. eigenvalues --   -0.51104  -0.50781  -0.50473  -0.50430  -0.50206
 Alpha  occ. eigenvalues --   -0.50033  -0.50013  -0.49785  -0.49483  -0.49375
 Alpha  occ. eigenvalues --   -0.49357  -0.49269  -0.49059  -0.48954  -0.48892
 Alpha  occ. eigenvalues --   -0.48832  -0.48484  -0.48453  -0.48231  -0.48076
 Alpha  occ. eigenvalues --   -0.48056  -0.48002  -0.47609  -0.47391  -0.47334
 Alpha  occ. eigenvalues --   -0.46844  -0.46826  -0.46650  -0.46515  -0.46265
 Alpha  occ. eigenvalues --   -0.46128  -0.46023  -0.45894  -0.45679  -0.45543
 Alpha  occ. eigenvalues --   -0.45505  -0.45154  -0.45107  -0.44911  -0.44805
 Alpha  occ. eigenvalues --   -0.44615  -0.44597  -0.44522  -0.44345  -0.44333
 Alpha  occ. eigenvalues --   -0.44126  -0.43940  -0.43579  -0.43485  -0.43416
 Alpha  occ. eigenvalues --   -0.43176  -0.43070  -0.43019  -0.43004  -0.42841
 Alpha  occ. eigenvalues --   -0.42675  -0.42498  -0.42347  -0.42293  -0.42048
 Alpha  occ. eigenvalues --   -0.41928  -0.41741  -0.41599  -0.41461  -0.41232
 Alpha  occ. eigenvalues --   -0.41220  -0.41042  -0.40858  -0.40439  -0.40282
 Alpha  occ. eigenvalues --   -0.40235  -0.40133  -0.39679  -0.39172  -0.39025
 Alpha  occ. eigenvalues --   -0.38700  -0.38447  -0.38301  -0.38171  -0.37934
 Alpha  occ. eigenvalues --   -0.37924  -0.37254  -0.36865  -0.36626  -0.36598
 Alpha  occ. eigenvalues --   -0.36218  -0.35839  -0.35148  -0.34943  -0.34479
 Alpha  occ. eigenvalues --   -0.34092  -0.33123  -0.32843  -0.31511  -0.31261
 Alpha  occ. eigenvalues --   -0.30964  -0.30930  -0.30878  -0.30545  -0.30462
 Alpha  occ. eigenvalues --   -0.30436  -0.29988  -0.29977  -0.23941  -0.23931
 Alpha  occ. eigenvalues --   -0.21067  -0.20375
 Alpha virt. eigenvalues --   -0.08563  -0.07834  -0.02085  -0.01770  -0.00158
 Alpha virt. eigenvalues --    0.00007   0.01757   0.02222   0.03311   0.03750
 Alpha virt. eigenvalues --    0.04546   0.04766   0.05009   0.05040   0.05613

 Mulliken charges:
               1
     1  Mg   0.842073
     2  C   -0.020555
     3  C   -0.090095
     4  C   -0.079644
     5  C   -0.078357
     6  N   -0.250688
     7  C   -0.044650
     8  C   -0.013009
     9  C   -0.082144
    10  C   -0.014525
    11  C    0.091554
    12  C    0.015920
    13  C   -0.044477
    14  H    0.032217
    15  N   -0.411438
    16  C    0.200994
    17  C   -0.144001
    18  C   -0.033977
    19  C    0.153138
    20  C    0.122185
    21  C   -0.007195
    22  O   -0.241961
    23  C    0.080563
    24  N   -0.275381
    25  C    0.019554
    26  C   -0.035741
    27  C    0.002842
    28  C    0.012049
    29  C    0.060827
    30  C    0.002626
    31  C    0.023793
    32  N   -0.368218
    33  C    0.111827
    34  C   -0.177366
    35  C    0.032718
    36  C    0.112082
    37  C    0.110969
    38  C    0.072046
    39  O   -0.179443
    40  C   -0.071621
    41  C    0.225334
    42  O   -0.190599
    43  O   -0.375659
    44  C    0.183804
    45  H   -0.034851
    46  H   -0.005918
    47  H   -0.023977
    48  H    0.008575
    49  H    0.003636
    50  H    0.006439
    51  H    0.036783
    52  H    0.014704
    53  H    0.016635
    54  H    0.015045
    55  H    0.036632
    56  H    0.035881
    57  H    0.032221
    58  H    0.035642
    59  H    0.012039
    60  H    0.044550
    61  H    0.019991
    62  H    0.028075
    63  H    0.024642
    64  H    0.018572
    65  H    0.031782
    66  H    0.016283
    67  H    0.027624
    68  H    0.011340
    69  H   -0.004976
    70  H    0.019921
    71  H    0.018653
    72  H    0.014639
    73  H    0.037821
    74  H    0.005608
    75  H    0.037491
    76  H    0.062961
    77  H    0.049940
    78  H    0.033304
    79  H    0.033922
    80  Mg   0.856995
    81  C   -0.058738
    82  C   -0.109487
    83  C   -0.071407
    84  C   -0.087079
    85  N   -0.241853
    86  C   -0.014042
    87  C    0.014371
    88  C   -0.051411
    89  C   -0.006694
    90  C    0.052931
    91  C    0.064896
    92  C   -0.070540
    93  H    0.002359
    94  N   -0.342955
    95  C    0.211721
    96  C   -0.159430
    97  C   -0.006393
    98  C    0.104293
    99  C    0.108369
   100  C    0.005845
   101  O   -0.228244
   102  C    0.038021
   103  N   -0.379070
   104  C    0.084276
   105  C   -0.051044
   106  C   -0.001757
   107  C    0.029977
   108  C    0.063125
   109  C    0.045002
   110  C   -0.000572
   111  N   -0.392745
   112  C    0.133051
   113  C   -0.159658
   114  C   -0.023290
   115  C    0.156270
   116  C    0.124932
   117  C    0.083865
   118  O   -0.172851
   119  C   -0.034172
   120  C    0.197917
   121  O   -0.193080
   122  O   -0.339706
   123  C    0.167142
   124  H   -0.033811
   125  H   -0.010985
   126  H   -0.037268
   127  H    0.007794
   128  H    0.014660
   129  H    0.013070
   130  H    0.020465
   131  H    0.012802
   132  H    0.016712
   133  H    0.011981
   134  H    0.024753
   135  H    0.028590
   136  H    0.024999
   137  H    0.003806
   138  H    0.034930
   139  H    0.040298
   140  H    0.037951
   141  H    0.041703
   142  H    0.016557
   143  H    0.017717
   144  H    0.022119
   145  H    0.012499
   146  H    0.021694
   147  H    0.012877
   148  H    0.003381
   149  H    0.004450
   150  H    0.019185
   151  H    0.018444
   152  H    0.027648
   153  H    0.026067
   154  H    0.042333
   155  H    0.042715
   156  H    0.025734
   157  H    0.037214
   158  H    0.047775
 Sum of Mulliken charges =  -0.00000

 Dipole moment (field-independent basis, Debye):
    X=             -2.7409    Y=             -1.7981    Z=              5.0960  Tot=              6.0593
 Quadrupole moment (field-independent basis, Debye-Ang):
   XX=           -365.5898   YY=           -486.7163   ZZ=           -504.4277
   XY=             44.2162   XZ=             59.4578   YZ=            -40.6751

 Normal termination of Gaussian 16 at Wed Sep  1 20:01:33 2021.
