 Gaussian 16, Revision A.03,
 Gaussian 16:  ES64L-G16RevA.03 25-Dec-2016

 -----------------------------------
 #p cam-b3lyp/Def2SVP td=(nstates=5)
 -----------------------------------

 --------------------------------
 TDDFT excited states in gaussian
 --------------------------------
 Symbolic Z-matrix:
 Charge =  0 Multiplicity = 1

                         Standard orientation:
 ---------------------------------------------------------------------
 Center     Atomic      Atomic             Coordinates (Angstroms)
 Number     Number       Type             X           Y           Z
 ---------------------------------------------------------------------
      1         12           0        3.830426   -0.973631   -0.910711
      2          6           0        5.956184    1.763768    0.041311
      3          6           0        1.136661    1.315898   -0.641321
      4          6           0        1.569361   -3.519119   -1.688137
      5          6           0        6.382685   -3.123057   -0.748703
      6          7           0        3.610495    1.308447   -0.133447
      7          6           0        4.620221    2.183070    0.063517
      8          6           0        4.041238    3.587577    0.463918
      9          6           0        2.501052    3.282679    0.425057
     10          6           0        2.371523    1.891756   -0.237131
     11          6           0        1.840195    3.367951    1.845116
     12          6           0        4.447815    4.707017   -0.494111
     13          6           0        4.874248    5.992451    0.135504
     14          1           0        5.389560    7.122512   -0.767442
     15          7           0        1.734229   -1.075241   -1.334721
     16          6           0        0.835064   -0.030186   -1.150347
     17          6           0       -0.481004   -0.495043   -1.541322
     18          6           0       -0.389553   -1.818841   -1.938270
     19          6           0        1.011457   -2.229816   -1.586623
     20          6           0       -1.748481    0.295039   -1.385174
     21          6           0       -1.494873   -2.836295   -2.438737
     22          8           0       -1.342477   -3.987038   -2.768403
     23          6           0       -2.889525   -2.313680   -2.707184
     24          7           0        3.888792   -2.993968   -1.032780
     25          6           0        2.896062   -3.880744   -1.359132
     26          6           0        3.348370   -5.350630   -1.195716
     27          6           0        4.930079   -5.221299   -1.142406
     28          6           0        5.078541   -3.659006   -0.994575
     29          6           0        2.689752   -6.059877    0.030558
     30          6           0        5.668141   -5.782071   -2.395971
     31          6           0        5.451503   -5.006840   -3.693621
     32          7           0        5.740559   -0.812393   -0.439186
     33          6           0        6.760596   -1.803660   -0.473952
     34          6           0        8.049711   -1.227330   -0.098124
     35          6           0        7.780436    0.144970    0.051492
     36          6           0        6.395483    0.367042   -0.170122
     37          6           0        9.314056   -1.945549    0.009609
     38          6           0        8.442949    1.403754    0.377437
     39          8           0        9.625458    1.630488    0.571718
     40          6           0        7.267303    2.517587    0.476363
     41          6           0        7.826822    3.565158   -0.489156
     42          8           0        7.897697    3.512774   -1.730268
     43          8           0        8.313934    4.573183    0.213270
     44          6           0        8.669088    5.869349   -0.495068
     45          1           0        0.325979    2.046958   -0.627455
     46          1           0        0.938354   -4.379458   -1.924468
     47          1           0        7.182265   -3.865391   -0.787097
     48          1           0        4.509572    3.804295    1.423431
     49          1           0        1.971644    3.967086   -0.239184
     50          1           0        0.991091    4.045211    1.936978
     51          1           0        2.553334    3.490863    2.660458
     52          1           0        1.303235    2.479689    2.178687
     53          1           0        3.471288    5.046762   -0.839626
     54          1           0        5.065034    4.360194   -1.323614
     55          1           0        5.585062    5.984268    0.963396
     56          1           0        3.947072    6.369615    0.567144
     57          1           0       -1.540887    1.328868   -1.110323
     58          1           0       -2.453067   -0.098092   -0.650646
     59          1           0       -2.352626    0.399679   -2.286521
     60          1           0       -2.901329   -1.533014   -3.467712
     61          1           0       -3.192723   -1.989067   -1.711745
     62          1           0       -3.458268   -3.221270   -2.909536
     63          1           0        2.917672   -5.848923   -2.064936
     64          1           0        5.423727   -5.484687   -0.206709
     65          1           0        1.982246   -6.835451   -0.262621
     66          1           0        2.236715   -5.438691    0.802413
     67          1           0        3.567176   -6.492818    0.511304
     68          1           0        5.534219   -6.863904   -2.395576
     69          1           0        6.737719   -5.690858   -2.207574
     70          1           0        4.717254   -4.203171   -3.651509
     71          1           0        5.078869   -5.738878   -4.409685
     72          1           0        6.305904   -4.433543   -4.051542
     73          1           0       10.166173   -1.336579    0.312200
     74          1           0        9.483319   -2.366056   -0.981586
     75          1           0        9.162026   -2.773297    0.703753
     76          1           0        7.256191    3.023487    1.441769
     77          1           0        8.729500    6.624909    0.288555
     78          1           0        7.885466    6.212537   -1.169856
     79          1           0        9.577839    5.802529   -1.094366
     80         12           0       -3.895328   -0.402688    1.066651
     81          6           0       -5.215105    2.423156   -0.535710
     82          6           0       -1.843135    1.698161    2.863633
     83          6           0       -2.647019   -3.079896    2.538373
     84          6           0       -5.950741   -2.396027   -0.969172
     85          7           0       -3.674787    1.799177    1.169516
     86          6           0       -4.289601    2.800945    0.418198
     87          6           0       -4.058778    4.249900    1.002074
     88          6           0       -2.902921    3.941844    1.934170
     89          6           0       -2.785985    2.363741    2.015780
     90          6           0       -1.527648    4.481260    1.326790
     91          6           0       -5.385788    4.547030    1.832003
     92          6           0       -5.997292    6.012577    1.720947
     93          1           0       -4.884545    7.015002    1.550635
     94          7           0       -2.384041   -0.644360    2.356439
     95          6           0       -1.663707    0.288449    2.972954
     96          6           0       -0.717782   -0.267285    3.904116
     97          6           0       -1.039323   -1.637182    3.976049
     98          6           0       -2.043450   -1.865148    2.869653
     99          6           0        0.300927    0.489941    4.674534
    100          6           0       -0.605087   -2.698326    4.966038
    101          8           0       -1.162543   -3.797848    5.059289
    102          6           0        0.638947   -2.472998    5.829868
    103          7           0       -4.235974   -2.474851    0.762921
    104          6           0       -3.595546   -3.351729    1.606360
    105          6           0       -4.165231   -4.749271    1.372465
    106          6           0       -5.343846   -4.529386    0.303903
    107          6           0       -5.242519   -3.050977    0.034868
    108          6           0       -3.008386   -5.738693    0.989870
    109          6           0       -6.732511   -5.003287    0.703198
    110          6           0       -7.403895   -5.939922   -0.349480
    111          7           0       -5.274499   -0.065462   -0.454547
    112          6           0       -6.038428   -0.997457   -1.224892
    113          6           0       -6.827941   -0.313790   -2.186013
    114          6           0       -6.523728    1.034381   -1.932797
    115          6           0       -5.548071    1.104853   -0.916840
    116          6           0       -7.799063   -0.830780   -3.197983
    117          6           0       -6.805051    2.381709   -2.312967
    118          8           0       -7.513734    2.863701   -3.165138
    119          6           0       -6.040279    3.318519   -1.335580
    120          6           0       -5.335602    4.363222   -2.122334
    121          8           0       -4.354130    4.222102   -2.846373
    122          8           0       -5.940250    5.524073   -1.851743
    123          6           0       -5.369949    6.714881   -2.445959
    124          1           0       -1.240937    2.247557    3.590073
    125          1           0       -2.185071   -3.925288    3.054455
    126          1           0       -6.650571   -2.971574   -1.578736
    127          1           0       -3.992054    4.896062    0.127336
    128          1           0       -3.103401    4.342097    2.927442
    129          1           0       -1.658456    4.945721    0.349214
    130          1           0       -0.843093    3.638706    1.230786
    131          1           0       -1.168124    5.186332    2.076349
    132          1           0       -5.266616    4.394080    2.904210
    133          1           0       -6.114615    3.802153    1.511453
    134          1           0       -6.410141    6.328757    2.678978
    135          1           0       -6.870251    6.033684    1.068055
    136          1           0       -0.006723    0.446416    5.720198
    137          1           0        0.324944    1.538290    4.380342
    138          1           0        1.306633    0.081394    4.580382
    139          1           0        0.856271   -3.504740    6.105281
    140          1           0        0.472285   -1.816151    6.684427
    141          1           0        1.547313   -2.147502    5.323247
    142          1           0       -4.616334   -5.226872    2.242190
    143          1           0       -5.069872   -5.044228   -0.617045
    144          1           0       -3.177259   -6.632747    1.590184
    145          1           0       -2.008763   -5.326136    1.126806
    146          1           0       -3.169093   -6.171226    0.001648
    147          1           0       -7.432639   -4.199671    0.929333
    148          1           0       -6.547123   -5.678268    1.539937
    149          1           0       -6.703138   -6.188961   -1.146528
    150          1           0       -8.180572   -5.421923   -0.911743
    151          1           0       -7.760931   -6.861614    0.110449
    152          1           0       -8.646747   -1.090069   -2.563107
    153          1           0       -7.297832   -1.645112   -3.720716
    154          1           0       -8.139963   -0.056035   -3.883315
    155          1           0       -6.844768    3.837454   -0.812717
    156          1           0       -5.283451    6.587307   -3.525369
    157          1           0       -4.352716    6.973157   -2.149701
    158          1           0       -6.062223    7.525908   -2.219202
 ---------------------------------------------------------------------

 SCF Done:  E(RCAM-B3LYP) =  -4069.81911049     A.U. after   19 cycles

 Excitation energies and oscillator strengths:

 Excited State   1:      Singlet-A      1.6414 eV  755.36 nm  f=0.3340  <S**2>=0.000
     310 -> 316       -0.17608
     312 -> 314        0.68091
     310 <- 316       -0.10873
 This state for optimization and/or second-order correction.
 Total Energy, E(TD-HF/TD-DFT) =  -4069.75879007
 Copying the excited state density for this state as the 1-particle RhoCI density.

 Excited State   2:      Singlet-A      1.7123 eV  724.10 nm  f=0.4084  <S**2>=0.000
     309 -> 315        0.15367
     311 -> 313        0.68373

 Excited State   3:      Singlet-A      2.0753 eV  597.44 nm  f=0.0008  <S**2>=0.000
     312 -> 313        0.70181

 Excited State   4:      Singlet-A      2.2124 eV  560.41 nm  f=0.0427  <S**2>=0.000
     309 -> 313       -0.14255
     310 -> 314        0.60978
     312 -> 316        0.30204

 Excited State   5:      Singlet-A      2.2724 eV  545.60 nm  f=0.1246  <S**2>=0.000
     309 -> 313        0.61492
     310 -> 314        0.13248
     311 -> 315       -0.26683

 The electronic state is 1-A.
 Alpha  occ. eigenvalues --  -46.88279 -46.88246 -19.25730 -19.24970 -19.20235
 Alpha  occ. eigenvalues --  -19.19358 -19.19334 -19.19200 -19.18013 -19.17826
 Alpha  occ. eigenvalues --  -14.42726 -14.42441 -14.42078 -14.41559 -14.40596
 Alpha  occ. eigenvalues --  -14.40053 -14.39669 -14.38937 -10.38831 -10.38482
 Alpha  occ. eigenvalues --  -10.36545 -10.35392 -10.35207 -10.33590 -10.32457
 Alpha  occ. eigenvalues --  -10.32238 -10.31775 -10.31451 -10.31431 -10.31326
 Alpha  occ. eigenvalues --  -10.31235 -10.31118 -10.31114 -10.31089 -10.31029
 Alpha  occ. eigenvalues --  -10.30953 -10.30584 -10.30473 -10.29949 -10.29883
 Alpha  occ. eigenvalues --  -10.29484 -10.29423 -10.29331 -10.29019 -10.28997
 Alpha  occ. eigenvalues --  -10.28892 -10.28850 -10.28738 -10.28705 -10.28490
 Alpha  occ. eigenvalues --  -10.28398 -10.28368 -10.28368 -10.28243 -10.28240
 Alpha  occ. eigenvalues --  -10.28185 -10.28099 -10.28054 -10.28003 -10.27740
 Alpha  occ. eigenvalues --  -10.27613 -10.27505 -10.27440 -10.27264 -10.27258
 Alpha  occ. eigenvalues --  -10.27073 -10.27048 -10.26937 -10.26930 -10.26879
 Alpha  occ. eigenvalues --  -10.26811 -10.26639 -10.26589 -10.26383 -10.26381
 Alpha  occ. eigenvalues --  -10.26255 -10.26131 -10.26120 -10.26099 -10.26012
 Alpha  occ. eigenvalues --  -10.25685 -10.25522 -10.25390 -10.25361 -10.24816
 Alpha  occ. eigenvalues --  -10.24028  -3.16982  -3.16970  -1.91915  -1.91857
 Alpha  occ. eigenvalues --   -1.91443  -1.91409  -1.91303  -1.91275  -1.17583
 Alpha  occ. eigenvalues --   -1.15968  -1.11119  -1.10665  -1.10036  -1.09795
 Alpha  occ. eigenvalues --   -1.07605  -1.05402  -1.05300  -1.04395  -1.03771
 Alpha  occ. eigenvalues --   -1.03406  -1.03141  -1.02801  -1.02173  -1.01676
 Alpha  occ. eigenvalues --   -0.93140  -0.90861  -0.90024  -0.89323  -0.89015
 Alpha  occ. eigenvalues --   -0.88782  -0.88728  -0.88270  -0.87959  -0.87481
 Alpha  occ. eigenvalues --   -0.87334  -0.87091  -0.86900  -0.86421  -0.84441
 Alpha  occ. eigenvalues --   -0.84137  -0.83893  -0.83572  -0.82651  -0.82416
 Alpha  occ. eigenvalues --   -0.82206  -0.81721  -0.81167  -0.80905  -0.80784
 Alpha  occ. eigenvalues --   -0.79984  -0.79295  -0.78073  -0.77741  -0.77316
 Alpha  occ. eigenvalues --   -0.77260  -0.76993  -0.76228  -0.75982  -0.75332
 Alpha  occ. eigenvalues --   -0.75140  -0.73525  -0.72579  -0.71867  -0.71658
 Alpha  occ. eigenvalues --   -0.70059  -0.69617  -0.69132  -0.68754  -0.68004
 Alpha  occ. eigenvalues --   -0.67826  -0.67563  -0.66206  -0.65945  -0.65583
 Alpha  occ. eigenvalues --   -0.65451  -0.65401  -0.65096  -0.64954  -0.64529
 Alpha  occ. eigenvalues --   -0.64040  -0.62901  -0.61789  -0.61165  -0.60113
 Alpha  occ. eigenvalues --   -0.59665  -0.59458  -0.59230  -0.59069  -0.58944
 Alpha  occ. eigenvalues --   -0.58227  -0.57724  -0.57692  -0.57299  -0.57019
 Alpha  occ. eigenvalues --   -0.56256  -0.56116  -0.55767  -0.55621  -0.55490
 Alpha  occ. eigenvalues --   -0.54911  -0.54870  -0.54649  -0.54196  -0.54021
 Alpha  occ. eigenvalues --   -0.53986  -0.53582  -0.53482  -0.53079  -0.53033
 Alpha  occ. eigenvalues --   -0.52968  -0.52932  -0.52752  -0.52411  -0.52353
 Alpha  occ. eigenvalues --   -0.52248  -0.51910  -0.51648  -0.51546  -0.51437
 Alpha  occ. eigenvalues --   -0.51134  -0.50957  -0.50887  -0.50753  -0.50588
 Alpha  occ. eigenvalues --   -0.50363  -0.50274  -0.50169  -0.49926  -0.49773
 Alpha  occ. eigenvalues --   -0.49585  -0.49317  -0.49177  -0.49029  -0.48891
 Alpha  occ. eigenvalues --   -0.48866  -0.48751  -0.48621  -0.48484  -0.48327
 Alpha  occ. eigenvalues --   -0.48029  -0.47994  -0.47795  -0.47560  -0.47452
 Alpha  occ. eigenvalues --   -0.47383  -0.47173  -0.47041  -0.46847  -0.46763
 Alpha  occ. eigenvalues --   -0.46608  -0.46435  -0.46333  -0.46168  -0.45843
 Alpha  occ. eigenvalues --   -0.45730  -0.45494  -0.45470  -0.45254  -0.45085
 Alpha  occ. eigenvalues --   -0.44974  -0.44932  -0.44806  -0.44694  -0.44383
 Alpha  occ. eigenvalues --   -0.44141  -0.44025  -0.43895  -0.43838  -0.43644
 Alpha  occ. eigenvalues --   -0.43619  -0.43347  -0.43213  -0.43140  -0.43009
 Alpha  occ. eigenvalues --   -0.42959  -0.42895  -0.42684  -0.42377  -0.42251
 Alpha  occ. eigenvalues --   -0.42100  -0.41957  -0.41827  -0.41414  -0.41275
 Alpha  occ. eigenvalues --   -0.41084  -0.40913  -0.40596  -0.40384  -0.40342
 Alpha  occ. eigenvalues --   -0.40203  -0.40036  -0.39648  -0.39305  -0.39176
 Alpha  occ. eigenvalues --   -0.38623  -0.38481  -0.38079  -0.37975  -0.37871
 Alpha  occ. eigenvalues --   -0.37576  -0.37321  -0.36940  -0.36747  -0.36610
 Alpha  occ. eigenvalues --   -0.36061  -0.35635  -0.34705  -0.34359  -0.33921
 Alpha  occ. eigenvalues --   -0.33282  -0.33104  -0.32723  -0.32591  -0.31758
 Alpha  occ. eigenvalues --   -0.31399  -0.31313  -0.30853  -0.30601  -0.30272
 Alpha  occ. eigenvalues --   -0.30107  -0.29961  -0.29676  -0.24569  -0.24086
 Alpha  occ. eigenvalues --   -0.21507  -0.20930
 Alpha virt. eigenvalues --   -0.09029  -0.08663  -0.02145  -0.02017   0.00075
 Alpha virt. eigenvalues --    0.00689   0.02362   0.02495   0.03024   0.03418
 Alpha virt. eigenvalues --    0.04890   0.05187   0.05424   0.05666   0.05918

 Mulliken charges:
               1
     1  Mg   0.845196
     2  C    0.045207
     3  C   -0.059786
     4  C   -0.047831
     5  C   -0.099081
     6  N   -0.249611
     7  C   -0.053520
     8  C   -0.041402
     9  C   -0.032380
    10  C    0.022089
    11  C    0.070409
    12  C    0.092409
    13  C   -0.097150
    14  H    0.016720
    15  N   -0.372354
    16  C    0.168254
    17  C   -0.135396
    18  C   -0.043239
    19  C    0.114609
    20  C    0.123230
    21  C    0.003027
    22  O   -0.187872
    23  C    0.053345
    24  N   -0.324825
    25  C    0.018488
    26  C   -0.032813
    27  C   -0.028677
    28  C    0.037502
    29  C    0.073842
    30  C    0.042362
    31  C    0.003780
    32  N   -0.436300
    33  C    0.150053
    34  C   -0.153862
    35  C    0.006500
    36  C    0.125120
    37  C    0.128513
    38  C    0.054805
    39  O   -0.163918
    40  C   -0.066862
    41  C    0.185916
    42  O   -0.258388
    43  O   -0.310490
    44  C    0.186739
    45  H   -0.023758
    46  H   -0.004710
    47  H   -0.031554
    48  H    0.013124
    49  H    0.011506
    50  H    0.001559
    51  H    0.008141
    52  H   -0.001412
    53  H    0.000412
    54  H    0.046681
    55  H    0.026221
    56  H    0.014707
    57  H    0.016314
    58  H    0.038311
    59  H    0.036704
    60  H    0.055576
    61  H    0.045360
    62  H    0.017536
    63  H    0.014074
    64  H    0.016405
    65  H    0.025828
    66  H    0.025155
    67  H    0.002829
    68  H    0.013289
    69  H   -0.002243
    70  H    0.021983
    71  H    0.022829
    72  H    0.020041
    73  H    0.039809
    74  H    0.029492
    75  H    0.021209
    76  H    0.035837
    77  H    0.038987
    78  H    0.037966
    79  H    0.054432
    80  Mg   0.740738
    81  C    0.036969
    82  C   -0.097901
    83  C   -0.059747
    84  C   -0.078652
    85  N   -0.274704
    86  C   -0.114954
    87  C    0.000281
    88  C   -0.043494
    89  C    0.066670
    90  C    0.051822
    91  C    0.037905
    92  C   -0.060831
    93  H    0.017202
    94  N   -0.372534
    95  C    0.139719
    96  C   -0.155171
    97  C   -0.029099
    98  C    0.117667
    99  C    0.126815
   100  C    0.018763
   101  O   -0.212622
   102  C    0.014709
   103  N   -0.322552
   104  C    0.101777
   105  C   -0.065603
   106  C    0.004781
   107  C    0.048466
   108  C    0.055556
   109  C    0.054016
   110  C   -0.019880
   111  N   -0.319112
   112  C    0.078686
   113  C   -0.187971
   114  C    0.016605
   115  C    0.087970
   116  C    0.135160
   117  C    0.000290
   118  O   -0.164978
   119  C   -0.005621
   120  C    0.159873
   121  O   -0.229420
   122  O   -0.302344
   123  C    0.183131
   124  H   -0.029216
   125  H    0.002359
   126  H   -0.033851
   127  H    0.026049
   128  H    0.016230
   129  H    0.028941
   130  H    0.024686
   131  H    0.030612
   132  H    0.008106
   133  H    0.021781
   134  H    0.020711
   135  H    0.041450
   136  H    0.029881
   137  H    0.018632
   138  H    0.039163
   139  H    0.034034
   140  H    0.043544
   141  H    0.032893
   142  H    0.017861
   143  H    0.011957
   144  H    0.003870
   145  H    0.042498
   146  H    0.011790
   147  H    0.024162
   148  H    0.003418
   149  H    0.003455
   150  H    0.015985
   151  H    0.023854
   152  H    0.032446
   153  H    0.032561
   154  H    0.036792
   155  H    0.039463
   156  H    0.037732
   157  H    0.027270
   158  H    0.039505
 Sum of Mulliken charges =  -0.00000

 Dipole moment (field-independent basis, Debye):
    X=             -1.9734    Y=              0.1682    Z=              6.6230  Tot=              6.9128
 Quadrupole moment (field-independent basis, Debye-Ang):
   XX=           -564.7253   YY=           -462.1425   ZZ=           -527.0891
   XY=             -8.8277   XZ=            -13.6336   YZ=             27.2512

 Normal termination of Gaussian 16 at Wed Sep 15 11:02:17 2021.
