 Gaussian 16, Revision A.03,
 Gaussian 16:  ES64L-G16RevA.03 25-Dec-2016

 -----------------------------------
 #p cam-b3lyp/Def2SVP td=(nstates=5)
 -----------------------------------

 --------------------------------
 TDDFT excited states in gaussian
 --------------------------------
 Symbolic Z-matrix:
 Charge =  0 Multiplicity = 1

                         Standard orientation:
 ---------------------------------------------------------------------
 Center     Atomic      Atomic             Coordinates (Angstroms)
 Number     Number       Type             X           Y           Z
 ---------------------------------------------------------------------
      1         12           0       25.685862   -0.331883   -0.249549
      2          6           0       22.074390   -0.412016    0.395795
      3          6           0       24.823977    1.247713   -3.206188
      4          6           0       28.701145    0.699803   -0.365997
      5          6           0       26.035823   -1.588174    3.098739
      6          7           0       23.568800    0.472539   -1.211698
      7          6           0       22.267005    0.316893   -0.788182
      8          6           0       21.305702    1.084656   -1.767573
      9          6           0       22.160764    1.349052   -3.019041
     10          6           0       23.594638    1.008888   -2.460322
     11          6           0       21.882724    0.490709   -4.322432
     12          6           0       20.654256    2.363303   -1.137840
     13          6           0       19.206046    2.624332   -1.491907
     14          1           0       18.933671    3.718559   -2.571277
     15          7           0       26.666174    0.693445   -1.629766
     16          6           0       26.205272    1.174632   -2.824987
     17          6           0       27.313212    1.842952   -3.560928
     18          6           0       28.438847    1.698789   -2.708623
     19          6           0       27.949125    1.048236   -1.495819
     20          6           0       27.219193    2.592555   -4.899946
     21          6           0       29.831836    2.317614   -2.856170
     22          8           0       30.063248    2.939297   -3.889643
     23          6           0       30.872230    2.199023   -1.912398
     24          7           0       27.102247   -0.209737    1.324568
     25          6           0       28.374986    0.044841    0.853574
     26          6           0       29.397463   -0.276961    2.011285
     27          6           0       28.476079   -0.710497    3.207333
     28          6           0       27.138261   -0.942908    2.464950
     29          6           0       30.496198   -1.320319    1.668928
     30          6           0       28.342179    0.250575    4.456628
     31          6           0       29.469601    0.237493    5.503531
     32          7           0       24.404994   -0.954573    1.447966
     33          6           0       24.712848   -1.549210    2.655281
     34          6           0       23.532968   -2.019542    3.339737
     35          6           0       22.458500   -1.602365    2.468036
     36          6           0       22.984421   -0.896608    1.330079
     37          6           0       23.546718   -2.680579    4.683545
     38          6           0       21.068803   -1.557068    2.363158
     39          8           0       20.192040   -1.828651    3.172288
     40          6           0       20.738260   -0.689800    1.114038
     41          6           0       19.858517   -1.573931    0.261314
     42          8           0       18.787536   -1.201151   -0.224097
     43          8           0       20.429148   -2.860158   -0.100649
     44          6           0       19.706788   -3.501933   -1.197847
     45          1           0       24.579877    1.681542   -4.177617
     46          1           0       29.785674    0.825170   -0.343049
     47          1           0       26.308160   -2.031450    4.058749
     48          1           0       20.562952    0.379624   -2.143593
     49          1           0       22.195839    2.409330   -3.269381
     50          1           0       21.382374    1.180100   -5.002171
     51          1           0       21.182036   -0.318577   -4.119076
     52          1           0       22.755293    0.011034   -4.765746
     53          1           0       21.091058    3.306068   -1.468226
     54          1           0       20.676721    2.302709   -0.049544
     55          1           0       18.679654    2.807519   -0.555163
     56          1           0       18.798823    1.701030   -1.905185
     57          1           0       28.097671    2.373655   -5.507538
     58          1           0       27.122163    3.637632   -4.606067
     59          1           0       26.366021    2.247341   -5.482335
     60          1           0       31.179770    1.153314   -1.880300
     61          1           0       30.646121    2.606401   -0.926947
     62          1           0       31.600409    2.898132   -2.325046
     63          1           0       29.956705    0.592108    2.356167
     64          1           0       28.745108   -1.699682    3.576996
     65          1           0       30.383188   -2.106642    2.415398
     66          1           0       31.468089   -0.839684    1.776384
     67          1           0       30.258326   -1.611379    0.645062
     68          1           0       27.414900   -0.078527    4.926746
     69          1           0       28.319557    1.294894    4.144503
     70          1           0       30.096592   -0.563950    5.111745
     71          1           0       29.111213   -0.131444    6.465604
     72          1           0       30.043740    1.155404    5.627303
     73          1           0       24.040102   -1.970890    5.346334
     74          1           0       24.182524   -3.564688    4.726917
     75          1           0       22.551919   -2.780668    5.117827
     76          1           0       20.141390    0.152015    1.464498
     77          1           0       20.551244   -4.097893   -1.546073
     78          1           0       19.223167   -2.776968   -1.852514
     79          1           0       19.006483   -4.197611   -0.735397
     80         12           0      -25.360719    0.507655    0.065563
     81          6           0      -22.240897   -0.823607   -0.551213
     82          6           0      -26.694660   -2.512978   -1.321620
     83          6           0      -28.361836    1.773318    0.276661
     84          6           0      -23.939331    3.497993    1.066929
     85          7           0      -24.491345   -1.385481   -1.041099
     86          6           0      -23.223997   -1.748156   -0.935292
     87          6           0      -23.059234   -3.274912   -1.179140
     88          6           0      -24.395021   -3.567061   -1.948081
     89          6           0      -25.302553   -2.437566   -1.435011
     90          6           0      -24.210279   -3.524412   -3.506698
     91          6           0      -22.977630   -3.925475    0.219759
     92          6           0      -22.664544   -5.427410    0.259723
     93          1           0      -22.700216   -6.247763   -1.014072
     94          7           0      -27.274706   -0.210082   -0.313158
     95          6           0      -27.596063   -1.502980   -0.852682
     96          6           0      -29.043228   -1.630675   -0.748466
     97          6           0      -29.527296   -0.413643   -0.174654
     98          6           0      -28.378649    0.485189   -0.071028
     99          6           0      -29.862971   -2.913331   -1.149706
    100          6           0      -30.990689   -0.103747    0.283601
    101          8           0      -31.246623    1.015307    0.634936
    102          6           0      -32.040940   -1.165893    0.243940
    103          7           0      -26.060850    2.366283    0.691784
    104          6           0      -27.376175    2.679448    0.701838
    105          6           0      -27.648848    4.126613    1.110316
    106          6           0      -26.234539    4.621081    1.492772
    107          6           0      -25.334790    3.397284    1.048022
    108          6           0      -28.340354    5.023586    0.018890
    109          6           0      -26.036732    5.139978    2.894191
    110          6           0      -26.566826    4.361647    4.122512
    111          7           0      -23.503620    1.277766    0.239252
    112          6           0      -23.052796    2.494287    0.665314
    113          6           0      -21.608168    2.417952    0.720743
    114          6           0      -21.192546    1.114154    0.281094
    115          6           0      -22.424531    0.468648   -0.013933
    116          6           0      -20.726297    3.544921    1.159922
    117          6           0      -20.098201    0.256555   -0.028152
    118          8           0      -18.857990    0.408455    0.018037
    119          6           0      -20.801976   -0.955541   -0.850107
    120          6           0      -20.063437   -2.234505   -0.452109
    121          8           0      -19.888738   -2.608190    0.644297
    122          8           0      -19.610522   -2.830633   -1.594528
    123          6           0      -19.202010   -4.218376   -1.521568
    124          1           0      -27.092060   -3.406856   -1.805974
    125          1           0      -29.336848    2.263257    0.319076
    126          1           0      -23.428943    4.418484    1.355294
    127          1           0      -22.225213   -3.499191   -1.843966
    128          1           0      -24.698419   -4.541283   -1.563993
    129          1           0      -24.204816   -4.541219   -3.897413
    130          1           0      -23.273594   -3.007568   -3.716374
    131          1           0      -25.031534   -3.033448   -4.028881
    132          1           0      -23.963324   -3.835233    0.675491
    133          1           0      -22.343455   -3.357373    0.899645
    134          1           0      -23.113873   -5.936679    1.112572
    135          1           0      -21.635046   -5.473748    0.615306
    136          1           0      -30.700881   -2.681258   -1.807756
    137          1           0      -30.166543   -3.370916   -0.208270
    138          1           0      -29.193786   -3.643916   -1.605771
    139          1           0      -32.710019   -0.845640    1.042919
    140          1           0      -31.668081   -2.138342    0.563493
    141          1           0      -32.467569   -1.489182   -0.705532
    142          1           0      -28.299714    4.053435    1.981304
    143          1           0      -25.859641    5.396152    0.824366
    144          1           0      -27.914336    6.018201    0.147893
    145          1           0      -29.386370    4.991721    0.324454
    146          1           0      -28.252148    4.563009   -0.965027
    147          1           0      -26.729597    5.980648    2.880526
    148          1           0      -25.034470    5.463869    3.176664
    149          1           0      -27.315301    4.840263    4.752637
    150          1           0      -25.783743    4.211842    4.865738
    151          1           0      -27.006072    3.421866    3.787566
    152          1           0      -19.706355    3.185183    1.027269
    153          1           0      -20.860082    3.729192    2.226717
    154          1           0      -20.939049    4.509995    0.701009
    155          1           0      -20.696423   -0.676604   -1.898717
    156          1           0      -18.234990   -3.982700   -1.966129
    157          1           0      -19.884810   -4.905113   -2.022296
    158          1           0      -19.033963   -4.586393   -0.509094
 ---------------------------------------------------------------------

 SCF Done:  E(RCAM-B3LYP) =  -4069.75415516     A.U. after   17 cycles

 Excitation energies and oscillator strengths:

 Excited State   1:      Singlet-A      1.7223 eV  719.86 nm  f=0.3629  <S**2>=0.000
     309 -> 315        0.19683
     311 -> 313        0.67917
     309 <- 315        0.11033
 This state for optimization and/or second-order correction.
 Total Energy, E(TD-HF/TD-DFT) =  -4069.69086002
 Copying the excited state density for this state as the 1-particle RhoCI density.

 Excited State   2:      Singlet-A      1.7338 eV  715.09 nm  f=0.3667  <S**2>=0.000
     310 -> 316       -0.19613
     312 -> 314        0.68069
     310 <- 316       -0.11066

 Excited State   3:      Singlet-A      2.2194 eV  558.64 nm  f=0.0920  <S**2>=0.000
     310 -> 314        0.63507
     312 -> 316        0.29919

 Excited State   4:      Singlet-A      2.2417 eV  553.08 nm  f=0.0693  <S**2>=0.000
     309 -> 313        0.61606
     311 -> 315       -0.33057

 Excited State   5:      Singlet-A      3.1613 eV  392.19 nm  f=0.0000  <S**2>=0.000
     312 -> 313        0.70710

 The electronic state is 1-A.
 Alpha  occ. eigenvalues --  -46.90749 -46.88244 -19.24358 -19.23697 -19.20233
 Alpha  occ. eigenvalues --  -19.20070 -19.19074 -19.18991 -19.18778 -19.17852
 Alpha  occ. eigenvalues --  -14.42701 -14.42003 -14.41709 -14.41706 -14.40798
 Alpha  occ. eigenvalues --  -14.39282 -14.39250 -14.39126 -10.39371 -10.38888
 Alpha  occ. eigenvalues --  -10.35253 -10.35031 -10.34923 -10.33491 -10.32299
 Alpha  occ. eigenvalues --  -10.31871 -10.31573 -10.31514 -10.31434 -10.31353
 Alpha  occ. eigenvalues --  -10.30998 -10.30763 -10.30688 -10.30596 -10.30567
 Alpha  occ. eigenvalues --  -10.30403 -10.30259 -10.29642 -10.29600 -10.29383
 Alpha  occ. eigenvalues --  -10.29289 -10.29225 -10.28984 -10.28900 -10.28898
 Alpha  occ. eigenvalues --  -10.28819 -10.28746 -10.28575 -10.28513 -10.28433
 Alpha  occ. eigenvalues --  -10.28391 -10.28308 -10.28303 -10.28202 -10.28051
 Alpha  occ. eigenvalues --  -10.28051 -10.27777 -10.27759 -10.27671 -10.27631
 Alpha  occ. eigenvalues --  -10.27599 -10.27559 -10.27558 -10.27449 -10.27329
 Alpha  occ. eigenvalues --  -10.26964 -10.26839 -10.26838 -10.26787 -10.26716
 Alpha  occ. eigenvalues --  -10.26645 -10.26636 -10.26535 -10.26443 -10.26440
 Alpha  occ. eigenvalues --  -10.26255 -10.26242 -10.26228 -10.26187 -10.26169
 Alpha  occ. eigenvalues --  -10.25834 -10.25765 -10.25720 -10.25248 -10.25222
 Alpha  occ. eigenvalues --  -10.24922  -3.19160  -3.16881  -1.94005  -1.93667
 Alpha  occ. eigenvalues --   -1.93425  -1.91781  -1.91353  -1.91171  -1.17584
 Alpha  occ. eigenvalues --   -1.13927  -1.11502  -1.10447  -1.09772  -1.08967
 Alpha  occ. eigenvalues --   -1.07983  -1.06330  -1.05212  -1.05020  -1.04057
 Alpha  occ. eigenvalues --   -1.03356  -1.03329  -1.03028  -1.02052  -1.01071
 Alpha  occ. eigenvalues --   -0.92996  -0.92875  -0.89357  -0.88992  -0.88932
 Alpha  occ. eigenvalues --   -0.88646  -0.88514  -0.88499  -0.87284  -0.86982
 Alpha  occ. eigenvalues --   -0.86918  -0.86410  -0.85920  -0.85658  -0.85010
 Alpha  occ. eigenvalues --   -0.84043  -0.83862  -0.83713  -0.83685  -0.82521
 Alpha  occ. eigenvalues --   -0.82406  -0.81743  -0.81400  -0.81142  -0.80257
 Alpha  occ. eigenvalues --   -0.79869  -0.78246  -0.77973  -0.77349  -0.77337
 Alpha  occ. eigenvalues --   -0.77031  -0.76798  -0.75848  -0.75817  -0.75489
 Alpha  occ. eigenvalues --   -0.75263  -0.72830  -0.72661  -0.71983  -0.71914
 Alpha  occ. eigenvalues --   -0.70249  -0.69134  -0.68860  -0.68591  -0.68083
 Alpha  occ. eigenvalues --   -0.67704  -0.67003  -0.66180  -0.65559  -0.65368
 Alpha  occ. eigenvalues --   -0.65165  -0.65041  -0.64900  -0.64276  -0.64132
 Alpha  occ. eigenvalues --   -0.64018  -0.62347  -0.61892  -0.60486  -0.60376
 Alpha  occ. eigenvalues --   -0.59803  -0.59628  -0.59260  -0.59140  -0.58912
 Alpha  occ. eigenvalues --   -0.58799  -0.58122  -0.57896  -0.57155  -0.56991
 Alpha  occ. eigenvalues --   -0.56752  -0.56200  -0.56118  -0.55630  -0.55598
 Alpha  occ. eigenvalues --   -0.55329  -0.54775  -0.54325  -0.54203  -0.53932
 Alpha  occ. eigenvalues --   -0.53776  -0.53614  -0.53541  -0.53497  -0.53289
 Alpha  occ. eigenvalues --   -0.52943  -0.52883  -0.52476  -0.52371  -0.52287
 Alpha  occ. eigenvalues --   -0.52063  -0.51979  -0.51787  -0.51731  -0.51431
 Alpha  occ. eigenvalues --   -0.51013  -0.50740  -0.50697  -0.50614  -0.50128
 Alpha  occ. eigenvalues --   -0.49967  -0.49882  -0.49849  -0.49672  -0.49540
 Alpha  occ. eigenvalues --   -0.49511  -0.49304  -0.49290  -0.49113  -0.48945
 Alpha  occ. eigenvalues --   -0.48751  -0.48633  -0.48382  -0.48212  -0.48150
 Alpha  occ. eigenvalues --   -0.48119  -0.47956  -0.47954  -0.47727  -0.47618
 Alpha  occ. eigenvalues --   -0.47268  -0.46828  -0.46725  -0.46602  -0.46524
 Alpha  occ. eigenvalues --   -0.46515  -0.46134  -0.45938  -0.45893  -0.45816
 Alpha  occ. eigenvalues --   -0.45563  -0.45359  -0.45185  -0.44989  -0.44962
 Alpha  occ. eigenvalues --   -0.44721  -0.44678  -0.44462  -0.44321  -0.44109
 Alpha  occ. eigenvalues --   -0.43838  -0.43794  -0.43583  -0.43339  -0.43243
 Alpha  occ. eigenvalues --   -0.43180  -0.42958  -0.42838  -0.42675  -0.42554
 Alpha  occ. eigenvalues --   -0.42444  -0.42296  -0.42285  -0.42066  -0.42054
 Alpha  occ. eigenvalues --   -0.41970  -0.41922  -0.41858  -0.41548  -0.41480
 Alpha  occ. eigenvalues --   -0.41410  -0.41339  -0.40971  -0.40258  -0.40202
 Alpha  occ. eigenvalues --   -0.40200  -0.39954  -0.39530  -0.39423  -0.39297
 Alpha  occ. eigenvalues --   -0.38849  -0.38379  -0.37929  -0.37854  -0.37513
 Alpha  occ. eigenvalues --   -0.37489  -0.37155  -0.37109  -0.36363  -0.36324
 Alpha  occ. eigenvalues --   -0.35831  -0.35351  -0.35111  -0.34467  -0.33939
 Alpha  occ. eigenvalues --   -0.33849  -0.33323  -0.33185  -0.31742  -0.31560
 Alpha  occ. eigenvalues --   -0.31389  -0.31030  -0.30990  -0.30397  -0.30142
 Alpha  occ. eigenvalues --   -0.29799  -0.29341  -0.28730  -0.24458  -0.23788
 Alpha  occ. eigenvalues --   -0.21446  -0.21075
 Alpha virt. eigenvalues --   -0.08778  -0.08414  -0.02690  -0.01866  -0.00353
 Alpha virt. eigenvalues --    0.00211   0.00595   0.02180   0.02631   0.03047
 Alpha virt. eigenvalues --    0.04391   0.04834   0.05360   0.05497   0.05873

 Mulliken charges:
               1
     1  Mg   0.834469
     2  C   -0.008412
     3  C   -0.051083
     4  C   -0.074898
     5  C   -0.087900
     6  N   -0.224651
     7  C   -0.070863
     8  C    0.059357
     9  C   -0.071626
    10  C   -0.036575
    11  C    0.062102
    12  C    0.059725
    13  C   -0.072198
    14  H    0.007761
    15  N   -0.409454
    16  C    0.147834
    17  C   -0.174501
    18  C   -0.015335
    19  C    0.192162
    20  C    0.144601
    21  C   -0.033299
    22  O   -0.215723
    23  C    0.089257
    24  N   -0.319245
    25  C    0.023089
    26  C   -0.073000
    27  C   -0.047443
    28  C    0.019170
    29  C    0.084301
    30  C    0.042804
    31  C    0.012938
    32  N   -0.344576
    33  C    0.143219
    34  C   -0.151038
    35  C    0.030890
    36  C    0.129276
    37  C    0.139484
    38  C   -0.006499
    39  O   -0.179768
    40  C   -0.020499
    41  C    0.217690
    42  O   -0.226352
    43  O   -0.390015
    44  C    0.179636
    45  H   -0.026333
    46  H   -0.046943
    47  H   -0.027808
    48  H    0.012240
    49  H    0.017823
    50  H    0.026306
    51  H    0.015308
    52  H    0.028869
    53  H    0.025171
    54  H    0.019050
    55  H    0.034409
    56  H    0.030272
    57  H    0.044795
    58  H    0.045431
    59  H    0.008980
    60  H    0.054008
    61  H    0.041937
    62  H    0.028049
    63  H    0.008449
    64  H   -0.003915
    65  H    0.016870
    66  H    0.020050
    67  H    0.021279
    68  H    0.004901
    69  H    0.011213
    70  H   -0.004517
    71  H    0.017483
    72  H    0.028215
    73  H    0.012461
    74  H    0.025028
    75  H    0.037660
    76  H    0.040563
    77  H    0.031501
    78  H    0.052785
    79  H    0.033597
    80  Mg   0.826030
    81  C   -0.012303
    82  C   -0.069448
    83  C   -0.074875
    84  C   -0.110743
    85  N   -0.226781
    86  C   -0.083341
    87  C   -0.038274
    88  C   -0.040666
    89  C    0.001543
    90  C    0.086690
    91  C    0.038272
    92  C   -0.033817
    93  H    0.030037
    94  N   -0.395507
    95  C    0.163778
    96  C   -0.171013
    97  C   -0.041664
    98  C    0.168856
    99  C    0.109758
   100  C    0.017399
   101  O   -0.181351
   102  C    0.052854
   103  N   -0.265997
   104  C   -0.012127
   105  C   -0.046947
   106  C   -0.006080
   107  C    0.066906
   108  C    0.084007
   109  C    0.038655
   110  C   -0.018427
   111  N   -0.393957
   112  C    0.127046
   113  C   -0.170467
   114  C    0.015107
   115  C    0.149492
   116  C    0.114102
   117  C    0.076159
   118  O   -0.199680
   119  C   -0.076700
   120  C    0.177546
   121  O   -0.154493
   122  O   -0.338138
   123  C    0.149793
   124  H   -0.021760
   125  H   -0.018218
   126  H   -0.032779
   127  H   -0.002260
   128  H   -0.002013
   129  H    0.017257
   130  H    0.023478
   131  H    0.018023
   132  H    0.001262
   133  H    0.042111
   134  H    0.018703
   135  H    0.015701
   136  H    0.037161
   137  H    0.036359
   138  H    0.006407
   139  H    0.032693
   140  H   -0.000053
   141  H    0.047121
   142  H    0.021799
   143  H    0.003763
   144  H    0.024767
   145  H    0.025980
   146  H    0.031879
   147  H    0.004397
   148  H    0.015895
   149  H    0.010593
   150  H    0.010220
   151  H    0.020207
   152  H    0.037346
   153  H    0.019412
   154  H    0.024880
   155  H    0.054942
   156  H    0.050961
   157  H    0.046113
   158  H    0.046420
 Sum of Mulliken charges =  -0.00000

 Dipole moment (field-independent basis, Debye):
    X=              1.4220    Y=             -2.6482    Z=             -1.8657  Tot=              3.5378
 Quadrupole moment (field-independent basis, Debye-Ang):
   XX=           -116.4845   YY=           -477.5824   ZZ=           -505.6567
   XY=             16.6990   XZ=             35.7407   YZ=             25.9452

 Normal termination of Gaussian 16 at Thu Sep  2 13:09:55 2021.
