 Gaussian 16, Revision A.03,
 Gaussian 16:  ES64L-G16RevA.03 25-Dec-2016

 ----------------------------------------------------------
 #p cam-b3lyp/Def2SVP td=(nstates=5) density=(transition=1)
 ----------------------------------------------------------

 --------------------------------
 TDDFT excited states in gaussian
 --------------------------------
 Symbolic Z-matrix:
 Charge =  0 Multiplicity = 1

                         Standard orientation:
 ---------------------------------------------------------------------
 Center     Atomic      Atomic             Coordinates (Angstroms)
 Number     Number       Type             X           Y           Z
 ---------------------------------------------------------------------
      1         12           0        4.821276   -0.709797   -0.243587
      2          6           0        3.127023    2.334002   -0.860635
      3          6           0        7.687699    1.093909    0.421197
      4          6           0        6.490368   -3.643530    0.054679
      5          6           0        1.944539   -2.504091   -1.134821
      6          7           0        5.269590    1.455777   -0.349987
      7          6           0        4.389412    2.533939   -0.403789
      8          6           0        5.140654    3.906447   -0.160335
      9          6           0        6.616664    3.443026   -0.037250
     10          6           0        6.562502    1.898853   -0.036742
     11          6           0        7.649320    3.962387   -1.106371
     12          6           0        4.560141    4.842743    0.977230
     13          6           0        4.115318    6.199728    0.522158
     14          1           0        4.383352    7.390590    1.525401
     15          7           0        6.774831   -1.142948    0.162614
     16          6           0        7.812810   -0.290262    0.479271
     17          6           0        9.024254   -1.064311    0.700525
     18          6           0        8.729963   -2.454129    0.607812
     19          6           0        7.256902   -2.476626    0.280250
     20          6           0       10.368851   -0.454405    1.145206
     21          6           0        9.630163   -3.666524    0.822843
     22          8           0        9.235472   -4.814153    0.799609
     23          6           0       11.163760   -3.580059    1.208314
     24          7           0        4.301436   -2.801345   -0.602368
     25          6           0        5.156186   -3.796668   -0.405856
     26          6           0        4.497587   -5.198649   -0.664332
     27          6           0        2.974338   -4.826645   -0.858121
     28          6           0        3.047753   -3.269829   -0.843317
     29          6           0        5.208105   -5.974245   -1.811093
     30          6           0        2.091270   -5.462939    0.196987
     31          6           0        0.778052   -6.024418   -0.345163
     32          7           0        2.929707   -0.291156   -1.009109
     33          6           0        1.830863   -1.098524   -1.232386
     34          6           0        0.787648   -0.265094   -1.745809
     35          6           0        1.200545    1.081240   -1.588881
     36          6           0        2.547264    1.041968   -1.131522
     37          6           0       -0.525586   -0.726258   -2.253871
     38          6           0        0.762176    2.485082   -1.676967
     39          8           0       -0.249004    3.016117   -2.126871
     40          6           0        2.113770    3.381820   -1.121348
     41          6           0        2.519088    4.313685   -2.126950
     42          8           0        3.493370    4.183240   -2.835843
     43          8           0        1.733005    5.443214   -2.092199
     44          6           0        2.081508    6.416040   -3.157495
     45          1           0        8.580816    1.624308    0.758619
     46          1           0        6.988433   -4.614161    0.089623
     47          1           0        1.071183   -3.136700   -1.310352
     48          1           0        5.129581    4.389908   -1.136595
     49          1           0        7.031819    3.734542    0.927558
     50          1           0        8.569170    4.186669   -0.565402
     51          1           0        7.229966    4.844328   -1.589922
     52          1           0        7.887281    3.241720   -1.888999
     53          1           0        5.338485    4.901340    1.738177
     54          1           0        3.676395    4.342120    1.373162
     55          1           0        3.038761    6.193470    0.346618
     56          1           0        4.646786    6.336654   -0.419169
     57          1           0       10.522451   -0.823118    2.158763
     58          1           0       10.246097    0.622069    1.266862
     59          1           0       11.238130   -0.731341    0.547456
     60          1           0       11.245551   -2.996409    2.125881
     61          1           0       11.800586   -3.335011    0.357796
     62          1           0       11.476187   -4.619533    1.303637
     63          1           0        4.523291   -5.857428    0.203452
     64          1           0        2.723203   -5.128733   -1.875059
     65          1           0        4.449025   -6.310982   -2.517716
     66          1           0        5.846219   -6.783733   -1.455735
     67          1           0        5.880344   -5.303338   -2.343444
     68          1           0        1.864158   -4.776295    1.011830
     69          1           0        2.569325   -6.270741    0.753253
     70          1           0        0.610256   -5.719528   -1.378164
     71          1           0       -0.013160   -5.590281    0.266719
     72          1           0        0.690289   -7.100339   -0.193367
     73          1           0       -0.713327   -1.799920   -2.256770
     74          1           0       -0.707544   -0.164973   -3.171153
     75          1           0       -1.199820   -0.470453   -1.436164
     76          1           0        1.833125    3.918515   -0.214645
     77          1           0        1.959000    5.951959   -4.136377
     78          1           0        3.089388    6.762584   -2.929200
     79          1           0        1.422003    7.282869   -3.173067
     80         12           0       -4.958376   -0.643547    0.283412
     81          6           0       -2.752793    1.970670    1.014310
     82          6           0       -7.315032    1.804068   -0.418980
     83          6           0       -7.134504   -3.044624    0.017771
     84          6           0       -2.436480   -2.921867    1.279893
     85          7           0       -5.147301    1.674339    0.686611
     86          6           0       -4.083104    2.472829    0.818215
     87          6           0       -4.556542    3.883348    0.704448
     88          6           0       -6.101952    3.789167    0.684178
     89          6           0       -6.233173    2.339507    0.261010
     90          6           0       -6.902667    4.126805    1.943073
     91          6           0       -4.000478    4.584080   -0.575641
     92          6           0       -3.339632    5.993990   -0.441415
     93          1           0       -3.825429    6.957819    0.685721
     94          7           0       -6.959614   -0.630778   -0.298519
     95          6           0       -7.660492    0.491874   -0.718738
     96          6           0       -8.936396    0.031307   -1.160920
     97          6           0       -8.976919   -1.401243   -0.924905
     98          6           0       -7.674939   -1.776905   -0.394232
     99          6           0      -10.077262    0.947389   -1.655205
    100          6           0      -10.150199   -2.407428   -1.102473
    101          8           0      -10.083298   -3.570537   -0.859336
    102          6           0      -11.428431   -1.839743   -1.687488
    103          7           0       -4.766604   -2.671525    0.598451
    104          6           0       -5.856712   -3.462242    0.480926
    105          6           0       -5.579421   -4.964457    0.763829
    106          6           0       -3.996936   -4.927262    0.902678
    107          6           0       -3.673551   -3.437881    0.905265
    108          6           0       -6.405312   -5.464974    2.084442
    109          6           0       -3.253022   -5.810948   -0.147319
    110          6           0       -2.697541   -5.127854   -1.384158
    111          7           0       -2.948415   -0.577582    0.978492
    112          6           0       -2.045826   -1.570509    1.248650
    113          6           0       -0.736923   -0.925313    1.617183
    114          6           0       -0.992192    0.461904    1.529553
    115          6           0       -2.368788    0.653832    1.175778
    116          6           0        0.501462   -1.592444    2.151163
    117          6           0       -0.406191    1.790859    1.686217
    118          8           0        0.745612    2.077651    2.024851
    119          6           0       -1.472143    2.770168    1.203768
    120          6           0       -1.588522    3.808303    2.282843
    121          8           0       -2.183451    3.662882    3.334947
    122          8           0       -0.771383    4.787133    1.930414
    123          6           0       -0.353138    5.735260    2.951031
    124          1           0       -8.097738    2.560420   -0.501568
    125          1           0       -7.793178   -3.876392   -0.239408
    126          1           0       -1.654791   -3.626456    1.572454
    127          1           0       -4.197740    4.440563    1.569241
    128          1           0       -6.436401    4.520849   -0.051386
    129          1           0       -6.329265    4.469499    2.804577
    130          1           0       -7.489614    3.263905    2.258951
    131          1           0       -7.593275    4.919165    1.655258
    132          1           0       -4.712861    4.613331   -1.399849
    133          1           0       -3.244854    3.850448   -0.856221
    134          1           0       -3.545577    6.460464   -1.405616
    135          1           0       -2.264173    5.862746   -0.324738
    136          1           0      -11.018302    0.785393   -1.129468
    137          1           0      -10.362340    0.734079   -2.685530
    138          1           0       -9.847860    2.013251   -1.621120
    139          1           0      -11.260187   -1.279321   -2.607352
    140          1           0      -11.915506   -1.244912   -0.914708
    141          1           0      -12.163676   -2.631628   -1.830315
    142          1           0       -5.877884   -5.607920   -0.063623
    143          1           0       -3.640608   -5.355744    1.839339
    144          1           0       -5.637794   -5.595154    2.847497
    145          1           0       -6.825599   -6.465565    1.980665
    146          1           0       -7.095320   -4.722005    2.486017
    147          1           0       -4.036618   -6.458612   -0.540771
    148          1           0       -2.485039   -6.438867    0.303907
    149          1           0       -3.495944   -4.450966   -1.690693
    150          1           0       -2.559556   -5.979090   -2.050424
    151          1           0       -1.826664   -4.476081   -1.319296
    152          1           0        0.466990   -2.659135    2.372922
    153          1           0        0.792177   -1.110973    3.084958
    154          1           0        1.285882   -1.342000    1.437671
    155          1           0       -1.181856    3.375020    0.344480
    156          1           0       -0.631683    5.575757    3.992209
    157          1           0       -0.881098    6.643518    2.658850
    158          1           0        0.632844    6.112273    2.679089
 ---------------------------------------------------------------------

 SCF Done:  E(RCAM-B3LYP) =  -4069.81865539     A.U. after   19 cycles

 Excitation energies and oscillator strengths:

 Excited State   1:      Singlet-A      1.6875 eV  734.72 nm  f=0.8389  <S**2>=0.000
     310 -> 316       -0.15296
     311 -> 313        0.28103
     311 -> 314       -0.16884
     312 -> 313        0.29101
     312 -> 314        0.52936
 This state for optimization and/or second-order correction.
 Total Energy, E(TD-HF/TD-DFT) =  -4069.75664119
 Copying the excited state density for this state as the 1-particle RhoCI density.

 Excited State   2:      Singlet-A      1.7907 eV  692.39 nm  f=0.0804  <S**2>=0.000
     309 -> 315        0.15544
     311 -> 313        0.57601
     311 -> 314       -0.15706
     312 -> 314       -0.32973

 Excited State   3:      Singlet-A      2.2011 eV  563.27 nm  f=0.0331  <S**2>=0.000
     309 -> 313        0.16483
     309 -> 314       -0.12018
     310 -> 313        0.26364
     310 -> 314        0.55508
     312 -> 316        0.25542

 Excited State   4:      Singlet-A      2.2444 eV  552.42 nm  f=0.1384  <S**2>=0.000
     309 -> 313        0.56728
     309 -> 314       -0.18351
     310 -> 314       -0.19282
     311 -> 314        0.12890
     311 -> 315       -0.25949

 Excited State   5:      Singlet-A      2.3209 eV  534.21 nm  f=0.0064  <S**2>=0.000
     309 -> 313       -0.11474
     311 -> 313        0.22579
     311 -> 314        0.64284

 The electronic state is 1-A.
 Alpha  occ. eigenvalues --  -46.88483 -46.88101 -19.25969 -19.24407 -19.19816
 Alpha  occ. eigenvalues --  -19.19728 -19.19403 -19.19264 -19.19195 -19.18399
 Alpha  occ. eigenvalues --  -14.42131 -14.41692 -14.41521 -14.41243 -14.40233
 Alpha  occ. eigenvalues --  -14.39072 -14.38653 -14.38447 -10.38747 -10.38276
 Alpha  occ. eigenvalues --  -10.36334 -10.36191 -10.35273 -10.34271 -10.32392
 Alpha  occ. eigenvalues --  -10.31905 -10.31826 -10.31405 -10.31225 -10.31030
 Alpha  occ. eigenvalues --  -10.30854 -10.30844 -10.30556 -10.30391 -10.30117
 Alpha  occ. eigenvalues --  -10.29978 -10.29773 -10.29388 -10.29298 -10.29097
 Alpha  occ. eigenvalues --  -10.28909 -10.28782 -10.28688 -10.28676 -10.28554
 Alpha  occ. eigenvalues --  -10.28511 -10.28398 -10.28231 -10.27918 -10.27867
 Alpha  occ. eigenvalues --  -10.27834 -10.27788 -10.27711 -10.27631 -10.27588
 Alpha  occ. eigenvalues --  -10.27566 -10.27456 -10.27427 -10.27408 -10.26906
 Alpha  occ. eigenvalues --  -10.26871 -10.26659 -10.26524 -10.26493 -10.26493
 Alpha  occ. eigenvalues --  -10.26435 -10.26431 -10.26404 -10.26321 -10.26288
 Alpha  occ. eigenvalues --  -10.26286 -10.26185 -10.26144 -10.26103 -10.26095
 Alpha  occ. eigenvalues --  -10.26042 -10.25836 -10.25822 -10.25635 -10.25567
 Alpha  occ. eigenvalues --  -10.25508 -10.25141 -10.25003 -10.24998 -10.24976
 Alpha  occ. eigenvalues --  -10.24796  -3.16942  -3.16635  -1.91850  -1.91541
 Alpha  occ. eigenvalues --   -1.91433  -1.91204  -1.91084  -1.90943  -1.18000
 Alpha  occ. eigenvalues --   -1.15896  -1.11448  -1.11145  -1.09634  -1.09491
 Alpha  occ. eigenvalues --   -1.08315  -1.07448  -1.04620  -1.04040  -1.03537
 Alpha  occ. eigenvalues --   -1.02356  -1.02336  -1.01852  -1.01583  -1.00820
 Alpha  occ. eigenvalues --   -0.92935  -0.91677  -0.89221  -0.88594  -0.88250
 Alpha  occ. eigenvalues --   -0.87977  -0.87959  -0.87732  -0.87140  -0.86833
 Alpha  occ. eigenvalues --   -0.86813  -0.85956  -0.85494  -0.85228  -0.84256
 Alpha  occ. eigenvalues --   -0.84100  -0.83698  -0.83308  -0.82494  -0.82425
 Alpha  occ. eigenvalues --   -0.80980  -0.80951  -0.80677  -0.80534  -0.80029
 Alpha  occ. eigenvalues --   -0.79699  -0.78352  -0.77626  -0.77023  -0.76963
 Alpha  occ. eigenvalues --   -0.76560  -0.76346  -0.76034  -0.75736  -0.74841
 Alpha  occ. eigenvalues --   -0.74651  -0.72367  -0.72146  -0.71420  -0.71222
 Alpha  occ. eigenvalues --   -0.69442  -0.69053  -0.68918  -0.68562  -0.67410
 Alpha  occ. eigenvalues --   -0.67365  -0.67072  -0.65721  -0.65659  -0.64878
 Alpha  occ. eigenvalues --   -0.64777  -0.64671  -0.64484  -0.64290  -0.64286
 Alpha  occ. eigenvalues --   -0.63997  -0.62536  -0.61132  -0.59996  -0.59557
 Alpha  occ. eigenvalues --   -0.59309  -0.59120  -0.58832  -0.58664  -0.58147
 Alpha  occ. eigenvalues --   -0.57984  -0.57808  -0.57537  -0.57027  -0.56914
 Alpha  occ. eigenvalues --   -0.56603  -0.55917  -0.55741  -0.55699  -0.54818
 Alpha  occ. eigenvalues --   -0.54647  -0.54553  -0.54423  -0.54261  -0.53713
 Alpha  occ. eigenvalues --   -0.53324  -0.53178  -0.53163  -0.53020  -0.52806
 Alpha  occ. eigenvalues --   -0.52509  -0.52376  -0.52137  -0.52085  -0.51834
 Alpha  occ. eigenvalues --   -0.51697  -0.51594  -0.51519  -0.51266  -0.50956
 Alpha  occ. eigenvalues --   -0.50936  -0.50868  -0.50776  -0.50452  -0.50179
 Alpha  occ. eigenvalues --   -0.49952  -0.49695  -0.49535  -0.49413  -0.49254
 Alpha  occ. eigenvalues --   -0.49062  -0.48853  -0.48552  -0.48534  -0.48481
 Alpha  occ. eigenvalues --   -0.48354  -0.48113  -0.48059  -0.47997  -0.47719
 Alpha  occ. eigenvalues --   -0.47635  -0.47624  -0.47448  -0.47254  -0.46780
 Alpha  occ. eigenvalues --   -0.46734  -0.46304  -0.46206  -0.46117  -0.45971
 Alpha  occ. eigenvalues --   -0.45712  -0.45656  -0.45636  -0.45492  -0.45293
 Alpha  occ. eigenvalues --   -0.45236  -0.45077  -0.44986  -0.44826  -0.44724
 Alpha  occ. eigenvalues --   -0.44654  -0.44598  -0.44409  -0.44091  -0.43920
 Alpha  occ. eigenvalues --   -0.43814  -0.43550  -0.43437  -0.43330  -0.43130
 Alpha  occ. eigenvalues --   -0.43046  -0.42994  -0.42901  -0.42730  -0.42600
 Alpha  occ. eigenvalues --   -0.42386  -0.42330  -0.42301  -0.41851  -0.41826
 Alpha  occ. eigenvalues --   -0.41577  -0.41342  -0.41209  -0.41078  -0.40829
 Alpha  occ. eigenvalues --   -0.40811  -0.40431  -0.40412  -0.40287  -0.39885
 Alpha  occ. eigenvalues --   -0.39831  -0.39750  -0.39254  -0.39160  -0.38945
 Alpha  occ. eigenvalues --   -0.38688  -0.38311  -0.37569  -0.37126  -0.36842
 Alpha  occ. eigenvalues --   -0.36793  -0.36606  -0.36322  -0.36246  -0.35928
 Alpha  occ. eigenvalues --   -0.35853  -0.35838  -0.34274  -0.33995  -0.33780
 Alpha  occ. eigenvalues --   -0.33741  -0.32943  -0.32839  -0.31560  -0.31419
 Alpha  occ. eigenvalues --   -0.31249  -0.30634  -0.30429  -0.30378  -0.30139
 Alpha  occ. eigenvalues --   -0.29771  -0.28691  -0.28443  -0.23932  -0.23470
 Alpha  occ. eigenvalues --   -0.21232  -0.20771
 Alpha virt. eigenvalues --   -0.08487  -0.08163  -0.01690  -0.01229  -0.00156
 Alpha virt. eigenvalues --    0.00595   0.02020   0.03163   0.03271   0.03338
 Alpha virt. eigenvalues --    0.04560   0.05287   0.05781   0.05975   0.06000

 Mulliken charges:
               1
     1  Mg  12.004291
     2  C    5.994347
     3  C    6.005208
     4  C    6.009865
     5  C    5.998996
     6  N    6.995054
     7  C    6.012155
     8  C    5.994304
     9  C    6.005077
    10  C    5.982883
    11  C    6.003401
    12  C    5.998411
    13  C    6.000337
    14  H    0.998904
    15  N    7.006065
    16  C    5.981166
    17  C    5.990296
    18  C    5.990523
    19  C    5.982141
    20  C    6.001593
    21  C    5.995886
    22  O    7.986696
    23  C    6.002066
    24  N    7.001575
    25  C    5.983491
    26  C    6.005332
    27  C    5.994350
    28  C    6.011822
    29  C    6.001871
    30  C    5.998634
    31  C    5.999113
    32  N    6.996510
    33  C    6.026827
    34  C    6.021378
    35  C    6.005177
    36  C    6.016206
    37  C    5.995555
    38  C    6.012595
    39  O    8.009449
    40  C    6.003456
    41  C    5.999128
    42  O    8.002834
    43  O    8.000517
    44  C    5.999890
    45  H    0.992572
    46  H    0.995409
    47  H    1.004698
    48  H    0.999906
    49  H    0.997425
    50  H    0.997885
    51  H    0.990892
    52  H    0.998206
    53  H    1.002687
    54  H    1.001720
    55  H    0.998140
    56  H    0.999483
    57  H    0.990420
    58  H    0.991269
    59  H    0.989327
    60  H    0.996747
    61  H    0.994091
    62  H    0.991975
    63  H    0.997353
    64  H    0.997955
    65  H    0.992563
    66  H    0.998432
    67  H    1.000384
    68  H    1.005795
    69  H    1.002112
    70  H    0.996617
    71  H    1.001948
    72  H    0.998579
    73  H    1.004761
    74  H    1.000327
    75  H    1.023298
    76  H    1.005813
    77  H    0.998669
    78  H    1.002285
    79  H    0.999503
    80  Mg  12.001158
    81  C    6.008416
    82  C    5.982674
    83  C    5.987079
    84  C    6.023698
    85  N    6.997347
    86  C    5.975266
    87  C    6.004537
    88  C    5.990776
    89  C    6.034113
    90  C    5.998884
    91  C    6.002083
    92  C    6.000753
    93  H    0.998140
    94  N    6.989566
    95  C    6.042845
    96  C    6.013340
    97  C    6.016676
    98  C    6.030101
    99  C    5.995779
   100  C    6.013628
   101  O    8.023918
   102  C    5.993397
   103  N    7.005080
   104  C    6.028964
   105  C    5.990421
   106  C    6.009442
   107  C    5.967049
   108  C    5.993690
   109  C    6.000812
   110  C    6.007420
   111  N    7.005892
   112  C    5.956402
   113  C    5.965869
   114  C    5.991354
   115  C    5.972302
   116  C    6.003943
   117  C    5.982518
   118  O    7.975181
   119  C    5.999821
   120  C    5.997034
   121  O    7.995936
   122  O    7.998625
   123  C    6.003196
   124  H    1.010331
   125  H    1.007257
   126  H    0.996821
   127  H    0.999565
   128  H    1.003262
   129  H    1.013162
   130  H    0.996386
   131  H    1.003212
   132  H    0.988111
   133  H    1.003249
   134  H    0.996979
   135  H    1.003421
   136  H    1.017066
   137  H    1.018046
   138  H    1.017468
   139  H    1.005968
   140  H    1.008219
   141  H    1.015280
   142  H    1.002017
   143  H    1.000264
   144  H    1.012221
   145  H    1.005070
   146  H    0.997520
   147  H    0.991911
   148  H    1.001392
   149  H    0.989960
   150  H    0.997744
   151  H    1.003096
   152  H    0.986274
   153  H    0.988740
   154  H    0.979548
   155  H    0.989357
   156  H    0.998278
   157  H    0.994831
   158  H    0.998231
 Sum of Mulliken charges = 624.00000

 Dipole moment (field-independent basis, Debye):
    X=            -15.8154    Y=              0.2027    Z=             -3.4686  Tot=             16.1925
 Quadrupole moment (field-independent basis, Debye-Ang):
   XX=             42.2129   YY=             -4.4244   ZZ=             -0.4986
   XY=             18.3735   XZ=              6.6322   YZ=             -0.0699

 Normal termination of Gaussian 16 at Thu Sep 23 10:26:59 2021.
