 Gaussian 16, Revision A.03,
 Gaussian 16:  ES64L-G16RevA.03 25-Dec-2016

 ----------------------------------------------------------
 #p cam-b3lyp/Def2SVP td=(nstates=5) density=(transition=1)
 ----------------------------------------------------------

 --------------------------------
 TDDFT excited states in gaussian
 --------------------------------
 Symbolic Z-matrix:
 Charge =  0 Multiplicity = 1

                         Standard orientation:
 ---------------------------------------------------------------------
 Center     Atomic      Atomic             Coordinates (Angstroms)
 Number     Number       Type             X           Y           Z
 ---------------------------------------------------------------------
      1         12           0      -25.445878   -0.779080   -0.294498
      2          6           0      -26.458462    2.248721    1.369623
      3          6           0      -23.910432    1.203535   -2.610850
      4          6           0      -24.769288   -3.588430   -1.997802
      5          6           0      -27.440680   -2.507561    1.846596
      6          7           0      -25.174869    1.570832   -0.543737
      7          6           0      -25.658107    2.523259    0.305849
      8          6           0      -25.080146    3.820177   -0.117595
      9          6           0      -24.373541    3.531980   -1.471117
     10          6           0      -24.495030    1.993795   -1.649170
     11          6           0      -25.058953    4.282425   -2.657076
     12          6           0      -24.182108    4.500067    0.885415
     13          6           0      -23.739360    5.932382    0.633640
     14          1           0      -23.904506    6.883388    1.743704
     15          7           0      -24.393521   -1.142786   -1.975744
     16          6           0      -23.901987   -0.159530   -2.878179
     17          6           0      -23.138411   -0.884230   -3.911318
     18          6           0      -23.474862   -2.227210   -3.762641
     19          6           0      -24.311701   -2.362785   -2.556625
     20          6           0      -22.354892   -0.141959   -4.973688
     21          6           0      -23.029135   -3.451658   -4.590879
     22          8           0      -23.560418   -4.575475   -4.516754
     23          6           0      -21.882502   -3.260460   -5.497532
     24          7           0      -26.069757   -2.799457   -0.159712
     25          6           0      -25.679031   -3.795954   -0.927460
     26          6           0      -26.314207   -5.159734   -0.540523
     27          6           0      -26.938466   -4.807221    0.811415
     28          6           0      -26.772812   -3.305648    0.861989
     29          6           0      -27.371753   -5.623347   -1.598366
     30          6           0      -26.359773   -5.489403    2.030481
     31          6           0      -27.365196   -6.003887    3.075969
     32          7           0      -26.605664   -0.253727    1.322466
     33          6           0      -27.358670   -1.099998    2.106730
     34          6           0      -28.019916   -0.360886    3.224195
     35          6           0      -27.663924    0.929391    2.886951
     36          6           0      -26.872585    0.972995    1.732752
     37          6           0      -28.715115   -0.913699    4.426731
     38          6           0      -27.834545    2.306061    3.327566
     39          8           0      -28.425371    2.704219    4.325113
     40          6           0      -27.059780    3.238839    2.368653
     41          6           0      -27.981112    4.271934    1.969418
     42          8           0      -28.915648    4.169383    1.138606
     43          8           0      -27.603932    5.469395    2.496949
     44          6           0      -28.230803    6.675155    2.001090
     45          1           0      -23.342790    1.819080   -3.311441
     46          1           0      -24.692091   -4.473768   -2.632123
     47          1           0      -28.219617   -3.109488    2.318840
     48          1           0      -25.965439    4.430575   -0.290963
     49          1           0      -23.325914    3.833396   -1.465842
     50          1           0      -24.515514    4.900197   -3.372708
     51          1           0      -25.776841    4.942813   -2.170893
     52          1           0      -25.730506    3.673475   -3.262897
     53          1           0      -23.221780    3.990189    0.964029
     54          1           0      -24.505744    4.319626    1.910128
     55          1           0      -24.291173    6.364723   -0.199692
     56          1           0      -22.651452    5.889453    0.588468
     57          1           0      -22.511869   -0.512091   -5.986618
     58          1           0      -21.278922   -0.125781   -4.801289
     59          1           0      -22.626010    0.907112   -5.094736
     60          1           0      -21.068281   -2.807849   -4.931414
     61          1           0      -22.281150   -2.556051   -6.226763
     62          1           0      -21.549687   -4.257440   -5.783908
     63          1           0      -25.485389   -5.862266   -0.446823
     64          1           0      -28.013260   -4.963734    0.898633
     65          1           0      -28.381957   -5.604896   -1.190477
     66          1           0      -27.202837   -6.657020   -1.900221
     67          1           0      -27.290738   -4.908120   -2.417035
     68          1           0      -25.636028   -4.856592    2.543154
     69          1           0      -25.646617   -6.201475    1.616460
     70          1           0      -26.891367   -6.848753    3.574808
     71          1           0      -28.355688   -6.192330    2.660677
     72          1           0      -27.458778   -5.129946    3.720273
     73          1           0      -28.106601   -0.923820    5.331196
     74          1           0      -29.133253   -1.865886    4.101478
     75          1           0      -29.652897   -0.376706    4.574538
     76          1           0      -26.350325    3.757065    3.013739
     77          1           0      -28.891180    6.526086    1.146403
     78          1           0      -27.484806    7.447089    1.814115
     79          1           0      -28.862275    7.146619    2.754582
     80         12           0       25.317986   -0.579143    0.494822
     81          6           0       25.496407    2.192222   -1.771740
     82          6           0       25.047973    1.539426    2.988883
     83          6           0       25.982797   -3.182009    2.435838
     84          6           0       26.009861   -2.691768   -2.435513
     85          7           0       25.231618    1.616867    0.574600
     86          6           0       25.352845    2.577986   -0.448679
     87          6           0       25.273550    4.065719    0.063667
     88          6           0       25.053426    3.745879    1.667062
     89          6           0       25.092214    2.226160    1.793361
     90          6           0       26.173904    4.413354    2.574510
     91          6           0       24.177691    4.963097   -0.609951
     92          6           0       23.815387    6.240376    0.138346
     93          1           0       24.205240    7.542086   -0.585635
     94          7           0       25.392326   -0.801376    2.458115
     95          6           0       25.235980    0.172894    3.415856
     96          6           0       25.298821   -0.359815    4.760518
     97          6           0       25.565338   -1.772249    4.561460
     98          6           0       25.584015   -1.973529    3.068766
     99          6           0       25.067348    0.368091    6.000255
    100          6           0       25.736861   -2.886289    5.579484
    101          8           0       25.837934   -4.046793    5.295351
    102          6           0       25.863196   -2.421282    7.005934
    103          7           0       25.977234   -2.640393    0.062655
    104          6           0       26.142445   -3.515474    1.086394
    105          6           0       26.460879   -4.938626    0.555027
    106          6           0       26.323873   -4.755478   -0.996495
    107          6           0       26.034169   -3.274972   -1.151937
    108          6           0       27.825330   -5.592138    0.962203
    109          6           0       25.209623   -5.609516   -1.698126
    110          6           0       25.607997   -7.088312   -1.899787
    111          7           0       25.702939   -0.381143   -1.629650
    112          6           0       25.877440   -1.284303   -2.652811
    113          6           0       25.902908   -0.589282   -3.877996
    114          6           0       25.820968    0.728618   -3.625080
    115          6           0       25.717417    0.859013   -2.206956
    116          6           0       25.942851   -1.333123   -5.206545
    117          6           0       25.842243    2.104478   -4.131866
    118          8           0       25.958328    2.523583   -5.254582
    119          6           0       25.650484    3.108573   -2.897390
    120          6           0       26.942237    3.840125   -2.716911
    121          8           0       27.944752    3.566049   -2.096523
    122          8           0       26.772492    5.023371   -3.408100
    123          6           0       27.903428    5.981461   -3.390984
    124          1           0       25.008236    2.163401    3.884033
    125          1           0       26.336890   -3.954970    3.122168
    126          1           0       26.106081   -3.462401   -3.203859
    127          1           0       26.270415    4.498168   -0.023640
    128          1           0       24.102561    4.186462    1.967709
    129          1           0       25.706475    4.872160    3.445640
    130          1           0       26.859902    5.131893    2.126739
    131          1           0       26.798438    3.644434    3.028247
    132          1           0       23.372726    4.232720   -0.701489
    133          1           0       24.317938    5.261371   -1.649155
    134          1           0       24.311844    6.236555    1.108307
    135          1           0       22.729606    6.320378    0.183256
    136          1           0       24.156843   -0.132398    6.329712
    137          1           0       24.964184    1.437446    5.815393
    138          1           0       25.801758    0.265760    6.798917
    139          1           0       24.881332   -2.439632    7.478719
    140          1           0       26.569753   -1.601352    7.137974
    141          1           0       26.576604   -3.128905    7.427391
    142          1           0       25.571138   -5.527248    0.780583
    143          1           0       27.306987   -4.869047   -1.453859
    144          1           0       28.490268   -5.872006    0.144602
    145          1           0       27.560240   -6.559159    1.389051
    146          1           0       28.437342   -5.007334    1.648887
    147          1           0       25.011074   -5.198332   -2.687243
    148          1           0       24.323199   -5.476169   -1.076428
    149          1           0       26.692490   -7.196915   -1.876190
    150          1           0       25.163485   -7.388028   -2.848755
    151          1           0       25.260992   -7.756140   -1.110744
    152          1           0       25.496232   -0.739546   -6.004304
    153          1           0       25.440194   -2.292768   -5.085630
    154          1           0       26.965798   -1.622249   -5.448575
    155          1           0       24.810267    3.785364   -3.054410
    156          1           0       27.950887    6.392390   -4.399364
    157          1           0       28.864046    5.537807   -3.129711
    158          1           0       27.521547    6.687889   -2.653291
 ---------------------------------------------------------------------

 SCF Done:  E(RCAM-B3LYP) =  -4069.82876846     A.U. after   19 cycles

 Excitation energies and oscillator strengths:

 Excited State   1:      Singlet-A      1.6973 eV  730.49 nm  f=0.3948  <S**2>=0.000
     310 -> 316       -0.17776
     311 -> 313        0.68636
     310 <- 316       -0.10766
 This state for optimization and/or second-order correction.
 Total Energy, E(TD-HF/TD-DFT) =  -4069.76639479
 Copying the excited state density for this state as the 1-particle RhoCI density.

 Excited State   2:      Singlet-A      1.7540 eV  706.87 nm  f=0.3808  <S**2>=0.000
     309 -> 315       -0.19893
     312 -> 314        0.68126
     309 <- 315       -0.11271

 Excited State   3:      Singlet-A      2.2114 eV  560.66 nm  f=0.1386  <S**2>=0.000
     310 -> 313        0.65083
     311 -> 316        0.26496

 Excited State   4:      Singlet-A      2.3187 eV  534.70 nm  f=0.0718  <S**2>=0.000
     309 -> 314        0.61703
     312 -> 315        0.33882

 Excited State   5:      Singlet-A      3.1871 eV  389.02 nm  f=0.0000  <S**2>=0.000
     312 -> 313        0.70711

 The electronic state is 1-A.
 Alpha  occ. eigenvalues --  -46.88588 -46.88521 -19.25183 -19.23859 -19.19939
 Alpha  occ. eigenvalues --  -19.19127 -19.19050 -19.18966 -19.18857 -19.18629
 Alpha  occ. eigenvalues --  -14.42208 -14.41927 -14.41338 -14.41123 -14.39786
 Alpha  occ. eigenvalues --  -14.39645 -14.39620 -14.38867 -10.39160 -10.38992
 Alpha  occ. eigenvalues --  -10.35285 -10.35269 -10.34787 -10.34471 -10.31237
 Alpha  occ. eigenvalues --  -10.31221 -10.30930 -10.30883 -10.30771 -10.30628
 Alpha  occ. eigenvalues --  -10.30580 -10.30496 -10.30426 -10.30414 -10.30385
 Alpha  occ. eigenvalues --  -10.30206 -10.30124 -10.30121 -10.30103 -10.29399
 Alpha  occ. eigenvalues --  -10.29107 -10.29055 -10.28925 -10.28877 -10.28781
 Alpha  occ. eigenvalues --  -10.28622 -10.28506 -10.28422 -10.28140 -10.28032
 Alpha  occ. eigenvalues --  -10.28012 -10.27973 -10.27767 -10.27685 -10.27624
 Alpha  occ. eigenvalues --  -10.27558 -10.27347 -10.27244 -10.27202 -10.27099
 Alpha  occ. eigenvalues --  -10.27013 -10.26987 -10.26960 -10.26939 -10.26839
 Alpha  occ. eigenvalues --  -10.26798 -10.26786 -10.26770 -10.26757 -10.26723
 Alpha  occ. eigenvalues --  -10.26306 -10.26236 -10.26172 -10.26115 -10.26004
 Alpha  occ. eigenvalues --  -10.25955 -10.25941 -10.25898 -10.25786 -10.25728
 Alpha  occ. eigenvalues --  -10.25716 -10.25617 -10.25582 -10.25567 -10.24725
 Alpha  occ. eigenvalues --  -10.24626  -3.17131  -3.17127  -1.92036  -1.92028
 Alpha  occ. eigenvalues --   -1.91574  -1.91568  -1.91456  -1.91439  -1.16131
 Alpha  occ. eigenvalues --   -1.15723  -1.11384  -1.10809  -1.09494  -1.09082
 Alpha  occ. eigenvalues --   -1.07483  -1.05978  -1.05788  -1.04599  -1.03825
 Alpha  occ. eigenvalues --   -1.03315  -1.03096  -1.02521  -1.02202  -1.01610
 Alpha  occ. eigenvalues --   -0.93184  -0.93033  -0.90112  -0.89337  -0.88948
 Alpha  occ. eigenvalues --   -0.88497  -0.88267  -0.88141  -0.87610  -0.87165
 Alpha  occ. eigenvalues --   -0.87101  -0.86863  -0.86645  -0.86040  -0.84694
 Alpha  occ. eigenvalues --   -0.84086  -0.83913  -0.83209  -0.82954  -0.82626
 Alpha  occ. eigenvalues --   -0.82195  -0.82067  -0.81263  -0.80899  -0.80727
 Alpha  occ. eigenvalues --   -0.80094  -0.78688  -0.78131  -0.77740  -0.77462
 Alpha  occ. eigenvalues --   -0.76992  -0.76660  -0.76594  -0.75561  -0.75266
 Alpha  occ. eigenvalues --   -0.74836  -0.73010  -0.72788  -0.71974  -0.71340
 Alpha  occ. eigenvalues --   -0.69661  -0.69564  -0.69283  -0.68768  -0.68105
 Alpha  occ. eigenvalues --   -0.67740  -0.66975  -0.66551  -0.66441  -0.65430
 Alpha  occ. eigenvalues --   -0.65128  -0.65062  -0.64626  -0.64579  -0.64432
 Alpha  occ. eigenvalues --   -0.63907  -0.62562  -0.61477  -0.60429  -0.60098
 Alpha  occ. eigenvalues --   -0.59924  -0.59509  -0.59491  -0.58838  -0.58796
 Alpha  occ. eigenvalues --   -0.58414  -0.58349  -0.57860  -0.57631  -0.56891
 Alpha  occ. eigenvalues --   -0.56486  -0.56147  -0.55787  -0.55770  -0.55537
 Alpha  occ. eigenvalues --   -0.55019  -0.54482  -0.54458  -0.54298  -0.54148
 Alpha  occ. eigenvalues --   -0.54050  -0.53912  -0.53677  -0.53507  -0.53187
 Alpha  occ. eigenvalues --   -0.52987  -0.52676  -0.52395  -0.51991  -0.51967
 Alpha  occ. eigenvalues --   -0.51900  -0.51707  -0.51639  -0.51355  -0.51230
 Alpha  occ. eigenvalues --   -0.51013  -0.50809  -0.50560  -0.50505  -0.50312
 Alpha  occ. eigenvalues --   -0.50207  -0.49950  -0.49819  -0.49692  -0.49671
 Alpha  occ. eigenvalues --   -0.49501  -0.49172  -0.49097  -0.48846  -0.48660
 Alpha  occ. eigenvalues --   -0.48424  -0.48401  -0.48361  -0.47987  -0.47977
 Alpha  occ. eigenvalues --   -0.47830  -0.47820  -0.47766  -0.47382  -0.47253
 Alpha  occ. eigenvalues --   -0.47071  -0.47024  -0.46772  -0.46559  -0.46356
 Alpha  occ. eigenvalues --   -0.46250  -0.46062  -0.45910  -0.45762  -0.45591
 Alpha  occ. eigenvalues --   -0.45464  -0.45318  -0.45193  -0.45159  -0.45073
 Alpha  occ. eigenvalues --   -0.45058  -0.44862  -0.44735  -0.44546  -0.43998
 Alpha  occ. eigenvalues --   -0.43980  -0.43879  -0.43830  -0.43726  -0.43494
 Alpha  occ. eigenvalues --   -0.43437  -0.43203  -0.43169  -0.42777  -0.42567
 Alpha  occ. eigenvalues --   -0.42518  -0.42453  -0.42089  -0.42061  -0.41834
 Alpha  occ. eigenvalues --   -0.41771  -0.41700  -0.41636  -0.41582  -0.41254
 Alpha  occ. eigenvalues --   -0.41134  -0.41087  -0.40965  -0.40887  -0.40794
 Alpha  occ. eigenvalues --   -0.40492  -0.40140  -0.39953  -0.39358  -0.38833
 Alpha  occ. eigenvalues --   -0.38807  -0.38119  -0.37930  -0.37771  -0.37060
 Alpha  occ. eigenvalues --   -0.37028  -0.36560  -0.36360  -0.36086  -0.36021
 Alpha  occ. eigenvalues --   -0.35751  -0.35662  -0.34656  -0.33955  -0.33832
 Alpha  occ. eigenvalues --   -0.33553  -0.33027  -0.32609  -0.31584  -0.31330
 Alpha  occ. eigenvalues --   -0.31065  -0.30849  -0.30608  -0.30587  -0.30559
 Alpha  occ. eigenvalues --   -0.30281  -0.30128  -0.29759  -0.24092  -0.23606
 Alpha  occ. eigenvalues --   -0.20979  -0.20931
 Alpha virt. eigenvalues --   -0.08551  -0.08168  -0.01811  -0.01148   0.00730
 Alpha virt. eigenvalues --    0.00863   0.02448   0.02501   0.02658   0.03000
 Alpha virt. eigenvalues --    0.04539   0.04926   0.05504   0.05834   0.06109

 Mulliken charges:
               1
     1  Mg  11.999995
     2  C    5.999997
     3  C    5.999926
     4  C    5.999995
     5  C    6.000048
     6  N    7.000041
     7  C    5.999951
     8  C    6.000031
     9  C    5.999957
    10  C    6.000111
    11  C    5.999962
    12  C    6.000013
    13  C    6.000000
    14  H    0.999991
    15  N    6.999973
    16  C    6.000233
    17  C    6.000013
    18  C    6.000093
    19  C    6.000096
    20  C    5.999950
    21  C    6.000070
    22  O    8.000105
    23  C    5.999985
    24  N    6.999964
    25  C    6.000064
    26  C    5.999981
    27  C    6.000042
    28  C    5.999864
    29  C    5.999986
    30  C    6.000040
    31  C    5.999999
    32  N    6.999985
    33  C    5.999816
    34  C    5.999922
    35  C    5.999988
    36  C    5.999901
    37  C    6.000035
    38  C    5.999887
    39  O    7.999893
    40  C    6.000048
    41  C    5.999979
    42  O    7.999991
    43  O    7.999988
    44  C    6.000010
    45  H    1.000067
    46  H    1.000002
    47  H    0.999944
    48  H    1.000017
    49  H    1.000018
    50  H    1.000035
    51  H    1.000053
    52  H    1.000010
    53  H    0.999963
    54  H    1.000016
    55  H    1.000004
    56  H    0.999984
    57  H    1.000095
    58  H    1.000089
    59  H    1.000076
    60  H    1.000025
    61  H    1.000040
    62  H    1.000074
    63  H    0.999983
    64  H    0.999994
    65  H    1.000042
    66  H    1.000010
    67  H    0.999990
    68  H    0.999976
    69  H    0.999943
    70  H    0.999958
    71  H    0.999994
    72  H    1.000016
    73  H    0.999891
    74  H    0.999937
    75  H    0.999925
    76  H    0.999957
    77  H    0.999995
    78  H    0.999977
    79  H    0.999981
    80  Mg  11.999518
    81  C    6.030242
    82  C    5.986695
    83  C    5.977977
    84  C    6.015649
    85  N    7.010353
    86  C    5.965094
    87  C    6.017255
    88  C    5.984888
    89  C    6.030152
    90  C    5.999533
    91  C    6.002255
    92  C    5.998933
    93  H    1.000019
    94  N    6.991645
    95  C    6.047006
    96  C    6.016120
    97  C    6.020793
    98  C    6.033902
    99  C    5.993429
   100  C    6.014926
   101  O    8.030441
   102  C    5.990238
   103  N    6.998479
   104  C    6.036238
   105  C    5.986512
   106  C    6.010793
   107  C    5.967473
   108  C    5.999280
   109  C    6.007244
   110  C    5.998338
   111  N    7.004147
   112  C    5.960004
   113  C    5.972146
   114  C    5.997880
   115  C    5.954460
   116  C    6.002050
   117  C    5.982414
   118  O    7.969580
   119  C    5.992316
   120  C    6.000697
   121  O    7.991968
   122  O    7.999200
   123  C    6.002352
   124  H    1.009498
   125  H    1.004380
   126  H    0.988768
   127  H    0.994380
   128  H    1.004784
   129  H    1.000146
   130  H    1.012432
   131  H    0.993753
   132  H    0.998348
   133  H    1.004837
   134  H    0.992197
   135  H    0.997428
   136  H    1.018504
   137  H    1.019469
   138  H    1.020791
   139  H    1.011406
   140  H    1.007185
   141  H    1.015669
   142  H    1.000610
   143  H    1.000283
   144  H    1.009849
   145  H    1.001061
   146  H    0.995205
   147  H    1.005783
   148  H    0.990384
   149  H    0.996922
   150  H    1.000034
   151  H    0.992491
   152  H    0.984317
   153  H    0.981627
   154  H    0.977909
   155  H    0.991492
   156  H    0.997292
   157  H    0.996633
   158  H    0.993501
 Sum of Mulliken charges = 624.00000

 Dipole moment (field-independent basis, Debye):
    X=             -0.5717    Y=             -1.5396    Z=             10.9537  Tot=             11.0761
 Quadrupole moment (field-independent basis, Debye-Ang):
   XX=            -31.8051   YY=             -2.5480   ZZ=             11.9688
   XY=            -40.5946   XZ=            283.3376   YZ=             -6.6059

 Normal termination of Gaussian 16 at Thu Sep 23 00:31:02 2021.
