 Gaussian 16, Revision A.03,
 Gaussian 16:  ES64L-G16RevA.03 25-Dec-2016

 -----------------------------------
 #p cam-b3lyp/Def2SVP td=(nstates=5)
 -----------------------------------

 --------------------------------
 TDDFT excited states in gaussian
 --------------------------------
 Symbolic Z-matrix:
 Charge =  0 Multiplicity = 1

                         Standard orientation:
 ---------------------------------------------------------------------
 Center     Atomic      Atomic             Coordinates (Angstroms)
 Number     Number       Type             X           Y           Z
 ---------------------------------------------------------------------
      1         12           0      -16.930742    0.639938    0.319291
      2          6           0      -16.071482   -1.977066   -1.935711
      3          6           0      -14.257674    2.437792   -0.882797
      4          6           0      -17.839973    2.932004    2.518976
      5          6           0      -19.362424   -1.538046    1.823496
      6          7           0      -15.244705    0.244077   -1.234873
      7          6           0      -15.224117   -0.863583   -2.062507
      8          6           0      -14.036411   -0.638674   -3.059922
      9          6           0      -13.400749    0.805506   -2.689422
     10          6           0      -14.338270    1.173419   -1.534873
     11          6           0      -11.888650    0.824057   -2.383323
     12          6           0      -14.334681   -0.867035   -4.599297
     13          6           0      -13.489353   -1.904877   -5.278677
     14          1           0      -12.092921   -2.261290   -4.841929
     15          7           0      -16.196806    2.573560    0.686619
     16          6           0      -15.093962    3.102268    0.093324
     17          6           0      -15.043267    4.479179    0.512963
     18          6           0      -15.985004    4.616906    1.555452
     19          6           0      -16.749913    3.333804    1.681564
     20          6           0      -13.962097    5.416332   -0.051198
     21          6           0      -16.132985    5.776679    2.493112
     22          8           0      -16.929019    5.740357    3.461233
     23          6           0      -15.277898    6.975095    2.308542
     24          7           0      -18.390139    0.608540    1.994800
     25          6           0      -18.604026    1.688609    2.662137
     26          6           0      -19.806033    1.655144    3.748980
     27          6           0      -20.264455    0.206684    3.521020
     28          6           0      -19.340528   -0.274228    2.429021
     29          6           0      -19.231178    1.962767    5.180081
     30          6           0      -21.772783   -0.008642    3.145709
     31          6           0      -22.198388    0.415027    1.719844
     32          7           0      -17.477263   -1.318534    0.103185
     33          6           0      -18.461926   -2.044599    0.813738
     34          6           0      -18.580849   -3.369119    0.189055
     35          6           0      -17.670036   -3.379884   -0.894535
     36          6           0      -17.047073   -2.086814   -0.934558
     37          6           0      -19.562543   -4.493990    0.634642
     38          6           0      -17.226014   -4.174614   -1.913250
     39          8           0      -17.471975   -5.323374   -2.219915
     40          6           0      -16.200581   -3.321696   -2.711183
     41          6           0      -14.966204   -4.065686   -2.810764
     42          8           0      -14.055035   -4.036136   -1.975855
     43          8           0      -15.057364   -4.992613   -3.855916
     44          6           0      -13.919700   -5.942450   -3.930849
     45          1           0      -13.321766    2.990872   -0.989551
     46          1           0      -18.015444    3.631502    3.339056
     47          1           0      -20.089028   -2.238450    2.240437
     48          1           0      -13.442002   -1.509134   -2.785317
     49          1           0      -13.484875    1.457837   -3.557473
     50          1           0      -11.373196    1.534497   -3.030873
     51          1           0      -11.365719   -0.130899   -2.432473
     52          1           0      -11.838011    1.162681   -1.348492
     53          1           0      -14.241552    0.074517   -5.140862
     54          1           0      -15.359179   -1.237088   -4.639618
     55          1           0      -13.189211   -1.475375   -6.235133
     56          1           0      -14.085519   -2.812297   -5.368258
     57          1           0      -13.510290    5.021255   -0.961370
     58          1           0      -13.187131    5.574718    0.697664
     59          1           0      -14.493046    6.343674   -0.263800
     60          1           0      -15.466544    7.344842    1.300654
     61          1           0      -14.218725    6.720244    2.361233
     62          1           0      -15.460995    7.703088    3.097835
     63          1           0      -20.596870    2.358852    3.488058
     64          1           0      -19.950238   -0.410626    4.362936
     65          1           0      -18.198522    1.614825    5.204207
     66          1           0      -19.792578    1.371524    5.904378
     67          1           0      -19.239731    2.997432    5.523827
     68          1           0      -22.409720    0.391194    3.934089
     69          1           0      -21.984855   -1.071896    3.253597
     70          1           0      -21.672722    1.262902    1.281936
     71          1           0      -23.280473    0.550922    1.716947
     72          1           0      -22.029456   -0.468444    1.104376
     73          1           0      -20.137060   -4.913550   -0.191255
     74          1           0      -20.242267   -4.183915    1.427522
     75          1           0      -18.989640   -5.394753    0.856320
     76          1           0      -16.690066   -3.246773   -3.681653
     77          1           0      -13.940695   -6.632671   -3.087876
     78          1           0      -12.937067   -5.474267   -3.885869
     79          1           0      -13.935175   -6.358432   -4.938379
     80         12           0       16.682655    0.433538   -0.701971
     81          6           0       16.874316   -2.812765    0.659408
     82          6           0       13.290164    0.133847   -0.610577
     83          6           0       16.490427    3.795935   -1.284030
     84          6           0       20.202729    0.625388   -0.180159
     85          7           0       15.224633   -1.139828    0.098347
     86          6           0       15.478737   -2.430919    0.462990
     87          6           0       14.205233   -3.174304    0.901682
     88          6           0       13.155719   -2.268206    0.089261
     89          6           0       13.937629   -1.003344   -0.164381
     90          6           0       12.622497   -2.878098   -1.234837
     91          6           0       13.916636   -3.128537    2.469482
     92          6           0       13.058987   -4.219594    3.091686
     93          1           0       11.642332   -3.940809    3.637481
     94          7           0       15.108127    1.872924   -0.971459
     95          6           0       13.803577    1.476155   -1.025705
     96          6           0       12.981885    2.510932   -1.475790
     97          6           0       13.878403    3.618771   -1.718953
     98          6           0       15.235688    3.165958   -1.302194
     99          6           0       11.474332    2.409708   -1.674393
    100          6           0       13.401759    4.946118   -2.263958
    101          8           0       12.182551    5.106286   -2.529646
    102          6           0       14.361990    6.131223   -2.633020
    103          7           0       18.147989    1.910726   -0.718643
    104          6           0       17.813488    3.256761   -1.028664
    105          6           0       19.061353    4.037774   -1.333869
    106          6           0       20.196729    3.213851   -0.688631
    107          6           0       19.536394    1.808374   -0.581668
    108          6           0       19.465375    4.299353   -2.802450
    109          6           0       20.589022    3.755436    0.785437
    110          6           0       21.572009    4.911107    0.896820
    111          7           0       18.239882   -0.919392   -0.086192
    112          6           0       19.601447   -0.702557    0.063287
    113          6           0       20.242134   -1.813281    0.579215
    114          6           0       19.201885   -2.733687    0.793566
    115          6           0       18.000787   -2.124701    0.392598
    116          6           0       21.713758   -1.924533    0.825058
    117          6           0       18.927696   -4.024173    1.151186
    118          8           0       19.680418   -4.945649    1.398347
    119          6           0       17.394155   -4.038568    1.322840
    120          6           0       17.173144   -4.105826    2.804533
    121          8           0       17.590174   -3.302026    3.579172
    122          8           0       16.485045   -5.274064    3.137070
    123          6           0       16.398142   -5.467433    4.542783
    124          1           0       12.220649    0.010728   -0.794732
    125          1           0       16.509569    4.820396   -1.662812
    126          1           0       21.290990    0.713097   -0.181468
    127          1           0       14.129435   -4.167544    0.460418
    128          1           0       12.288444   -2.149231    0.738114
    129          1           0       11.659396   -3.289653   -0.931604
    130          1           0       13.247130   -3.695494   -1.594915
    131          1           0       12.459926   -2.111879   -1.993024
    132          1           0       13.384824   -2.213615    2.730794
    133          1           0       14.887677   -3.041887    2.957483
    134          1           0       13.676268   -4.603974    3.904965
    135          1           0       12.978329   -5.021289    2.357777
    136          1           0       11.001862    2.937178   -2.503714
    137          1           0       11.169673    2.742990   -0.682595
    138          1           0       11.199543    1.381748   -1.910898
    139          1           0       15.034061    5.817549   -3.431329
    140          1           0       14.854759    6.332013   -1.681926
    141          1           0       13.884325    7.083970   -2.861127
    142          1           0       18.974849    4.975739   -0.786342
    143          1           0       21.096472    3.196150   -1.303761
    144          1           0       20.373740    3.794178   -3.130270
    145          1           0       19.245639    5.325564   -3.097646
    146          1           0       18.703469    3.771933   -3.376186
    147          1           0       21.002377    2.842058    1.212724
    148          1           0       19.697308    4.044794    1.341832
    149          1           0       21.135949    5.691501    1.519883
    150          1           0       21.768982    5.311821   -0.097917
    151          1           0       22.492392    4.603535    1.393880
    152          1           0       21.818280   -2.299635    1.842720
    153          1           0       22.217008   -0.956971    0.811263
    154          1           0       22.204842   -2.626055    0.150446
    155          1           0       17.010475   -4.936602    0.839893
    156          1           0       17.234604   -6.079047    4.879850
    157          1           0       15.554805   -6.089760    4.844515
    158          1           0       16.406548   -4.528094    5.093020
 ---------------------------------------------------------------------

 SCF Done:  E(RCAM-B3LYP) =  -4069.78423615     A.U. after   19 cycles

 Excitation energies and oscillator strengths:

 Excited State   1:      Singlet-A      1.7066 eV  726.51 nm  f=0.3960  <S**2>=0.000
     309 -> 315       -0.18529
     311 -> 313        0.68227
     309 <- 315       -0.10817
 This state for optimization and/or second-order correction.
 Total Energy, E(TD-HF/TD-DFT) =  -4069.72152041
 Copying the excited state density for this state as the 1-particle RhoCI density.

 Excited State   2:      Singlet-A      1.7538 eV  706.96 nm  f=0.3798  <S**2>=0.000
     310 -> 316        0.18837
     312 -> 314        0.68179
     310 <- 316        0.10755

 Excited State   3:      Singlet-A      2.1433 eV  578.47 nm  f=0.1308  <S**2>=0.000
     309 -> 313        0.65035
     311 -> 315        0.26009

 Excited State   4:      Singlet-A      2.2094 eV  561.17 nm  f=0.1088  <S**2>=0.000
     310 -> 314        0.64206
     312 -> 316       -0.28091

 Excited State   5:      Singlet-A      2.8821 eV  430.19 nm  f=0.0000  <S**2>=0.000
     312 -> 313        0.70709

 The electronic state is 1-A.
 Alpha  occ. eigenvalues --  -46.90340 -46.89806 -19.25412 -19.24261 -19.20944
 Alpha  occ. eigenvalues --  -19.19285 -19.18759 -19.18119 -19.17916 -19.17515
 Alpha  occ. eigenvalues --  -14.43203 -14.42696 -14.42664 -14.41871 -14.39848
 Alpha  occ. eigenvalues --  -14.39753 -14.39666 -14.39232 -10.39720 -10.38603
 Alpha  occ. eigenvalues --  -10.35057 -10.35053 -10.33380 -10.33290 -10.32427
 Alpha  occ. eigenvalues --  -10.32353 -10.31892 -10.31707 -10.31663 -10.31406
 Alpha  occ. eigenvalues --  -10.31089 -10.31005 -10.30967 -10.30886 -10.30783
 Alpha  occ. eigenvalues --  -10.30740 -10.30253 -10.30190 -10.29974 -10.29842
 Alpha  occ. eigenvalues --  -10.29348 -10.29257 -10.29115 -10.28814 -10.28765
 Alpha  occ. eigenvalues --  -10.28365 -10.28350 -10.28331 -10.28238 -10.28093
 Alpha  occ. eigenvalues --  -10.28088 -10.28076 -10.28047 -10.27985 -10.27975
 Alpha  occ. eigenvalues --  -10.27972 -10.27970 -10.27934 -10.27890 -10.27867
 Alpha  occ. eigenvalues --  -10.27693 -10.27680 -10.27576 -10.27474 -10.27439
 Alpha  occ. eigenvalues --  -10.27395 -10.27359 -10.27324 -10.27217 -10.27124
 Alpha  occ. eigenvalues --  -10.27014 -10.26613 -10.26589 -10.26518 -10.26508
 Alpha  occ. eigenvalues --  -10.26400 -10.26340 -10.26318 -10.26107 -10.25990
 Alpha  occ. eigenvalues --  -10.25963 -10.25874 -10.25861 -10.25686 -10.24192
 Alpha  occ. eigenvalues --  -10.23886  -3.18631  -3.18142  -1.93530  -1.93079
 Alpha  occ. eigenvalues --   -1.93056  -1.92929  -1.92632  -1.92398  -1.17661
 Alpha  occ. eigenvalues --   -1.14347  -1.10068  -1.09531  -1.09237  -1.08450
 Alpha  occ. eigenvalues --   -1.07353  -1.06303  -1.06099  -1.05782  -1.04677
 Alpha  occ. eigenvalues --   -1.03950  -1.03687  -1.03021  -1.01943  -1.01691
 Alpha  occ. eigenvalues --   -0.94368  -0.92271  -0.89737  -0.88992  -0.88750
 Alpha  occ. eigenvalues --   -0.88709  -0.88272  -0.87815  -0.87593  -0.87240
 Alpha  occ. eigenvalues --   -0.87129  -0.86780  -0.85940  -0.85465  -0.84414
 Alpha  occ. eigenvalues --   -0.84310  -0.83663  -0.83362  -0.82941  -0.82528
 Alpha  occ. eigenvalues --   -0.82210  -0.81918  -0.80722  -0.80663  -0.80381
 Alpha  occ. eigenvalues --   -0.80036  -0.78309  -0.78100  -0.77567  -0.77417
 Alpha  occ. eigenvalues --   -0.76979  -0.76432  -0.75994  -0.75722  -0.75721
 Alpha  occ. eigenvalues --   -0.74966  -0.73641  -0.72512  -0.72285  -0.71547
 Alpha  occ. eigenvalues --   -0.70455  -0.69518  -0.69026  -0.68507  -0.68461
 Alpha  occ. eigenvalues --   -0.67828  -0.67195  -0.66901  -0.66339  -0.65396
 Alpha  occ. eigenvalues --   -0.65304  -0.64894  -0.64780  -0.64632  -0.64249
 Alpha  occ. eigenvalues --   -0.64224  -0.62839  -0.61408  -0.60554  -0.60215
 Alpha  occ. eigenvalues --   -0.60185  -0.59641  -0.59492  -0.59217  -0.59054
 Alpha  occ. eigenvalues --   -0.58594  -0.58119  -0.58093  -0.57929  -0.57512
 Alpha  occ. eigenvalues --   -0.56535  -0.56269  -0.56009  -0.55810  -0.55336
 Alpha  occ. eigenvalues --   -0.55259  -0.55115  -0.54937  -0.53875  -0.53583
 Alpha  occ. eigenvalues --   -0.53583  -0.53228  -0.53225  -0.53004  -0.52828
 Alpha  occ. eigenvalues --   -0.52823  -0.52635  -0.52616  -0.52311  -0.52011
 Alpha  occ. eigenvalues --   -0.51859  -0.51540  -0.51470  -0.51277  -0.51251
 Alpha  occ. eigenvalues --   -0.50848  -0.50796  -0.50643  -0.50440  -0.50181
 Alpha  occ. eigenvalues --   -0.49861  -0.49839  -0.49774  -0.49496  -0.49381
 Alpha  occ. eigenvalues --   -0.49235  -0.49201  -0.49029  -0.48939  -0.48850
 Alpha  occ. eigenvalues --   -0.48844  -0.48561  -0.48468  -0.47969  -0.47967
 Alpha  occ. eigenvalues --   -0.47916  -0.47495  -0.47374  -0.47303  -0.47258
 Alpha  occ. eigenvalues --   -0.47034  -0.46724  -0.46629  -0.46598  -0.46502
 Alpha  occ. eigenvalues --   -0.46430  -0.46377  -0.46150  -0.46053  -0.45816
 Alpha  occ. eigenvalues --   -0.45808  -0.45474  -0.45312  -0.45108  -0.44918
 Alpha  occ. eigenvalues --   -0.44745  -0.44624  -0.44586  -0.44212  -0.43879
 Alpha  occ. eigenvalues --   -0.43796  -0.43768  -0.43733  -0.43431  -0.43362
 Alpha  occ. eigenvalues --   -0.43287  -0.43190  -0.42969  -0.42712  -0.42616
 Alpha  occ. eigenvalues --   -0.42525  -0.42464  -0.42352  -0.42215  -0.41851
 Alpha  occ. eigenvalues --   -0.41814  -0.41575  -0.41568  -0.41360  -0.41351
 Alpha  occ. eigenvalues --   -0.41244  -0.41222  -0.41130  -0.41043  -0.40576
 Alpha  occ. eigenvalues --   -0.40535  -0.40335  -0.40106  -0.39765  -0.39422
 Alpha  occ. eigenvalues --   -0.39105  -0.38517  -0.37834  -0.37673  -0.37159
 Alpha  occ. eigenvalues --   -0.36978  -0.36929  -0.36617  -0.36608  -0.36352
 Alpha  occ. eigenvalues --   -0.36088  -0.35523  -0.35483  -0.35081  -0.33923
 Alpha  occ. eigenvalues --   -0.33662  -0.33438  -0.33034  -0.31471  -0.31301
 Alpha  occ. eigenvalues --   -0.31191  -0.30471  -0.30316  -0.30061  -0.29952
 Alpha  occ. eigenvalues --   -0.29951  -0.29546  -0.29545  -0.24348  -0.23778
 Alpha  occ. eigenvalues --   -0.22062  -0.21232
 Alpha virt. eigenvalues --   -0.09617  -0.08528  -0.02506  -0.01772  -0.00105
 Alpha virt. eigenvalues --    0.00155   0.01397   0.02336   0.02572   0.02596
 Alpha virt. eigenvalues --    0.04276   0.05020   0.05131   0.05486   0.05551

 Mulliken charges:
               1
     1  Mg   0.811798
     2  C    0.029208
     3  C   -0.077353
     4  C   -0.042148
     5  C   -0.081033
     6  N   -0.244497
     7  C   -0.056769
     8  C   -0.021344
     9  C   -0.055012
    10  C    0.051349
    11  C    0.065147
    12  C    0.043249
    13  C   -0.087137
    14  H    0.017139
    15  N   -0.402007
    16  C    0.117243
    17  C   -0.164243
    18  C   -0.023758
    19  C    0.133601
    20  C    0.120917
    21  C   -0.011719
    22  O   -0.230998
    23  C    0.068113
    24  N   -0.203179
    25  C   -0.004688
    26  C   -0.058837
    27  C    0.082977
    28  C   -0.064807
    29  C    0.045408
    30  C    0.013635
    31  C    0.021066
    32  N   -0.385613
    33  C    0.134149
    34  C   -0.166541
    35  C    0.054406
    36  C    0.106891
    37  C    0.127414
    38  C   -0.040201
    39  O   -0.163525
    40  C    0.002735
    41  C    0.206318
    42  O   -0.235956
    43  O   -0.349703
    44  C    0.191056
    45  H   -0.014062
    46  H    0.003614
    47  H   -0.032117
    48  H    0.035317
    49  H    0.018455
    50  H    0.012754
    51  H    0.029345
    52  H    0.013556
    53  H    0.007459
    54  H    0.011998
    55  H    0.024960
    56  H    0.041430
    57  H    0.024827
    58  H    0.041322
    59  H    0.023681
    60  H    0.030389
    61  H    0.029354
    62  H    0.031588
    63  H    0.025050
    64  H    0.007611
    65  H    0.023942
    66  H    0.014056
    67  H    0.042031
    68  H    0.005563
    69  H    0.000340
    70  H    0.029215
    71  H    0.017363
    72  H    0.017705
    73  H    0.021131
    74  H    0.010603
    75  H    0.028598
    76  H    0.044037
    77  H    0.045775
    78  H    0.025247
    79  H    0.035118
    80  Mg   0.815285
    81  C    0.014460
    82  C   -0.065263
    83  C   -0.076286
    84  C   -0.071961
    85  N   -0.233133
    86  C   -0.080871
    87  C    0.006781
    88  C   -0.104059
    89  C    0.065307
    90  C    0.076809
    91  C    0.039666
    92  C   -0.043191
    93  H    0.028253
    94  N   -0.343526
    95  C    0.106386
    96  C   -0.141777
    97  C   -0.040993
    98  C    0.143944
    99  C    0.134043
   100  C   -0.011096
   101  O   -0.243106
   102  C    0.048404
   103  N   -0.357498
   104  C    0.064219
   105  C   -0.039294
   106  C   -0.064018
   107  C    0.055459
   108  C    0.104246
   109  C    0.008793
   110  C    0.034458
   111  N   -0.298990
   112  C    0.103995
   113  C   -0.159967
   114  C    0.083495
   115  C    0.089615
   116  C    0.137605
   117  C   -0.048530
   118  O   -0.168299
   119  C   -0.001945
   120  C    0.189503
   121  O   -0.180549
   122  O   -0.329006
   123  C    0.162210
   124  H   -0.027422
   125  H   -0.039905
   126  H   -0.015027
   127  H    0.002633
   128  H    0.015795
   129  H    0.016390
   130  H    0.021306
   131  H    0.022285
   132  H    0.019954
   133  H    0.022637
   134  H    0.026619
   135  H    0.021135
   136  H    0.045557
   137  H    0.041257
   138  H    0.008729
   139  H    0.046354
   140  H    0.030962
   141  H    0.024752
   142  H    0.004638
   143  H    0.002863
   144  H    0.027603
   145  H    0.021382
   146  H   -0.005831
   147  H    0.000867
   148  H    0.012709
   149  H    0.013746
   150  H    0.012274
   151  H    0.020680
   152  H    0.032791
   153  H    0.002699
   154  H    0.040564
   155  H    0.015336
   156  H    0.028781
   157  H    0.030611
   158  H    0.044700
 Sum of Mulliken charges =  -0.00000

 Dipole moment (field-independent basis, Debye):
    X=              0.8654    Y=              5.4700    Z=             -2.0436  Tot=              5.9031
 Quadrupole moment (field-independent basis, Debye-Ang):
   XX=           -486.2636   YY=           -537.8202   ZZ=           -502.5211
   XY=              1.3585   XZ=            -40.0155   YZ=            -14.7888

 Normal termination of Gaussian 16 at Wed Sep 15 06:01:43 2021.
