 Gaussian 16, Revision A.03,
 Gaussian 16:  ES64L-G16RevA.03 25-Dec-2016

 ----------------------------------------------------------
 #p cam-b3lyp/Def2SVP td=(nstates=5) density=(transition=1)
 ----------------------------------------------------------

 --------------------------------
 TDDFT excited states in gaussian
 --------------------------------
 Symbolic Z-matrix:
 Charge =  0 Multiplicity = 1

                         Standard orientation:
 ---------------------------------------------------------------------
 Center     Atomic      Atomic             Coordinates (Angstroms)
 Number     Number       Type             X           Y           Z
 ---------------------------------------------------------------------
      1         12           0      -24.760467   -0.402422   -0.172652
      2          6           0      -23.470643    2.628281   -0.952338
      3          6           0      -25.086766    0.588665    3.140356
      4          6           0      -26.044751   -3.435996    0.608059
      5          6           0      -23.984870   -1.550317   -3.345006
      6          7           0      -24.419703    1.407886    0.847259
      7          6           0      -23.852092    2.545262    0.372303
      8          6           0      -23.922834    3.679923    1.360706
      9          6           0      -24.180156    2.946120    2.731410
     10          6           0      -24.624705    1.544957    2.197670
     11          6           0      -23.054207    2.914955    3.847667
     12          6           0      -25.128989    4.672047    1.037230
     13          6           0      -24.895319    6.101358    1.609336
     14          1           0      -24.019647    6.346740    2.849550
     15          7           0      -25.413937   -1.376766    1.647241
     16          6           0      -25.465677   -0.739004    2.914434
     17          6           0      -26.000288   -1.647617    3.883408
     18          6           0      -26.281571   -2.864722    3.166130
     19          6           0      -25.916224   -2.557515    1.737127
     20          6           0      -26.277050   -1.305227    5.305344
     21          6           0      -26.855596   -4.179563    3.681949
     22          8           0      -26.968783   -5.248609    3.013285
     23          6           0      -27.327792   -4.271461    5.123055
     24          7           0      -24.924146   -2.245521   -1.180267
     25          6           0      -25.674167   -3.326304   -0.713844
     26          6           0      -26.033107   -4.382761   -1.798431
     27          6           0      -25.354679   -3.655055   -3.089926
     28          6           0      -24.742757   -2.412826   -2.554096
     29          6           0      -25.396933   -5.726144   -1.418896
     30          6           0      -26.291638   -3.439784   -4.241747
     31          6           0      -25.808863   -4.046044   -5.528345
     32          7           0      -23.841719    0.227072   -1.782007
     33          6           0      -23.595836   -0.298357   -3.044440
     34          6           0      -22.928318    0.656428   -3.849271
     35          6           0      -22.793774    1.843994   -3.081003
     36          6           0      -23.455943    1.583980   -1.862618
     37          6           0      -22.469073    0.537948   -5.251759
     38          6           0      -22.198553    3.161675   -3.037841
     39          8           0      -21.500155    3.815410   -3.787728
     40          6           0      -22.714498    3.726248   -1.630153
     41          6           0      -21.671634    4.510336   -0.918230
     42          8           0      -20.508455    4.220429   -0.800838
     43          8           0      -22.130395    5.663420   -0.407205
     44          6           0      -21.107610    6.462840    0.325497
     45          1           0      -24.983874    0.936052    4.170620
     46          1           0      -26.334671   -4.446630    0.902764
     47          1           0      -23.809214   -1.794778   -4.394620
     48          1           0      -22.960431    4.172359    1.498928
     49          1           0      -25.079469    3.367450    3.179502
     50          1           0      -22.236511    3.545529    3.498401
     51          1           0      -22.654640    1.943971    4.135984
     52          1           0      -23.513178    3.298242    4.759203
     53          1           0      -26.003105    4.174663    1.457872
     54          1           0      -25.219550    4.724460   -0.047805
     55          1           0      -25.913402    6.439156    1.803852
     56          1           0      -24.567737    6.712836    0.768987
     57          1           0      -27.215886   -0.784528    5.494180
     58          1           0      -25.418276   -0.719552    5.630951
     59          1           0      -26.164935   -2.153131    5.980407
     60          1           0      -26.435650   -4.473231    5.715712
     61          1           0      -27.981879   -5.142736    5.146488
     62          1           0      -27.802296   -3.362948    5.494352
     63          1           0      -27.116627   -4.495495   -1.759427
     64          1           0      -24.556380   -4.296178   -3.465321
     65          1           0      -24.705298   -5.704747   -0.576447
     66          1           0      -24.987223   -6.187828   -2.316963
     67          1           0      -26.216133   -6.348163   -1.057039
     68          1           0      -26.430315   -2.388131   -4.492882
     69          1           0      -27.305758   -3.804510   -4.078050
     70          1           0      -26.569758   -4.640048   -6.033797
     71          1           0      -24.956275   -4.703942   -5.362027
     72          1           0      -25.418689   -3.197219   -6.090684
     73          1           0      -22.169627   -0.459372   -5.575287
     74          1           0      -21.488039    1.013404   -5.230656
     75          1           0      -23.211175    0.967872   -5.924563
     76          1           0      -23.434109    4.437062   -2.037400
     77          1           0      -20.439750    6.995334   -0.353130
     78          1           0      -20.604805    5.875599    1.094077
     79          1           0      -21.625813    7.237854    0.890758
     80         12           0       23.887450   -0.770816   -0.049616
     81          6           0       25.323714    2.349342   -0.607259
     82          6           0       22.511002    0.355563    2.811867
     83          6           0       22.921988   -3.939578    0.622923
     84          6           0       25.720190   -1.968049   -2.713727
     85          7           0       23.952793    1.186817    0.987092
     86          6           0       24.426845    2.361313    0.460417
     87          6           0       24.093605    3.497663    1.350568
     88          6           0       23.244961    2.923104    2.490766
     89          6           0       23.179946    1.379912    2.116237
     90          6           0       23.659134    3.198003    3.928056
     91          6           0       23.371271    4.708762    0.527420
     92          6           0       24.090411    6.077431    0.484505
     93          1           0       23.311331    7.364867    0.596062
     94          7           0       22.761654   -1.646574    1.430879
     95          6           0       22.280808   -1.012419    2.566606
     96          6           0       21.614675   -1.954152    3.390770
     97          6           0       21.721656   -3.231054    2.775891
     98          6           0       22.475621   -2.971775    1.545062
     99          6           0       20.838205   -1.422654    4.658463
    100          6           0       21.213523   -4.542516    3.372331
    101          8           0       21.374312   -5.667373    2.875083
    102          6           0       20.397158   -4.516352    4.589043
    103          7           0       24.433481   -2.764770   -0.746576
    104          6           0       23.828906   -3.883572   -0.404205
    105          6           0       24.439129   -5.092843   -1.148124
    106          6           0       24.896418   -4.325760   -2.450927
    107          6           0       25.009925   -2.887185   -1.956486
    108          6           0       25.642169   -5.895074   -0.527327
    109          6           0       23.942479   -4.439006   -3.734907
    110          6           0       22.552580   -3.964246   -3.613041
    111          7           0       25.338876   -0.035018   -1.452284
    112          6           0       26.007000   -0.658992   -2.524040
    113          6           0       26.851266    0.292579   -3.173273
    114          6           0       26.686061    1.454216   -2.445580
    115          6           0       25.665021    1.226662   -1.465630
    116          6           0       27.868405    0.005877   -4.166208
    117          6           0       26.958958    2.813958   -2.452412
    118          8           0       27.690174    3.502131   -3.171981
    119          6           0       26.187990    3.472596   -1.219216
    120          6           0       27.252750    3.854293   -0.244716
    121          8           0       28.094432    3.197665    0.331609
    122          8           0       27.142752    5.177670   -0.115718
    123          6           0       28.092550    5.825710    0.846997
    124          1           0       21.941872    0.886041    3.578083
    125          1           0       22.458903   -4.912424    0.796623
    126          1           0       26.242558   -2.346859   -3.594447
    127          1           0       25.055097    3.846409    1.725362
    128          1           0       22.222933    3.286786    2.386805
    129          1           0       24.224429    2.276942    4.065173
    130          1           0       22.844374    3.375219    4.630321
    131          1           0       24.333243    4.025438    4.147808
    132          1           0       22.362818    4.841893    0.917966
    133          1           0       23.287231    4.520536   -0.543207
    134          1           0       24.532433    6.150814   -0.509562
    135          1           0       24.945547    6.111741    1.158225
    136          1           0       21.166345   -1.993762    5.526738
    137          1           0       19.849650   -1.769002    4.356716
    138          1           0       20.990031   -0.387215    4.963446
    139          1           0       20.927961   -4.030088    5.406341
    140          1           0       20.391593   -5.542095    4.956957
    141          1           0       19.374083   -4.163564    4.456303
    142          1           0       23.621409   -5.715252   -1.511773
    143          1           0       25.844096   -4.800260   -2.704482
    144          1           0       26.402461   -5.296433   -0.027084
    145          1           0       26.035813   -6.426814   -1.394330
    146          1           0       25.286239   -6.612361    0.212683
    147          1           0       23.823034   -5.461360   -4.094390
    148          1           0       24.246917   -3.740353   -4.514150
    149          1           0       22.648942   -2.887528   -3.745448
    150          1           0       22.017170   -4.115297   -2.675199
    151          1           0       21.827440   -4.281472   -4.361748
    152          1           0       28.720359   -0.322970   -3.569922
    153          1           0       28.172375    0.850334   -4.784079
    154          1           0       27.546705   -0.711130   -4.922323
    155          1           0       25.523735    4.286899   -1.508855
    156          1           0       27.473507    6.070338    1.710447
    157          1           0       28.551653    6.696542    0.379593
    158          1           0       28.903473    5.212592    1.241183
 ---------------------------------------------------------------------

 SCF Done:  E(RCAM-B3LYP) =  -4069.78964664     A.U. after   19 cycles

 Excitation energies and oscillator strengths:

 Excited State   1:      Singlet-A      1.6462 eV  753.16 nm  f=0.3892  <S**2>=0.000
     309 -> 315       -0.17000
     312 -> 314        0.68912
     309 <- 315       -0.10749
 This state for optimization and/or second-order correction.
 Total Energy, E(TD-HF/TD-DFT) =  -4069.72915060
 Copying the excited state density for this state as the 1-particle RhoCI density.

 Excited State   2:      Singlet-A      1.7047 eV  727.32 nm  f=0.3756  <S**2>=0.000
     310 -> 316        0.17520
     311 -> 313        0.68604
     310 <- 316        0.10615

 Excited State   3:      Singlet-A      2.1769 eV  569.53 nm  f=0.1383  <S**2>=0.000
     310 -> 313        0.65149
     311 -> 316       -0.26307

 Excited State   4:      Singlet-A      2.2270 eV  556.73 nm  f=0.1134  <S**2>=0.000
     309 -> 314        0.63821
     312 -> 315        0.29158

 Excited State   5:      Singlet-A      3.0922 eV  400.96 nm  f=0.0000  <S**2>=0.000
     312 -> 313        0.70711

 The electronic state is 1-A.
 Alpha  occ. eigenvalues --  -46.89347 -46.87161 -19.25182 -19.25051 -19.19237
 Alpha  occ. eigenvalues --  -19.19080 -19.18775 -19.18674 -19.18507 -19.18216
 Alpha  occ. eigenvalues --  -14.42866 -14.42006 -14.41834 -14.41697 -14.39708
 Alpha  occ. eigenvalues --  -14.39537 -14.38992 -14.38771 -10.38619 -10.38606
 Alpha  occ. eigenvalues --  -10.35236 -10.35160 -10.35079 -10.34161 -10.32059
 Alpha  occ. eigenvalues --  -10.31707 -10.31430 -10.31367 -10.31212 -10.30964
 Alpha  occ. eigenvalues --  -10.30741 -10.30631 -10.30494 -10.30289 -10.30125
 Alpha  occ. eigenvalues --  -10.30110 -10.29866 -10.29796 -10.29358 -10.29111
 Alpha  occ. eigenvalues --  -10.28992 -10.28960 -10.28866 -10.28757 -10.28677
 Alpha  occ. eigenvalues --  -10.28557 -10.28546 -10.28288 -10.28261 -10.28161
 Alpha  occ. eigenvalues --  -10.28155 -10.28045 -10.27891 -10.27880 -10.27870
 Alpha  occ. eigenvalues --  -10.27870 -10.27809 -10.27803 -10.27665 -10.27547
 Alpha  occ. eigenvalues --  -10.27529 -10.27524 -10.27512 -10.27487 -10.27485
 Alpha  occ. eigenvalues --  -10.27478 -10.27212 -10.27163 -10.26828 -10.26505
 Alpha  occ. eigenvalues --  -10.26469 -10.26382 -10.26270 -10.26042 -10.26010
 Alpha  occ. eigenvalues --  -10.25852 -10.25811 -10.25770 -10.25617 -10.25588
 Alpha  occ. eigenvalues --  -10.25487 -10.25396 -10.25251 -10.25131 -10.24735
 Alpha  occ. eigenvalues --  -10.24663  -3.17755  -3.16019  -1.92658  -1.92190
 Alpha  occ. eigenvalues --   -1.92072  -1.90910  -1.90454  -1.90365  -1.17323
 Alpha  occ. eigenvalues --   -1.17013  -1.10154  -1.09131  -1.08568  -1.07420
 Alpha  occ. eigenvalues --   -1.07365  -1.07271  -1.05429  -1.04538  -1.04264
 Alpha  occ. eigenvalues --   -1.03583  -1.03391  -1.02731  -1.02635  -1.01424
 Alpha  occ. eigenvalues --   -0.93387  -0.92219  -0.89729  -0.89226  -0.88823
 Alpha  occ. eigenvalues --   -0.88755  -0.88601  -0.88377  -0.87971  -0.87694
 Alpha  occ. eigenvalues --   -0.87606  -0.87238  -0.86870  -0.86429  -0.84644
 Alpha  occ. eigenvalues --   -0.84345  -0.84294  -0.83833  -0.83079  -0.82494
 Alpha  occ. eigenvalues --   -0.82014  -0.81674  -0.81570  -0.81072  -0.80748
 Alpha  occ. eigenvalues --   -0.80521  -0.78759  -0.78373  -0.77793  -0.77672
 Alpha  occ. eigenvalues --   -0.77388  -0.77375  -0.76545  -0.75956  -0.75374
 Alpha  occ. eigenvalues --   -0.75232  -0.73487  -0.72900  -0.71863  -0.71685
 Alpha  occ. eigenvalues --   -0.69394  -0.69108  -0.69098  -0.68703  -0.68208
 Alpha  occ. eigenvalues --   -0.67782  -0.67218  -0.66717  -0.65877  -0.65765
 Alpha  occ. eigenvalues --   -0.65397  -0.65371  -0.64823  -0.64792  -0.64095
 Alpha  occ. eigenvalues --   -0.63977  -0.62355  -0.62067  -0.60443  -0.60338
 Alpha  occ. eigenvalues --   -0.59950  -0.59931  -0.59316  -0.58984  -0.58624
 Alpha  occ. eigenvalues --   -0.58390  -0.58268  -0.58017  -0.57932  -0.57727
 Alpha  occ. eigenvalues --   -0.56445  -0.56104  -0.55785  -0.55518  -0.55488
 Alpha  occ. eigenvalues --   -0.55202  -0.55063  -0.54992  -0.54837  -0.54711
 Alpha  occ. eigenvalues --   -0.53959  -0.53395  -0.53361  -0.53259  -0.53015
 Alpha  occ. eigenvalues --   -0.52998  -0.52907  -0.52699  -0.52572  -0.52449
 Alpha  occ. eigenvalues --   -0.52195  -0.52163  -0.51992  -0.51911  -0.51327
 Alpha  occ. eigenvalues --   -0.51174  -0.51168  -0.51097  -0.50375  -0.50328
 Alpha  occ. eigenvalues --   -0.50115  -0.49995  -0.49808  -0.49735  -0.49628
 Alpha  occ. eigenvalues --   -0.49461  -0.49207  -0.49022  -0.48999  -0.48892
 Alpha  occ. eigenvalues --   -0.48511  -0.48403  -0.48360  -0.48242  -0.48080
 Alpha  occ. eigenvalues --   -0.48012  -0.47782  -0.47378  -0.47340  -0.47231
 Alpha  occ. eigenvalues --   -0.47120  -0.46844  -0.46725  -0.46676  -0.46617
 Alpha  occ. eigenvalues --   -0.46373  -0.46246  -0.46000  -0.45938  -0.45821
 Alpha  occ. eigenvalues --   -0.45257  -0.45212  -0.44926  -0.44789  -0.44643
 Alpha  occ. eigenvalues --   -0.44562  -0.44482  -0.44119  -0.44066  -0.44064
 Alpha  occ. eigenvalues --   -0.43907  -0.43730  -0.43528  -0.43371  -0.43301
 Alpha  occ. eigenvalues --   -0.43199  -0.43190  -0.42951  -0.42513  -0.42426
 Alpha  occ. eigenvalues --   -0.42363  -0.42226  -0.42117  -0.42062  -0.41964
 Alpha  occ. eigenvalues --   -0.41836  -0.41612  -0.41430  -0.41076  -0.40994
 Alpha  occ. eigenvalues --   -0.40976  -0.40908  -0.40719  -0.40510  -0.40449
 Alpha  occ. eigenvalues --   -0.40406  -0.40170  -0.40064  -0.39530  -0.38945
 Alpha  occ. eigenvalues --   -0.38266  -0.38070  -0.38033  -0.37985  -0.37700
 Alpha  occ. eigenvalues --   -0.37634  -0.37212  -0.37047  -0.37023  -0.36631
 Alpha  occ. eigenvalues --   -0.36377  -0.36128  -0.34611  -0.34483  -0.34312
 Alpha  occ. eigenvalues --   -0.34150  -0.33486  -0.33359  -0.31551  -0.31485
 Alpha  occ. eigenvalues --   -0.31044  -0.30749  -0.30726  -0.30537  -0.30463
 Alpha  occ. eigenvalues --   -0.29992  -0.29963  -0.29592  -0.24329  -0.24023
 Alpha  occ. eigenvalues --   -0.21447  -0.21051
 Alpha virt. eigenvalues --   -0.08985  -0.08980  -0.01634  -0.01624   0.00097
 Alpha virt. eigenvalues --    0.00275   0.02009   0.02150   0.02458   0.03149
 Alpha virt. eigenvalues --    0.04751   0.05336   0.05452   0.05851   0.06095

 Mulliken charges:
               1
     1  Mg  12.004669
     2  C    5.973742
     3  C    6.009405
     4  C    6.035918
     5  C    6.009627
     6  N    6.986800
     7  C    6.036149
     8  C    5.987009
     9  C    6.010826
    10  C    5.963693
    11  C    6.005255
    12  C    5.997013
    13  C    5.999800
    14  H    1.006818
    15  N    7.007057
    16  C    5.950833
    17  C    5.987670
    18  C    5.974945
    19  C    5.963645
    20  C    6.004825
    21  C    5.986914
    22  O    7.961329
    23  C    6.005834
    24  N    7.021035
    25  C    5.961823
    26  C    6.010885
    27  C    5.987025
    28  C    6.018905
    29  C    6.000298
    30  C    5.993141
    31  C    5.999659
    32  N    6.994705
    33  C    6.025630
    34  C    6.035947
    35  C    6.001924
    36  C    6.035670
    37  C    5.995002
    38  C    6.012830
    39  O    8.025316
    40  C    6.004326
    41  C    6.002917
    42  O    8.002448
    43  O    8.002095
    44  C    5.997827
    45  H    0.984357
    46  H    1.002277
    47  H    1.015981
    48  H    0.999756
    49  H    0.995934
    50  H    0.983460
    51  H    1.000674
    52  H    0.996406
    53  H    1.012909
    54  H    0.992180
    55  H    1.002749
    56  H    0.995444
    57  H    0.979576
    58  H    0.985462
    59  H    0.984124
    60  H    0.989133
    61  H    0.984194
    62  H    0.992665
    63  H    1.003321
    64  H    1.004549
    65  H    1.004922
    66  H    0.990997
    67  H    1.004917
    68  H    0.997698
    69  H    1.013765
    70  H    1.007726
    71  H    1.004240
    72  H    0.995326
    73  H    1.019247
    74  H    1.017711
    75  H    1.023849
    76  H    1.003952
    77  H    1.000615
    78  H    1.005443
    79  H    1.005258
    80  Mg  11.999991
    81  C    5.999997
    82  C    6.000013
    83  C    6.000006
    84  C    5.999987
    85  N    7.000028
    86  C    5.999955
    87  C    6.000033
    88  C    5.999976
    89  C    6.000045
    90  C    5.999997
    91  C    6.000008
    92  C    6.000005
    93  H    0.999966
    94  N    6.999988
    95  C    6.000071
    96  C    6.000039
    97  C    6.000019
    98  C    6.000042
    99  C    5.999988
   100  C    6.000053
   101  O    8.000055
   102  C    5.999969
   103  N    6.999977
   104  C    6.000020
   105  C    5.999983
   106  C    6.000013
   107  C    5.999965
   108  C    6.000002
   109  C    6.000020
   110  C    6.000020
   111  N    7.000017
   112  C    5.999907
   113  C    5.999935
   114  C    6.000009
   115  C    5.999955
   116  C    6.000015
   117  C    5.999924
   118  O    7.999942
   119  C    6.000033
   120  C    5.999991
   121  O    8.000010
   122  O    7.999989
   123  C    5.999997
   124  H    1.000026
   125  H    0.999986
   126  H    0.999969
   127  H    1.000016
   128  H    0.999989
   129  H    1.000012
   130  H    1.000014
   131  H    1.000042
   132  H    0.999965
   133  H    0.999986
   134  H    1.000001
   135  H    1.000026
   136  H    1.000078
   137  H    1.000022
   138  H    1.000042
   139  H    1.000037
   140  H    1.000063
   141  H    1.000009
   142  H    0.999989
   143  H    1.000001
   144  H    1.000027
   145  H    1.000016
   146  H    1.000008
   147  H    0.999973
   148  H    0.999992
   149  H    0.999999
   150  H    0.999968
   151  H    0.999949
   152  H    0.999975
   153  H    0.999955
   154  H    0.999946
   155  H    0.999964
   156  H    0.999992
   157  H    0.999995
   158  H    1.000015
 Sum of Mulliken charges = 624.00000

 Dipole moment (field-independent basis, Debye):
    X=              3.8691    Y=              3.3634    Z=             -9.9199  Tot=             11.1663
 Quadrupole moment (field-independent basis, Debye-Ang):
   XX=           -190.3702   YY=             -3.2954   ZZ=             -0.4223
   XY=            -85.0088   XZ=            245.5354   YZ=              8.5953

 Normal termination of Gaussian 16 at Wed Sep 22 20:28:23 2021.
