 Gaussian 16, Revision A.03,
 Gaussian 16:  ES64L-G16RevA.03 25-Dec-2016

 -----------------------------------
 #p cam-b3lyp/Def2SVP td=(nstates=5)
 -----------------------------------

 --------------------------------
 TDDFT excited states in gaussian
 --------------------------------
 Symbolic Z-matrix:
 Charge =  0 Multiplicity = 1

                         Standard orientation:
 ---------------------------------------------------------------------
 Center     Atomic      Atomic             Coordinates (Angstroms)
 Number     Number       Type             X           Y           Z
 ---------------------------------------------------------------------
      1         12           0       16.233706   -0.670442    0.311510
      2          6           0       15.324588    2.454025   -1.086782
      3          6           0       17.989752    1.181382    2.700159
      4          6           0       17.079269   -3.470984    1.801985
      5          6           0       15.127325   -2.256044   -2.578423
      6          7           0       16.555083    1.552334    0.732233
      7          6           0       15.978005    2.630101    0.131791
      8          6           0       16.360640    4.005525    0.704679
      9          6           0       17.342669    3.490669    1.874855
     10          6           0       17.285631    1.998957    1.727440
     11          6           0       18.836656    3.985376    1.735464
     12          6           0       15.131984    4.805146    1.248404
     13          6           0       14.590431    6.086185    0.625952
     14          1           0       14.014829    7.202014    1.487987
     15          7           0       17.314284   -1.119526    2.063571
     16          6           0       18.024001   -0.224685    2.877285
     17          6           0       18.746713   -1.009497    3.853156
     18          6           0       18.376046   -2.345326    3.719772
     19          6           0       17.508306   -2.352817    2.525908
     20          6           0       19.514778   -0.294287    4.911699
     21          6           0       18.808952   -3.597056    4.482302
     22          8           0       18.419496   -4.741717    4.231822
     23          6           0       19.640426   -3.394656    5.687352
     24          7           0       16.229428   -2.601338   -0.312936
     25          6           0       16.426693   -3.645199    0.547989
     26          6           0       15.849222   -4.977358   -0.039623
     27          6           0       15.355986   -4.557338   -1.418158
     28          6           0       15.647529   -3.032740   -1.492525
     29          6           0       16.863973   -6.166674   -0.007984
     30          6           0       13.866942   -4.906685   -1.562541
     31          6           0       13.406817   -5.529173   -2.830381
     32          7           0       15.486347   -0.081219   -1.530703
     33          6           0       15.051537   -0.825404   -2.598145
     34          6           0       14.529562    0.008848   -3.638942
     35          6           0       14.499431    1.380613   -3.083062
     36          6           0       15.102800    1.232435   -1.772424
     37          6           0       14.045958   -0.469008   -5.018841
     38          6           0       14.145135    2.806310   -3.297733
     39          8           0       13.498969    3.343094   -4.213538
     40          6           0       14.671259    3.536965   -1.994325
     41          6           0       15.622466    4.513490   -2.612360
     42          8           0       16.800823    4.349904   -2.904736
     43          8           0       15.074136    5.693225   -2.714459
     44          6           0       15.779880    6.771614   -3.448353
     45          1           0       18.357425    1.878959    3.455146
     46          1           0       17.329310   -4.469754    2.164947
     47          1           0       14.720366   -2.777708   -3.446741
     48          1           0       16.928114    4.535380   -0.061413
     49          1           0       17.056160    3.679103    2.909971
     50          1           0       19.138806    4.387279    0.768752
     51          1           0       19.519147    3.159466    1.932830
     52          1           0       19.013602    4.754324    2.487690
     53          1           0       15.380384    5.086252    2.271947
     54          1           0       14.247331    4.169881    1.266084
     55          1           0       13.717079    5.694182    0.104508
     56          1           0       15.429480    6.398383    0.004074
     57          1           0       19.128217   -0.505530    5.907765
     58          1           0       19.474531    0.785306    4.764729
     59          1           0       20.568037   -0.571660    4.941589
     60          1           0       19.182536   -2.635136    6.321174
     61          1           0       20.597959   -2.926294    5.459154
     62          1           0       19.748874   -4.279625    6.313573
     63          1           0       15.042404   -5.190770    0.661328
     64          1           0       15.848383   -5.130155   -2.203811
     65          1           0       17.772775   -5.965132    0.558889
     66          1           0       17.205602   -6.479753   -0.993885
     67          1           0       16.356679   -7.073717    0.320363
     68          1           0       13.387932   -3.936077   -1.440296
     69          1           0       13.489284   -5.607255   -0.818183
     70          1           0       12.607693   -4.875973   -3.180068
     71          1           0       13.140471   -6.572799   -2.663320
     72          1           0       14.128629   -5.496627   -3.646772
     73          1           0       14.882631   -0.441658   -5.715959
     74          1           0       13.227682    0.177588   -5.335398
     75          1           0       13.707650   -1.505249   -5.000632
     76          1           0       13.814660    4.050546   -1.558159
     77          1           0       16.746033    7.039447   -3.022072
     78          1           0       15.198305    7.685839   -3.565309
     79          1           0       16.007413    6.584589   -4.497360
     80         12           0      -15.763198   -0.817492    0.249953
     81          6           0      -18.027053    1.721269    1.023117
     82          6           0      -13.320830    1.430005    0.004043
     83          6           0      -14.083271   -3.044343   -1.725921
     84          6           0      -18.363597   -3.125301    0.469513
     85          7           0      -15.652896    1.340364    0.654821
     86          6           0      -16.676074    2.127975    0.962988
     87          6           0      -16.133044    3.567066    1.285297
     88          6           0      -14.653952    3.463394    0.842282
     89          6           0      -14.510131    1.996822    0.446840
     90          6           0      -14.300338    4.329211   -0.466860
     91          6           0      -16.264149    4.018039    2.810670
     92          6           0      -16.693062    5.438837    2.945852
     93          1           0      -15.897620    6.380155    3.837161
     94          7           0      -13.941658   -0.799637   -0.698132
     95          6           0      -13.044321    0.234677   -0.663826
     96          6           0      -11.750613   -0.250738   -1.164057
     97          6           0      -11.988150   -1.560266   -1.667277
     98          6           0      -13.413902   -1.821170   -1.408510
     99          6           0      -10.466242    0.636969   -1.213111
    100          6           0      -11.003053   -2.510994   -2.411926
    101          8           0      -11.296805   -3.633269   -2.808233
    102          6           0       -9.615486   -2.039336   -2.632041
    103          7           0      -16.150192   -2.724135   -0.527335
    104          6           0      -15.341112   -3.466591   -1.392710
    105          6           0      -16.124070   -4.705989   -1.899455
    106          6           0      -17.150188   -4.984571   -0.715266
    107          6           0      -17.198517   -3.507572   -0.231272
    108          6           0      -16.737892   -4.507179   -3.301968
    109          6           0      -16.698589   -5.904431    0.383327
    110          6           0      -15.770681   -5.427295    1.460797
    111          7           0      -17.740341   -0.831241    0.846903
    112          6           0      -18.697469   -1.819425    0.853573
    113          6           0      -19.995626   -1.322879    1.315721
    114          6           0      -19.819778    0.133789    1.306540
    115          6           0      -18.419563    0.347523    0.999943
    116          6           0      -21.208035   -2.090316    1.461138
    117          6           0      -20.479654    1.422253    1.478988
    118          8           0      -21.600328    1.722230    1.657132
    119          6           0      -19.292121    2.514533    1.374949
    120          6           0      -19.596673    3.679109    0.466891
    121          8           0      -19.309154    3.742130   -0.724762
    122          8           0      -20.166070    4.698651    1.229105
    123          6           0      -20.515353    5.953198    0.538299
    124          1           0      -12.375027    1.974515    0.050348
    125          1           0      -13.495884   -3.697923   -2.374781
    126          1           0      -19.105243   -3.913751    0.611046
    127          1           0      -16.594197    4.330406    0.658102
    128          1           0      -13.907629    3.777960    1.571746
    129          1           0      -13.948519    5.299318   -0.115251
    130          1           0      -15.144371    4.557503   -1.117189
    131          1           0      -13.491857    3.821214   -0.993902
    132          1           0      -15.318921    3.916113    3.344085
    133          1           0      -16.942216    3.421090    3.420735
    134          1           0      -17.657918    5.355870    3.445375
    135          1           0      -16.864269    6.010142    2.033924
    136          1           0      -10.484260    1.125274   -2.187045
    137          1           0       -9.565851    0.052372   -1.022781
    138          1           0      -10.520715    1.532071   -0.592580
    139          1           0       -9.399780   -1.011489   -2.923342
    140          1           0       -9.136206   -2.655259   -3.392577
    141          1           0       -8.989564   -2.373272   -1.804015
    142          1           0      -15.369983   -5.492471   -1.908260
    143          1           0      -18.107418   -5.360047   -1.076530
    144          1           0      -17.807492   -4.693907   -3.398020
    145          1           0      -16.159392   -4.969899   -4.101863
    146          1           0      -16.650064   -3.462215   -3.598826
    147          1           0      -16.205193   -6.810553    0.033835
    148          1           0      -17.589700   -6.264840    0.897463
    149          1           0      -16.464182   -5.153231    2.255609
    150          1           0      -15.189651   -4.534437    1.228874
    151          1           0      -15.118020   -6.247408    1.761785
    152          1           0      -21.723148   -1.667085    2.323672
    153          1           0      -20.913019   -3.114429    1.688390
    154          1           0      -21.826966   -1.989095    0.570179
    155          1           0      -19.147842    2.920341    2.376260
    156          1           0      -21.133571    5.681372   -0.317707
    157          1           0      -19.622912    6.444725    0.151823
    158          1           0      -21.035464    6.741300    1.083050
 ---------------------------------------------------------------------

 SCF Done:  E(RCAM-B3LYP) =  -4069.81270942     A.U. after   17 cycles

 Excitation energies and oscillator strengths:

 Excited State   1:      Singlet-A      1.6811 eV  737.54 nm  f=0.3829  <S**2>=0.000
     309 -> 316       -0.17701
     312 -> 314        0.68644
     309 <- 316       -0.10855
 This state for optimization and/or second-order correction.
 Total Energy, E(TD-HF/TD-DFT) =  -4069.75093167
 Copying the excited state density for this state as the 1-particle RhoCI density.

 Excited State   2:      Singlet-A      1.7573 eV  705.52 nm  f=0.3786  <S**2>=0.000
     310 -> 315        0.18340
     311 -> 313        0.68366
     310 <- 315        0.10472

 Excited State   3:      Singlet-A      2.2202 eV  558.43 nm  f=0.1042  <S**2>=0.000
     310 -> 313        0.63625
     311 -> 315       -0.29385

 Excited State   4:      Singlet-A      2.2560 eV  549.58 nm  f=0.1056  <S**2>=0.000
     309 -> 314        0.63270
     312 -> 316        0.30600

 Excited State   5:      Singlet-A      3.0353 eV  408.47 nm  f=0.0000  <S**2>=0.000
     312 -> 313        0.70709

 The electronic state is 1-A.
 Alpha  occ. eigenvalues --  -46.88562 -46.87907 -19.25341 -19.25009 -19.20088
 Alpha  occ. eigenvalues --  -19.19675 -19.19615 -19.19166 -19.18909 -19.18224
 Alpha  occ. eigenvalues --  -14.42619 -14.42181 -14.41938 -14.41411 -14.39858
 Alpha  occ. eigenvalues --  -14.39272 -14.39213 -14.39021 -10.39680 -10.38683
 Alpha  occ. eigenvalues --  -10.36008 -10.35631 -10.35510 -10.35478 -10.31981
 Alpha  occ. eigenvalues --  -10.31789 -10.31670 -10.31440 -10.31320 -10.31146
 Alpha  occ. eigenvalues --  -10.30947 -10.30778 -10.30580 -10.30574 -10.30560
 Alpha  occ. eigenvalues --  -10.29991 -10.29873 -10.29736 -10.29463 -10.29462
 Alpha  occ. eigenvalues --  -10.29375 -10.29073 -10.28894 -10.28803 -10.28771
 Alpha  occ. eigenvalues --  -10.28767 -10.28660 -10.28651 -10.28440 -10.28369
 Alpha  occ. eigenvalues --  -10.28289 -10.28279 -10.28206 -10.28073 -10.28064
 Alpha  occ. eigenvalues --  -10.27985 -10.27913 -10.27896 -10.27746 -10.27655
 Alpha  occ. eigenvalues --  -10.27553 -10.27549 -10.27520 -10.27092 -10.27065
 Alpha  occ. eigenvalues --  -10.27016 -10.26880 -10.26692 -10.26557 -10.26539
 Alpha  occ. eigenvalues --  -10.26437 -10.26109 -10.26075 -10.26040 -10.25917
 Alpha  occ. eigenvalues --  -10.25886 -10.25858 -10.25791 -10.25725 -10.25676
 Alpha  occ. eigenvalues --  -10.25558 -10.25526 -10.25363 -10.25258 -10.24894
 Alpha  occ. eigenvalues --  -10.24541  -3.17159  -3.16610  -1.92060  -1.91615
 Alpha  occ. eigenvalues --   -1.91514  -1.91463  -1.91041  -1.90937  -1.17833
 Alpha  occ. eigenvalues --   -1.15143  -1.12934  -1.10143  -1.10117  -1.08425
 Alpha  occ. eigenvalues --   -1.07441  -1.06524  -1.05510  -1.05168  -1.04044
 Alpha  occ. eigenvalues --   -1.03567  -1.02857  -1.02813  -1.02124  -1.01396
 Alpha  occ. eigenvalues --   -0.91882  -0.91858  -0.89611  -0.89078  -0.89021
 Alpha  occ. eigenvalues --   -0.88829  -0.88621  -0.88008  -0.87754  -0.87171
 Alpha  occ. eigenvalues --   -0.86886  -0.86794  -0.86291  -0.85146  -0.84374
 Alpha  occ. eigenvalues --   -0.84166  -0.83585  -0.83515  -0.82913  -0.82731
 Alpha  occ. eigenvalues --   -0.82530  -0.81848  -0.80986  -0.80865  -0.80552
 Alpha  occ. eigenvalues --   -0.80352  -0.78810  -0.78230  -0.77532  -0.77259
 Alpha  occ. eigenvalues --   -0.76910  -0.76720  -0.76226  -0.75837  -0.75193
 Alpha  occ. eigenvalues --   -0.74851  -0.72264  -0.72234  -0.71851  -0.71456
 Alpha  occ. eigenvalues --   -0.69261  -0.69216  -0.68484  -0.68236  -0.67740
 Alpha  occ. eigenvalues --   -0.67648  -0.66964  -0.66745  -0.65911  -0.65694
 Alpha  occ. eigenvalues --   -0.65318  -0.64900  -0.64602  -0.64238  -0.64226
 Alpha  occ. eigenvalues --   -0.64086  -0.62439  -0.61791  -0.60982  -0.60134
 Alpha  occ. eigenvalues --   -0.59581  -0.59548  -0.59018  -0.58863  -0.58533
 Alpha  occ. eigenvalues --   -0.58090  -0.57886  -0.57754  -0.57677  -0.57219
 Alpha  occ. eigenvalues --   -0.56733  -0.55793  -0.55676  -0.55511  -0.55335
 Alpha  occ. eigenvalues --   -0.55009  -0.54825  -0.54343  -0.54216  -0.54087
 Alpha  occ. eigenvalues --   -0.53877  -0.53591  -0.53557  -0.53366  -0.52955
 Alpha  occ. eigenvalues --   -0.52954  -0.52677  -0.52602  -0.52497  -0.52175
 Alpha  occ. eigenvalues --   -0.52154  -0.51758  -0.51611  -0.51458  -0.51371
 Alpha  occ. eigenvalues --   -0.51226  -0.50613  -0.50483  -0.50390  -0.50162
 Alpha  occ. eigenvalues --   -0.50061  -0.50057  -0.49917  -0.49775  -0.49604
 Alpha  occ. eigenvalues --   -0.49511  -0.49448  -0.49136  -0.49097  -0.48746
 Alpha  occ. eigenvalues --   -0.48591  -0.48534  -0.48303  -0.48226  -0.48068
 Alpha  occ. eigenvalues --   -0.47978  -0.47841  -0.47787  -0.47468  -0.46949
 Alpha  occ. eigenvalues --   -0.46781  -0.46669  -0.46581  -0.46354  -0.46265
 Alpha  occ. eigenvalues --   -0.46122  -0.46084  -0.45872  -0.45736  -0.45616
 Alpha  occ. eigenvalues --   -0.45493  -0.45486  -0.45207  -0.45184  -0.45061
 Alpha  occ. eigenvalues --   -0.44938  -0.44691  -0.44622  -0.44394  -0.44377
 Alpha  occ. eigenvalues --   -0.44293  -0.44153  -0.44053  -0.43716  -0.43313
 Alpha  occ. eigenvalues --   -0.43237  -0.43230  -0.43096  -0.42848  -0.42788
 Alpha  occ. eigenvalues --   -0.42651  -0.42455  -0.41937  -0.41869  -0.41682
 Alpha  occ. eigenvalues --   -0.41563  -0.41517  -0.41442  -0.41348  -0.41271
 Alpha  occ. eigenvalues --   -0.41174  -0.40863  -0.40488  -0.40455  -0.40222
 Alpha  occ. eigenvalues --   -0.40110  -0.39877  -0.39550  -0.39120  -0.38652
 Alpha  occ. eigenvalues --   -0.38480  -0.38055  -0.37959  -0.37666  -0.37275
 Alpha  occ. eigenvalues --   -0.36967  -0.36663  -0.36577  -0.36520  -0.36419
 Alpha  occ. eigenvalues --   -0.35900  -0.35885  -0.34487  -0.34451  -0.34272
 Alpha  occ. eigenvalues --   -0.33479  -0.33127  -0.32795  -0.31954  -0.31815
 Alpha  occ. eigenvalues --   -0.31391  -0.31208  -0.31001  -0.30640  -0.30350
 Alpha  occ. eigenvalues --   -0.30011  -0.29544  -0.28752  -0.23972  -0.23952
 Alpha  occ. eigenvalues --   -0.21216  -0.20767
 Alpha virt. eigenvalues --   -0.08557  -0.08452  -0.01899  -0.01368  -0.00229
 Alpha virt. eigenvalues --    0.00415   0.02039   0.02432   0.02653   0.02800
 Alpha virt. eigenvalues --    0.04575   0.05200   0.05591   0.05728   0.06073

 Mulliken charges:
               1
     1  Mg   0.832049
     2  C    0.053312
     3  C   -0.082038
     4  C   -0.070469
     5  C   -0.080605
     6  N   -0.209678
     7  C   -0.071945
     8  C    0.011138
     9  C   -0.072317
    10  C   -0.024589
    11  C    0.046694
    12  C    0.028505
    13  C   -0.068334
    14  H    0.027967
    15  N   -0.362207
    16  C    0.170247
    17  C   -0.116424
    18  C   -0.037995
    19  C    0.148177
    20  C    0.098546
    21  C    0.036644
    22  O   -0.200874
    23  C    0.053968
    24  N   -0.348552
    25  C   -0.000950
    26  C   -0.010968
    27  C   -0.014544
    28  C    0.090627
    29  C    0.058937
    30  C    0.000440
    31  C    0.009583
    32  N   -0.370086
    33  C    0.134140
    34  C   -0.185273
    35  C   -0.007975
    36  C    0.094232
    37  C    0.119458
    38  C    0.044284
    39  O   -0.191233
    40  C   -0.048603
    41  C    0.168028
    42  O   -0.239909
    43  O   -0.279041
    44  C    0.189658
    45  H   -0.020172
    46  H   -0.008641
    47  H   -0.032218
    48  H    0.036480
    49  H    0.020242
    50  H    0.030138
    51  H    0.017520
    52  H    0.014717
    53  H    0.014803
    54  H    0.008399
    55  H    0.040693
    56  H    0.030095
    57  H    0.032428
    58  H    0.010819
    59  H    0.024929
    60  H    0.019473
    61  H    0.028272
    62  H    0.034489
    63  H    0.027658
    64  H    0.006961
    65  H    0.037070
    66  H    0.003384
    67  H    0.012725
    68  H    0.012961
    69  H    0.007175
    70  H    0.015156
    71  H    0.020932
    72  H    0.005655
    73  H    0.033420
    74  H    0.038346
    75  H    0.005117
    76  H    0.046441
    77  H    0.033330
    78  H    0.033807
    79  H    0.035373
    80  Mg   0.845313
    81  C    0.027415
    82  C   -0.076848
    83  C   -0.074890
    84  C   -0.103130
    85  N   -0.243949
    86  C   -0.032176
    87  C    0.000733
    88  C   -0.076745
    89  C    0.082381
    90  C    0.038846
    91  C    0.070155
    92  C   -0.093357
    93  H    0.009656
    94  N   -0.370848
    95  C    0.094423
    96  C   -0.139758
    97  C   -0.061979
    98  C    0.101694
    99  C    0.093650
   100  C    0.039053
   101  O   -0.200703
   102  C    0.041832
   103  N   -0.293968
   104  C    0.034481
   105  C    0.001859
   106  C   -0.010251
   107  C    0.025361
   108  C    0.092677
   109  C    0.017570
   110  C    0.022141
   111  N   -0.363046
   112  C    0.153946
   113  C   -0.162569
   114  C   -0.040008
   115  C    0.088735
   116  C    0.123012
   117  C    0.056360
   118  O   -0.102412
   119  C   -0.071450
   120  C    0.218771
   121  O   -0.220120
   122  O   -0.352142
   123  C    0.187109
   124  H   -0.036697
   125  H   -0.006430
   126  H   -0.034649
   127  H    0.020349
   128  H    0.017622
   129  H    0.008633
   130  H    0.029608
   131  H    0.017157
   132  H    0.013806
   133  H    0.012964
   134  H    0.031486
   135  H    0.030142
   136  H    0.035017
   137  H    0.042293
   138  H    0.009186
   139  H    0.038217
   140  H    0.012147
   141  H    0.038777
   142  H   -0.003747
   143  H   -0.004003
   144  H    0.017230
   145  H    0.021830
   146  H    0.010574
   147  H    0.001271
   148  H   -0.002096
   149  H    0.005354
   150  H    0.031880
   151  H    0.016162
   152  H    0.033310
   153  H    0.015278
   154  H    0.051198
   155  H    0.046696
   156  H    0.036676
   157  H    0.023068
   158  H    0.042872
 Sum of Mulliken charges =  -0.00000

 Dipole moment (field-independent basis, Debye):
    X=              4.5248    Y=              1.1223    Z=              6.3129  Tot=              7.8477
 Quadrupole moment (field-independent basis, Debye-Ang):
   XX=           -560.5281   YY=           -477.3677   ZZ=           -517.2364
   XY=             25.5773   XZ=             61.0668   YZ=             20.2705

 Normal termination of Gaussian 16 at Thu Sep  2 20:14:29 2021.
