 Gaussian 16, Revision A.03,
 Gaussian 16:  ES64L-G16RevA.03 25-Dec-2016

 ----------------------------------------------------------
 #p cam-b3lyp/Def2SVP td=(nstates=5) density=(transition=1)
 ----------------------------------------------------------

 --------------------------------
 TDDFT excited states in gaussian
 --------------------------------
 Symbolic Z-matrix:
 Charge =  0 Multiplicity = 1

                         Standard orientation:
 ---------------------------------------------------------------------
 Center     Atomic      Atomic             Coordinates (Angstroms)
 Number     Number       Type             X           Y           Z
 ---------------------------------------------------------------------
      1         12           0       -9.521593    0.462379    0.732370
      2          6           0       -9.280341   -2.442681   -1.230440
      3          6           0       -7.206815   -0.888607    2.886155
      4          6           0       -9.245429    3.477311    2.066337
      5          6           0      -11.702574    1.844134   -1.707284
      6          7           0       -8.210684   -1.314472    0.668989
      7          6           0       -8.278135   -2.402985   -0.238588
      8          6           0       -7.582003   -3.603589    0.255349
      9          6           0       -6.997344   -3.104327    1.646649
     10          6           0       -7.526937   -1.684914    1.776572
     11          6           0       -7.309143   -4.080348    2.806900
     12          6           0       -6.421909   -4.044798   -0.583962
     13          6           0       -5.563466   -2.937621   -1.213561
     14          1           0       -4.002547   -3.101671   -1.380323
     15          7           0       -8.406160    1.229431    2.308713
     16          6           0       -7.631615    0.477448    3.113861
     17          6           0       -7.176857    1.300538    4.206418
     18          6           0       -7.808074    2.558524    4.044913
     19          6           0       -8.562663    2.477167    2.783950
     20          6           0       -6.198133    0.890000    5.273575
     21          6           0       -7.694742    3.742426    5.004879
     22          8           0       -7.012514    3.672843    6.008467
     23          6           0       -8.261205    5.119667    4.824712
     24          7           0      -10.139937    2.431957    0.113130
     25          6           0       -9.938930    3.543492    0.887368
     26          6           0      -10.835215    4.736935    0.419545
     27          6           0      -11.349046    4.234545   -0.963645
     28          6           0      -11.070363    2.751865   -0.848753
     29          6           0      -12.020855    5.084428    1.351865
     30          6           0      -10.505190    4.704859   -2.240798
     31          6           0      -11.276448    5.216142   -3.403294
     32          7           0      -10.406782   -0.130435   -0.986831
     33          6           0      -11.369029    0.453444   -1.713731
     34          6           0      -12.061563   -0.574554   -2.578886
     35          6           0      -11.264670   -1.740732   -2.347727
     36          6           0      -10.188683   -1.379315   -1.488482
     37          6           0      -13.259407   -0.440597   -3.508129
     38          6           0      -11.059029   -3.081009   -2.815785
     39          8           0      -11.657538   -3.729018   -3.659833
     40          6           0       -9.762857   -3.598057   -2.070610
     41          6           0       -8.695445   -3.793021   -3.127369
     42          8           0       -8.142678   -2.957343   -3.763041
     43          8           0       -8.373063   -5.133043   -3.161057
     44          6           0       -7.158676   -5.427883   -3.928298
     45          1           0       -6.630697   -1.396624    3.662096
     46          1           0       -9.306950    4.431543    2.592206
     47          1           0      -12.476696    2.293696   -2.332632
     48          1           0       -8.314055   -4.409237    0.311196
     49          1           0       -5.929090   -2.888903    1.667204
     50          1           0       -6.322227   -4.164583    3.262223
     51          1           0       -7.672220   -5.003817    2.355669
     52          1           0       -7.988429   -3.659068    3.548244
     53          1           0       -6.667082   -4.830159   -1.299437
     54          1           0       -5.661746   -4.613803   -0.048266
     55          1           0       -5.779593   -2.048225   -0.620674
     56          1           0       -6.054860   -2.791803   -2.175683
     57          1           0       -5.442170    1.660451    5.428904
     58          1           0       -5.772581   -0.083459    5.030191
     59          1           0       -6.810355    0.802047    6.171418
     60          1           0       -7.839720    5.695917    4.001698
     61          1           0       -7.873000    5.620441    5.711757
     62          1           0       -9.342533    5.160542    4.959996
     63          1           0      -10.199507    5.619385    0.348165
     64          1           0      -12.412578    4.414680   -1.122456
     65          1           0      -12.949216    4.835429    0.838132
     66          1           0      -11.909111    6.072483    1.798065
     67          1           0      -11.981700    4.426068    2.218957
     68          1           0       -9.830707    3.917237   -2.575901
     69          1           0       -9.877481    5.507402   -1.853113
     70          1           0      -10.977839    6.219911   -3.704880
     71          1           0      -12.355780    5.202361   -3.250046
     72          1           0      -11.108682    4.614017   -4.295858
     73          1           0      -12.913388   -0.735405   -4.498829
     74          1           0      -13.681254    0.554852   -3.364087
     75          1           0      -13.951766   -1.224823   -3.202245
     76          1           0       -9.946275   -4.512963   -1.507667
     77          1           0       -6.437999   -4.610324   -3.916693
     78          1           0       -7.532872   -5.590773   -4.939061
     79          1           0       -6.825305   -6.407439   -3.586685
     80         12           0        9.685257    0.708157   -0.186578
     81          6           0        7.716395   -2.242156    0.923717
     82          6           0        6.693174    1.909879   -1.200096
     83          6           0       11.494691    3.035964   -1.350574
     84          6           0       12.562327   -1.332894    0.293528
     85          7           0        7.504262   -0.121040   -0.173331
     86          6           0        6.962574   -1.215847    0.478699
     87          6           0        5.432706   -1.208382    0.576022
     88          6           0        5.134370   -0.119646   -0.500544
     89          6           0        6.513147    0.628225   -0.669877
     90          6           0        4.625000   -0.638634   -1.808252
     91          6           0        4.806598   -0.961841    1.989568
     92          6           0        3.488605   -1.592020    2.293689
     93          1           0        2.544885   -0.750861    3.147305
     94          7           0        9.167035    2.338563   -1.133628
     95          6           0        7.845023    2.729213   -1.432787
     96          6           0        7.891054    4.072342   -1.934534
     97          6           0        9.301920    4.439799   -1.820080
     98          6           0       10.004372    3.272460   -1.425478
     99          6           0        6.634306    4.941845   -2.309228
    100          6           0        9.864577    5.801945   -2.088955
    101          8           0       11.096267    6.036910   -2.032946
    102          6           0        9.020445    6.986212   -2.389866
    103          7           0       11.699652    0.827442   -0.653495
    104          6           0       12.249960    1.946840   -1.127899
    105          6           0       13.802228    1.871255   -1.288568
    106          6           0       14.080794    0.651494   -0.333294
    107          6           0       12.694281   -0.043189   -0.246546
    108          6           0       14.230139    1.561723   -2.759243
    109          6           0       14.549930    1.111451    1.110680
    110          6           0       15.750989    2.070623    1.247946
    111          7           0       10.098029   -1.335637    0.508367
    112          6           0       11.327194   -1.957250    0.696731
    113          6           0       11.120925   -3.306300    1.169208
    114          6           0        9.733800   -3.443699    1.307082
    115          6           0        9.130656   -2.254107    0.814064
    116          6           0       12.172217   -4.282920    1.577046
    117          6           0        8.685411   -4.364994    1.725408
    118          8           0        8.685480   -5.485670    2.217383
    119          6           0        7.330182   -3.502741    1.548574
    120          6           0        6.429097   -4.344977    0.780852
    121          8           0        6.597826   -4.754116   -0.378637
    122          8           0        5.595362   -4.971623    1.662168
    123          6           0        4.642063   -5.915777    1.174053
    124          1           0        5.685441    2.296649   -1.366503
    125          1           0       12.155571    3.813704   -1.738440
    126          1           0       13.482532   -1.904024    0.435845
    127          1           0        5.084542   -2.173401    0.207139
    128          1           0        4.480171    0.650993   -0.093893
    129          1           0        5.441352   -0.548287   -2.524874
    130          1           0        3.821076    0.002582   -2.169421
    131          1           0        4.276714   -1.670953   -1.835288
    132          1           0        4.638095    0.111278    2.075078
    133          1           0        5.561984   -1.228523    2.728252
    134          1           0        3.759790   -2.492097    2.845066
    135          1           0        3.025966   -2.041395    1.414873
    136          1           0        6.380916    5.731006   -1.601949
    137          1           0        5.764995    4.316893   -2.512005
    138          1           0        6.948415    5.365093   -3.264132
    139          1           0        8.666838    6.900675   -3.417680
    140          1           0        9.678004    7.849213   -2.281751
    141          1           0        8.245260    7.014876   -1.624841
    142          1           0       14.181801    2.838234   -0.956734
    143          1           0       14.793650   -0.084882   -0.703115
    144          1           0       14.728949    2.458091   -3.128615
    145          1           0       13.434703    1.234809   -3.428167
    146          1           0       14.963860    0.768684   -2.608051
    147          1           0       14.862583    0.228446    1.667533
    148          1           0       13.656103    1.481440    1.612643
    149          1           0       15.351813    2.936175    1.776486
    150          1           0       15.987586    2.346591    0.219945
    151          1           0       16.573095    1.635241    1.815801
    152          1           0       13.080319   -3.684093    1.650433
    153          1           0       12.245737   -5.002283    0.761489
    154          1           0       11.934334   -4.841229    2.482458
    155          1           0        6.911328   -3.277675    2.529225
    156          1           0        4.677564   -6.002040    0.087828
    157          1           0        3.671063   -5.500089    1.443535
    158          1           0        4.715819   -6.863525    1.705473
 ---------------------------------------------------------------------

 SCF Done:  E(RCAM-B3LYP) =  -4069.79714532     A.U. after   18 cycles

 Excitation energies and oscillator strengths:

 Excited State   1:      Singlet-A      1.6585 eV  747.56 nm  f=0.4063  <S**2>=0.000
     310 -> 316       -0.15419
     311 -> 313        0.68343
     312 -> 314        0.10591
     310 <- 316       -0.10307
 This state for optimization and/or second-order correction.
 Total Energy, E(TD-HF/TD-DFT) =  -4069.73619599
 Copying the excited state density for this state as the 1-particle RhoCI density.

 Excited State   2:      Singlet-A      1.6651 eV  744.60 nm  f=0.3500  <S**2>=0.000
     309 -> 315        0.17046
     311 -> 313       -0.10628
     312 -> 314        0.67964
     309 <- 315        0.10652

 Excited State   3:      Singlet-A      2.1781 eV  569.24 nm  f=0.2173  <S**2>=0.000
     310 -> 313        0.66747
     311 -> 316        0.21692

 Excited State   4:      Singlet-A      2.2662 eV  547.11 nm  f=0.1014  <S**2>=0.000
     309 -> 314        0.62906
     312 -> 315       -0.31024

 Excited State   5:      Singlet-A      2.6509 eV  467.71 nm  f=0.0000  <S**2>=0.000
     312 -> 313        0.70706

 The electronic state is 1-A.
 Alpha  occ. eigenvalues --  -46.88871 -46.88714 -19.24816 -19.24724 -19.20552
 Alpha  occ. eigenvalues --  -19.19875 -19.19416 -19.19245 -19.18386 -19.17408
 Alpha  occ. eigenvalues --  -14.42511 -14.42282 -14.42018 -14.41404 -14.39726
 Alpha  occ. eigenvalues --  -14.39678 -14.39668 -14.39545 -10.39368 -10.39142
 Alpha  occ. eigenvalues --  -10.35962 -10.35113 -10.34742 -10.33965 -10.31550
 Alpha  occ. eigenvalues --  -10.31380 -10.31348 -10.31149 -10.31074 -10.30951
 Alpha  occ. eigenvalues --  -10.30790 -10.30775 -10.30716 -10.30704 -10.30675
 Alpha  occ. eigenvalues --  -10.30598 -10.30426 -10.30336 -10.30080 -10.29827
 Alpha  occ. eigenvalues --  -10.29451 -10.29046 -10.29031 -10.28932 -10.28847
 Alpha  occ. eigenvalues --  -10.28641 -10.28629 -10.28471 -10.28467 -10.28280
 Alpha  occ. eigenvalues --  -10.28267 -10.28173 -10.28098 -10.28091 -10.28084
 Alpha  occ. eigenvalues --  -10.27987 -10.27977 -10.27963 -10.27896 -10.27878
 Alpha  occ. eigenvalues --  -10.27729 -10.27569 -10.27400 -10.27357 -10.27173
 Alpha  occ. eigenvalues --  -10.27019 -10.26885 -10.26733 -10.26689 -10.26677
 Alpha  occ. eigenvalues --  -10.26640 -10.26620 -10.26519 -10.26367 -10.26174
 Alpha  occ. eigenvalues --  -10.26159 -10.25922 -10.25689 -10.25661 -10.25624
 Alpha  occ. eigenvalues --  -10.25599 -10.25571 -10.25517 -10.25505 -10.25489
 Alpha  occ. eigenvalues --  -10.25258  -3.17532  -3.17359  -1.92401  -1.92221
 Alpha  occ. eigenvalues --   -1.91984  -1.91854  -1.91819  -1.91677  -1.17388
 Alpha  occ. eigenvalues --   -1.16542  -1.10547  -1.10211  -1.10070  -1.09083
 Alpha  occ. eigenvalues --   -1.07441  -1.07020  -1.04888  -1.04716  -1.04127
 Alpha  occ. eigenvalues --   -1.04008  -1.03635  -1.03472  -1.02762  -1.02508
 Alpha  occ. eigenvalues --   -0.93683  -0.93313  -0.90015  -0.89559  -0.89522
 Alpha  occ. eigenvalues --   -0.88773  -0.88516  -0.88022  -0.87659  -0.87436
 Alpha  occ. eigenvalues --   -0.86813  -0.86468  -0.86215  -0.85937  -0.84878
 Alpha  occ. eigenvalues --   -0.84714  -0.84295  -0.84027  -0.83126  -0.82849
 Alpha  occ. eigenvalues --   -0.82049  -0.81827  -0.81049  -0.81005  -0.80826
 Alpha  occ. eigenvalues --   -0.80649  -0.78537  -0.78074  -0.77638  -0.77461
 Alpha  occ. eigenvalues --   -0.77273  -0.76990  -0.76207  -0.76172  -0.75425
 Alpha  occ. eigenvalues --   -0.75269  -0.73334  -0.72836  -0.71824  -0.70921
 Alpha  occ. eigenvalues --   -0.69774  -0.69266  -0.68942  -0.68811  -0.68623
 Alpha  occ. eigenvalues --   -0.68151  -0.67224  -0.66916  -0.65994  -0.65677
 Alpha  occ. eigenvalues --   -0.65216  -0.65112  -0.64884  -0.64677  -0.64514
 Alpha  occ. eigenvalues --   -0.64459  -0.62224  -0.62054  -0.60725  -0.60136
 Alpha  occ. eigenvalues --   -0.59759  -0.59547  -0.59504  -0.59192  -0.59073
 Alpha  occ. eigenvalues --   -0.58845  -0.58379  -0.58275  -0.57657  -0.57515
 Alpha  occ. eigenvalues --   -0.56698  -0.56237  -0.55897  -0.55613  -0.55556
 Alpha  occ. eigenvalues --   -0.55226  -0.54880  -0.54735  -0.54601  -0.54199
 Alpha  occ. eigenvalues --   -0.54177  -0.53674  -0.53217  -0.53168  -0.52985
 Alpha  occ. eigenvalues --   -0.52847  -0.52535  -0.52510  -0.52424  -0.52402
 Alpha  occ. eigenvalues --   -0.52251  -0.51745  -0.51738  -0.51548  -0.51395
 Alpha  occ. eigenvalues --   -0.51287  -0.51210  -0.51065  -0.51004  -0.50277
 Alpha  occ. eigenvalues --   -0.50270  -0.49877  -0.49837  -0.49731  -0.49692
 Alpha  occ. eigenvalues --   -0.49530  -0.49484  -0.49383  -0.49185  -0.49077
 Alpha  occ. eigenvalues --   -0.48897  -0.48733  -0.48715  -0.48500  -0.48312
 Alpha  occ. eigenvalues --   -0.48124  -0.47831  -0.47692  -0.47546  -0.47328
 Alpha  occ. eigenvalues --   -0.47241  -0.47240  -0.47036  -0.46913  -0.46502
 Alpha  occ. eigenvalues --   -0.46500  -0.46367  -0.46178  -0.46139  -0.46014
 Alpha  occ. eigenvalues --   -0.45926  -0.45629  -0.45379  -0.45355  -0.45092
 Alpha  occ. eigenvalues --   -0.44964  -0.44811  -0.44804  -0.44503  -0.44343
 Alpha  occ. eigenvalues --   -0.44180  -0.44040  -0.43928  -0.43729  -0.43688
 Alpha  occ. eigenvalues --   -0.43370  -0.43250  -0.43072  -0.42943  -0.42821
 Alpha  occ. eigenvalues --   -0.42662  -0.42655  -0.42513  -0.42328  -0.42266
 Alpha  occ. eigenvalues --   -0.42089  -0.42034  -0.41989  -0.41635  -0.41322
 Alpha  occ. eigenvalues --   -0.41251  -0.40906  -0.40663  -0.40608  -0.40546
 Alpha  occ. eigenvalues --   -0.39950  -0.39791  -0.39461  -0.39284  -0.39239
 Alpha  occ. eigenvalues --   -0.38613  -0.38556  -0.38214  -0.38023  -0.37738
 Alpha  occ. eigenvalues --   -0.37473  -0.37171  -0.37158  -0.36572  -0.36379
 Alpha  occ. eigenvalues --   -0.35907  -0.35833  -0.35230  -0.34590  -0.34366
 Alpha  occ. eigenvalues --   -0.34311  -0.33158  -0.33111  -0.31544  -0.31510
 Alpha  occ. eigenvalues --   -0.31383  -0.31225  -0.30675  -0.30107  -0.30040
 Alpha  occ. eigenvalues --   -0.29869  -0.29783  -0.29782  -0.24444  -0.24246
 Alpha  occ. eigenvalues --   -0.21702  -0.21181
 Alpha virt. eigenvalues --   -0.09633  -0.08913  -0.01924  -0.00752   0.00088
 Alpha virt. eigenvalues --    0.00312   0.01258   0.01769   0.02279   0.02391
 Alpha virt. eigenvalues --    0.03934   0.04859   0.05006   0.05293   0.05763

 Mulliken charges:
               1
     1  Mg  12.000466
     2  C    6.005281
     3  C    5.997593
     4  C    5.996106
     5  C    6.002167
     6  N    7.000858
     7  C    5.993201
     8  C    6.002495
     9  C    5.998537
    10  C    6.005041
    11  C    5.999719
    12  C    6.000871
    13  C    6.000836
    14  H    0.998873
    15  N    6.998020
    16  C    6.007741
    17  C    6.003502
    18  C    6.001091
    19  C    6.007872
    20  C    5.999280
    21  C    6.001713
    22  O    8.002965
    23  C    5.999217
    24  N    6.999649
    25  C    6.005791
    26  C    5.998843
    27  C    6.000793
    28  C    5.996198
    29  C    6.000011
    30  C    6.001188
    31  C    5.999980
    32  N    7.000853
    33  C    5.993483
    34  C    5.993929
    35  C    6.000576
    36  C    5.993194
    37  C    6.000382
    38  C    5.997767
    39  O    7.995711
    40  C    5.999590
    41  C    5.999482
    42  O    7.999807
    43  O    7.999491
    44  C    6.000363
    45  H    1.001470
    46  H    1.001388
    47  H    0.998224
    48  H    0.999262
    49  H    0.999722
    50  H    0.999608
    51  H    1.001711
    52  H    0.999557
    53  H    1.000103
    54  H    0.997814
    55  H    0.998809
    56  H    1.001299
    57  H    1.003207
    58  H    1.002780
    59  H    1.002626
    60  H    1.002278
    61  H    1.001864
    62  H    1.001553
    63  H    1.000444
    64  H    0.999881
    65  H    1.001951
    66  H    1.000173
    67  H    0.999075
    68  H    1.000420
    69  H    0.998103
    70  H    0.999412
    71  H    0.999631
    72  H    1.000581
    73  H    0.996890
    74  H    0.996973
    75  H    0.996552
    76  H    0.998089
    77  H    0.999698
    78  H    0.999693
    79  H    0.998637
    80  Mg  11.997482
    81  C    5.963636
    82  C    5.984517
    83  C    6.037228
    84  C    6.004477
    85  N    6.971200
    86  C    6.035847
    87  C    5.985633
    88  C    6.001039
    89  C    5.987968
    90  C    6.004164
    91  C    5.997975
    92  C    6.001263
    93  H    1.003894
    94  N    7.006080
    95  C    5.964257
    96  C    5.979471
    97  C    5.986107
    98  C    5.967415
    99  C    6.000831
   100  C    5.988226
   101  O    7.964675
   102  C    6.005348
   103  N    7.025454
   104  C    5.962394
   105  C    6.005059
   106  C    5.995447
   107  C    6.018248
   108  C    6.000305
   109  C    5.995161
   110  C    6.000375
   111  N    6.995815
   112  C    6.033842
   113  C    6.032954
   114  C    5.998313
   115  C    6.045078
   116  C    5.996106
   117  C    6.012658
   118  O    8.025699
   119  C    6.008147
   120  C    6.005826
   121  O    8.003273
   122  O    8.000357
   123  C    5.996605
   124  H    0.977275
   125  H    1.002650
   126  H    1.017568
   127  H    0.999665
   128  H    0.999615
   129  H    1.000412
   130  H    0.998537
   131  H    0.983711
   132  H    1.011759
   133  H    0.993470
   134  H    0.994659
   135  H    1.002222
   136  H    0.979657
   137  H    0.985564
   138  H    0.983617
   139  H    0.991553
   140  H    0.984646
   141  H    0.995244
   142  H    1.005725
   143  H    1.002149
   144  H    1.004703
   145  H    1.003171
   146  H    0.991961
   147  H    0.998168
   148  H    1.006859
   149  H    1.007937
   150  H    1.005936
   151  H    1.002465
   152  H    1.014592
   153  H    1.022490
   154  H    1.020367
   155  H    1.005032
   156  H    1.003747
   157  H    1.005969
   158  H    1.001053
 Sum of Mulliken charges = 624.00000

 Dipole moment (field-independent basis, Debye):
    X=              5.3805    Y=             -8.4409    Z=              5.3859  Tot=             11.3669
 Quadrupole moment (field-independent basis, Debye-Ang):
   XX=             75.8444   YY=             -9.1522   ZZ=             -0.4017
   XY=            -89.5416   XZ=             23.3066   YZ=              6.2049

 Normal termination of Gaussian 16 at Tue Sep 21 18:51:54 2021.
