 Gaussian 16, Revision A.03,
 Gaussian 16:  ES64L-G16RevA.03 25-Dec-2016

 -----------------------------------
 #p cam-b3lyp/Def2SVP td=(nstates=5)
 -----------------------------------

 --------------------------------
 TDDFT excited states in gaussian
 --------------------------------
 Symbolic Z-matrix:
 Charge =  0 Multiplicity = 1

                         Standard orientation:
 ---------------------------------------------------------------------
 Center     Atomic      Atomic             Coordinates (Angstroms)
 Number     Number       Type             X           Y           Z
 ---------------------------------------------------------------------
      1         12           0       13.227142    0.730768   -0.312750
      2          6           0       11.751355   -1.960726    1.534609
      3          6           0       15.283500   -1.718565   -1.801282
      4          6           0       15.147356    3.083378   -1.530194
      5          6           0       11.386288    2.932007    1.511605
      6          7           0       13.422473   -1.569908   -0.163884
      7          6           0       12.623542   -2.372946    0.579175
      8          6           0       12.920899   -3.819487    0.220099
      9          6           0       14.029622   -3.825644   -0.869790
     10          6           0       14.251000   -2.305622   -0.991060
     11          6           0       15.349346   -4.691618   -0.456924
     12          6           0       11.641561   -4.596321   -0.312490
     13          6           0       11.372868   -5.971955    0.298559
     14          1           0       12.563444   -6.910906    0.747717
     15          7           0       15.023389    0.684472   -1.470799
     16          6           0       15.637403   -0.368518   -1.967351
     17          6           0       16.779281    0.105732   -2.697179
     18          6           0       16.736253    1.519557   -2.796501
     19          6           0       15.649774    1.813936   -1.899261
     20          6           0       17.682755   -0.820513   -3.509562
     21          6           0       17.478235    2.549676   -3.633582
     22          8           0       17.319755    3.749438   -3.501394
     23          6           0       18.391121    2.003888   -4.696923
     24          7           0       13.469300    2.688105    0.241395
     25          6           0       14.218479    3.525145   -0.587575
     26          6           0       13.873834    5.028480   -0.406732
     27          6           0       12.560441    4.882630    0.450638
     28          6           0       12.445516    3.391066    0.764892
     29          6           0       15.033955    5.779186    0.262984
     30          6           0       11.231565    5.307425   -0.336074
     31          6           0       10.581100    6.603639    0.014251
     32          7           0       11.795713    0.562928    1.100109
     33          6           0       11.151045    1.571920    1.782517
     34          6           0       10.283626    1.072164    2.846040
     35          6           0       10.480885   -0.353701    2.789683
     36          6           0       11.481797   -0.588169    1.817530
     37          6           0        9.302867    1.907455    3.586540
     38          6           0       10.027919   -1.639096    3.298720
     39          8           0        9.141222   -1.839869    4.148593
     40          6           0       10.880378   -2.783884    2.504883
     41          6           0       11.631879   -3.473466    3.541641
     42          8           0       12.387834   -2.917369    4.307953
     43          8           0       11.390263   -4.789691    3.529707
     44          6           0       11.993758   -5.721998    4.532878
     45          1           0       15.896172   -2.438963   -2.347123
     46          1           0       15.434826    3.907455   -2.187477
     47          1           0       10.757094    3.671152    2.011299
     48          1           0       13.317155   -4.295097    1.117262
     49          1           0       13.705150   -4.331991   -1.779031
     50          1           0       15.104121   -5.434610    0.302037
     51          1           0       16.066223   -3.951243   -0.100968
     52          1           0       15.760488   -5.177710   -1.341521
     53          1           0       11.581439   -4.700637   -1.394956
     54          1           0       10.747833   -4.023269   -0.065879
     55          1           0       10.746077   -6.584097   -0.350256
     56          1           0       10.734241   -5.733154    1.148996
     57          1           0       17.432911   -0.871192   -4.569461
     58          1           0       17.770537   -1.804010   -3.046919
     59          1           0       18.689440   -0.413617   -3.416774
     60          1           0       18.003365    1.145922   -5.246969
     61          1           0       19.373909    1.696588   -4.342179
     62          1           0       18.439636    2.718036   -5.518999
     63          1           0       13.698210    5.441111   -1.399832
     64          1           0       12.670686    5.506837    1.337477
     65          1           0       15.959713    5.208524    0.335281
     66          1           0       14.794988    6.055002    1.289477
     67          1           0       15.229916    6.699821   -0.287656
     68          1           0       10.406772    4.599257   -0.256813
     69          1           0       11.368916    5.314380   -1.416736
     70          1           0       10.608664    7.281122   -0.838232
     71          1           0       11.197967    6.971575    0.834339
     72          1           0        9.539821    6.444864    0.294495
     73          1           0        8.402150    1.343448    3.826444
     74          1           0        9.160884    2.809210    2.991192
     75          1           0        9.784420    2.195122    4.522128
     76          1           0       10.228539   -3.497418    2.002623
     77          1           0       11.828361   -5.329049    5.536212
     78          1           0       13.068424   -5.845950    4.397106
     79          1           0       11.663763   -6.754889    4.425273
     80         12           0      -13.484522    0.466712    0.160033
     81          6           0      -11.496174   -2.272599   -0.622982
     82          6           0      -16.223918   -1.573931   -0.163435
     83          6           0      -15.488679    3.229173    0.676815
     84          6           0      -10.732529    2.592487   -0.081200
     85          7           0      -13.787487   -1.694785   -0.241659
     86          6           0      -12.853805   -2.644674   -0.421048
     87          6           0      -13.399370   -4.090931   -0.469292
     88          6           0      -14.962206   -3.820377   -0.559897
     89          6           0      -15.037557   -2.232607   -0.348729
     90          6           0      -15.492200   -4.338226   -1.944421
     91          6           0      -12.921048   -4.822239    0.888149
     92          6           0      -12.157376   -6.168886    0.720979
     93          1           0      -12.400432   -6.875372   -0.661607
     94          7           0      -15.551493    0.845869    0.182824
     95          6           0      -16.519705   -0.176896    0.110607
     96          6           0      -17.812316    0.383696    0.441995
     97          6           0      -17.637820    1.759875    0.635393
     98          6           0      -16.149715    2.009225    0.581192
     99          6           0      -19.104763   -0.418086    0.232460
    100          6           0      -18.725793    2.833203    0.904052
    101          8           0      -18.508153    4.047338    1.074680
    102          6           0      -20.184744    2.367122    1.048490
    103          7           0      -13.115369    2.606229    0.194295
    104          6           0      -14.165489    3.525983    0.495836
    105          6           0      -13.662142    4.978172    0.359426
    106          6           0      -12.080367    4.742713    0.398478
    107          6           0      -11.959668    3.208733    0.201637
    108          6           0      -14.256997    5.605751   -0.890385
    109          6           0      -11.462110    5.175726    1.794296
    110          6           0      -11.965290    4.690244    3.196332
    111          7           0      -11.547933    0.272211   -0.330762
    112          6           0      -10.519223    1.215779   -0.411782
    113          6           0       -9.303959    0.551176   -0.754674
    114          6           0       -9.612632   -0.796200   -0.805311
    115          6           0      -11.013821   -0.932011   -0.645415
    116          6           0       -7.962526    1.185180   -1.061207
    117          6           0       -9.062476   -2.076490   -1.014631
    118          8           0       -7.947578   -2.336411   -1.338560
    119          6           0      -10.294672   -3.073042   -1.019839
    120          6           0      -10.397464   -3.597767   -2.425286
    121          8           0      -11.249234   -3.253201   -3.217661
    122          8           0       -9.380279   -4.447379   -2.611063
    123          6           0       -9.087458   -4.677024   -4.004672
    124          1           0      -17.096319   -2.230039   -0.183734
    125          1           0      -16.141899    4.099969    0.598442
    126          1           0       -9.862168    3.246536   -0.171719
    127          1           0      -13.034977   -4.696092   -1.299190
    128          1           0      -15.552372   -4.271058    0.238364
    129          1           0      -16.190899   -3.671861   -2.450822
    130          1           0      -15.971423   -5.255201   -1.602659
    131          1           0      -14.617121   -4.627337   -2.525957
    132          1           0      -13.791567   -4.886147    1.540664
    133          1           0      -12.256484   -4.124441    1.398182
    134          1           0      -12.571266   -6.742923    1.549291
    135          1           0      -11.077873   -6.105993    0.854932
    136          1           0      -19.736075    0.165535   -0.438040
    137          1           0      -19.646355   -0.481911    1.177188
    138          1           0      -18.868476   -1.405878   -0.161972
    139          1           0      -20.528919    2.098496    0.048891
    140          1           0      -20.749577    3.258281    1.321656
    141          1           0      -20.266693    1.682301    1.892176
    142          1           0      -13.942359    5.454559    1.299364
    143          1           0      -11.592179    5.393898   -0.325695
    144          1           0      -15.227561    5.188287   -1.158893
    145          1           0      -13.587761    5.475362   -1.740503
    146          1           0      -14.457365    6.665316   -0.732738
    147          1           0      -11.422026    6.264888    1.812211
    148          1           0      -10.460993    4.746901    1.749140
    149          1           0      -12.753599    5.366193    3.527939
    150          1           0      -11.097706    4.761844    3.853329
    151          1           0      -12.245802    3.638978    3.268977
    152          1           0       -7.577016    1.762494   -0.220662
    153          1           0       -8.178478    1.856913   -1.891764
    154          1           0       -7.133271    0.491170   -1.205284
    155          1           0      -10.239416   -3.953157   -0.378926
    156          1           0       -8.037438   -4.886829   -4.207129
    157          1           0       -9.474744   -4.023805   -4.786475
    158          1           0       -9.561030   -5.573796   -4.404795
 ---------------------------------------------------------------------

 SCF Done:  E(RCAM-B3LYP) =  -4069.80897508     A.U. after   18 cycles

 Excitation energies and oscillator strengths:

 Excited State   1:      Singlet-A      1.6831 eV  736.63 nm  f=0.4856  <S**2>=0.000
     309 -> 316       -0.17161
     312 -> 313        0.68210
     309 <- 316       -0.10636
 This state for optimization and/or second-order correction.
 Total Energy, E(TD-HF/TD-DFT) =  -4069.74712143
 Copying the excited state density for this state as the 1-particle RhoCI density.

 Excited State   2:      Singlet-A      1.7046 eV  727.34 nm  f=0.3158  <S**2>=0.000
     310 -> 315       -0.17455
     311 -> 314        0.68152
     310 <- 315       -0.10577

 Excited State   3:      Singlet-A      2.1993 eV  563.73 nm  f=0.1259  <S**2>=0.000
     309 -> 313        0.65012
     312 -> 316        0.26290

 Excited State   4:      Singlet-A      2.2267 eV  556.80 nm  f=0.1309  <S**2>=0.000
     310 -> 314        0.64615
     311 -> 315        0.27552

 Excited State   5:      Singlet-A      2.9862 eV  415.20 nm  f=0.0000  <S**2>=0.000
     311 -> 313        0.70706

 The electronic state is 1-A.
 Alpha  occ. eigenvalues --  -46.88605 -46.88052 -19.26134 -19.25247 -19.20045
 Alpha  occ. eigenvalues --  -19.19517 -19.19333 -19.18995 -19.18588 -19.18503
 Alpha  occ. eigenvalues --  -14.42217 -14.41864 -14.41699 -14.41407 -14.39529
 Alpha  occ. eigenvalues --  -14.39359 -14.39073 -14.39032 -10.39303 -10.38486
 Alpha  occ. eigenvalues --  -10.35775 -10.35443 -10.35097 -10.34801 -10.32527
 Alpha  occ. eigenvalues --  -10.31573 -10.31339 -10.31317 -10.30729 -10.30640
 Alpha  occ. eigenvalues --  -10.30505 -10.30322 -10.30254 -10.30130 -10.29871
 Alpha  occ. eigenvalues --  -10.29802 -10.29635 -10.29635 -10.29609 -10.29570
 Alpha  occ. eigenvalues --  -10.29164 -10.29010 -10.28857 -10.28729 -10.28548
 Alpha  occ. eigenvalues --  -10.28493 -10.28373 -10.28192 -10.28167 -10.28115
 Alpha  occ. eigenvalues --  -10.28112 -10.28005 -10.27922 -10.27828 -10.27785
 Alpha  occ. eigenvalues --  -10.27712 -10.27635 -10.27635 -10.27600 -10.27568
 Alpha  occ. eigenvalues --  -10.27072 -10.27040 -10.26987 -10.26984 -10.26705
 Alpha  occ. eigenvalues --  -10.26688 -10.26661 -10.26648 -10.26558 -10.26499
 Alpha  occ. eigenvalues --  -10.26413 -10.26226 -10.26212 -10.26052 -10.26047
 Alpha  occ. eigenvalues --  -10.25794 -10.25793 -10.25764 -10.25575 -10.25563
 Alpha  occ. eigenvalues --  -10.25553 -10.25452 -10.25236 -10.25177 -10.25010
 Alpha  occ. eigenvalues --  -10.24654  -3.17233  -3.16653  -1.92099  -1.91694
 Alpha  occ. eigenvalues --   -1.91554  -1.91544  -1.91087  -1.90975  -1.18139
 Alpha  occ. eigenvalues --   -1.16545  -1.11988  -1.10833  -1.09062  -1.08422
 Alpha  occ. eigenvalues --   -1.08308  -1.07354  -1.04635  -1.04127  -1.03495
 Alpha  occ. eigenvalues --   -1.03292  -1.03130  -1.02683  -1.01870  -1.01136
 Alpha  occ. eigenvalues --   -0.92772  -0.92148  -0.88623  -0.88508  -0.88250
 Alpha  occ. eigenvalues --   -0.88104  -0.88082  -0.87727  -0.87094  -0.87050
 Alpha  occ. eigenvalues --   -0.87008  -0.86471  -0.86392  -0.85990  -0.84213
 Alpha  occ. eigenvalues --   -0.84111  -0.83907  -0.83372  -0.82650  -0.82258
 Alpha  occ. eigenvalues --   -0.81821  -0.81272  -0.81174  -0.80883  -0.80684
 Alpha  occ. eigenvalues --   -0.79910  -0.78252  -0.77687  -0.77662  -0.77083
 Alpha  occ. eigenvalues --   -0.76853  -0.76708  -0.76265  -0.75834  -0.74932
 Alpha  occ. eigenvalues --   -0.74829  -0.72932  -0.72471  -0.71402  -0.71157
 Alpha  occ. eigenvalues --   -0.68862  -0.68737  -0.68619  -0.67943  -0.67788
 Alpha  occ. eigenvalues --   -0.67636  -0.66958  -0.66343  -0.65829  -0.65545
 Alpha  occ. eigenvalues --   -0.65147  -0.64610  -0.64523  -0.64486  -0.64452
 Alpha  occ. eigenvalues --   -0.63911  -0.62409  -0.62360  -0.60489  -0.59972
 Alpha  occ. eigenvalues --   -0.59375  -0.59216  -0.58933  -0.58803  -0.58477
 Alpha  occ. eigenvalues --   -0.58393  -0.58028  -0.57972  -0.57458  -0.57227
 Alpha  occ. eigenvalues --   -0.56241  -0.56070  -0.55744  -0.55655  -0.55150
 Alpha  occ. eigenvalues --   -0.54880  -0.54360  -0.54353  -0.53942  -0.53489
 Alpha  occ. eigenvalues --   -0.53342  -0.53303  -0.53097  -0.52978  -0.52903
 Alpha  occ. eigenvalues --   -0.52607  -0.52564  -0.52349  -0.52180  -0.52079
 Alpha  occ. eigenvalues --   -0.51964  -0.51830  -0.51709  -0.51272  -0.51178
 Alpha  occ. eigenvalues --   -0.50928  -0.50590  -0.50576  -0.50515  -0.50059
 Alpha  occ. eigenvalues --   -0.49961  -0.49880  -0.49786  -0.49484  -0.49250
 Alpha  occ. eigenvalues --   -0.49140  -0.49013  -0.48818  -0.48742  -0.48569
 Alpha  occ. eigenvalues --   -0.48553  -0.48385  -0.48304  -0.48129  -0.47921
 Alpha  occ. eigenvalues --   -0.47712  -0.47706  -0.47453  -0.47417  -0.47105
 Alpha  occ. eigenvalues --   -0.46732  -0.46627  -0.46588  -0.46240  -0.46179
 Alpha  occ. eigenvalues --   -0.46144  -0.46104  -0.45877  -0.45698  -0.45546
 Alpha  occ. eigenvalues --   -0.45292  -0.45155  -0.45087  -0.44907  -0.44606
 Alpha  occ. eigenvalues --   -0.44522  -0.44496  -0.44299  -0.44224  -0.43810
 Alpha  occ. eigenvalues --   -0.43730  -0.43580  -0.43575  -0.43386  -0.43286
 Alpha  occ. eigenvalues --   -0.43028  -0.43006  -0.42987  -0.42745  -0.42625
 Alpha  occ. eigenvalues --   -0.42596  -0.42460  -0.42354  -0.41897  -0.41828
 Alpha  occ. eigenvalues --   -0.41723  -0.41501  -0.41401  -0.41290  -0.41275
 Alpha  occ. eigenvalues --   -0.40997  -0.40777  -0.40647  -0.40537  -0.40278
 Alpha  occ. eigenvalues --   -0.40248  -0.39708  -0.39534  -0.39308  -0.39121
 Alpha  occ. eigenvalues --   -0.38380  -0.37907  -0.37651  -0.37432  -0.37069
 Alpha  occ. eigenvalues --   -0.37036  -0.36959  -0.36538  -0.36436  -0.36208
 Alpha  occ. eigenvalues --   -0.36133  -0.36088  -0.34780  -0.34440  -0.34067
 Alpha  occ. eigenvalues --   -0.33748  -0.32996  -0.32637  -0.31682  -0.31617
 Alpha  occ. eigenvalues --   -0.31224  -0.30933  -0.30724  -0.30418  -0.30241
 Alpha  occ. eigenvalues --   -0.30073  -0.29558  -0.29379  -0.23818  -0.23739
 Alpha  occ. eigenvalues --   -0.20948  -0.20947
 Alpha virt. eigenvalues --   -0.08704  -0.08521  -0.01312  -0.01104   0.00130
 Alpha virt. eigenvalues --    0.00588   0.01795   0.02091   0.02509   0.02591
 Alpha virt. eigenvalues --    0.04561   0.04783   0.05536   0.06050   0.06153

 Mulliken charges:
               1
     1  Mg   0.829328
     2  C   -0.027402
     3  C   -0.081367
     4  C   -0.048348
     5  C   -0.097987
     6  N   -0.248707
     7  C   -0.030233
     8  C    0.007186
     9  C   -0.059237
    10  C    0.026559
    11  C    0.039525
    12  C    0.031765
    13  C   -0.059014
    14  H    0.003944
    15  N   -0.302840
    16  C    0.146142
    17  C   -0.169033
    18  C   -0.020053
    19  C    0.093301
    20  C    0.099941
    21  C    0.033794
    22  O   -0.187008
    23  C    0.024096
    24  N   -0.332243
    25  C   -0.001089
    26  C   -0.024801
    27  C   -0.002653
    28  C    0.080354
    29  C    0.078546
    30  C   -0.015201
    31  C    0.023917
    32  N   -0.395349
    33  C    0.148646
    34  C   -0.178786
    35  C    0.024831
    36  C    0.119053
    37  C    0.137488
    38  C    0.044623
    39  O   -0.191555
    40  C    0.008844
    41  C    0.183309
    42  O   -0.215355
    43  O   -0.324698
    44  C    0.186220
    45  H   -0.034553
    46  H   -0.001853
    47  H   -0.023827
    48  H    0.020261
    49  H    0.020920
    50  H    0.027638
    51  H    0.023963
    52  H    0.016018
    53  H    0.005727
    54  H    0.004918
    55  H    0.020239
    56  H    0.033033
    57  H    0.044406
    58  H    0.015502
    59  H    0.008492
    60  H    0.015417
    61  H    0.052109
    62  H    0.023539
    63  H    0.017644
    64  H    0.012666
    65  H    0.031316
    66  H    0.004820
    67  H    0.019329
    68  H    0.006225
    69  H   -0.004142
    70  H    0.014260
    71  H    0.005074
    72  H    0.017091
    73  H    0.042203
    74  H    0.016903
    75  H    0.031297
    76  H    0.029782
    77  H    0.052750
    78  H    0.029824
    79  H    0.042555
    80  Mg   0.826305
    81  C   -0.012214
    82  C   -0.055209
    83  C   -0.055274
    84  C   -0.101683
    85  N   -0.262856
    86  C   -0.021604
    87  C   -0.037426
    88  C   -0.073725
    89  C    0.047854
    90  C    0.074584
    91  C    0.036436
    92  C   -0.072614
    93  H    0.021489
    94  N   -0.381518
    95  C    0.116806
    96  C   -0.159365
    97  C   -0.046585
    98  C    0.112334
    99  C    0.135772
   100  C    0.005265
   101  O   -0.221328
   102  C    0.048246
   103  N   -0.269131
   104  C    0.003996
   105  C   -0.013041
   106  C   -0.018952
   107  C    0.072203
   108  C    0.091497
   109  C   -0.014737
   110  C    0.000558
   111  N   -0.397751
   112  C    0.133564
   113  C   -0.171048
   114  C    0.038105
   115  C    0.108947
   116  C    0.123518
   117  C    0.021145
   118  O   -0.126701
   119  C   -0.025988
   120  C    0.175952
   121  O   -0.208569
   122  O   -0.277469
   123  C    0.182104
   124  H   -0.037537
   125  H    0.007401
   126  H   -0.023676
   127  H    0.021921
   128  H    0.013757
   129  H    0.029997
   130  H    0.010703
   131  H    0.027777
   132  H    0.008582
   133  H    0.019007
   134  H    0.034189
   135  H    0.048729
   136  H    0.023633
   137  H    0.016889
   138  H    0.018107
   139  H    0.040319
   140  H    0.017689
   141  H    0.042680
   142  H    0.008225
   143  H    0.001892
   144  H    0.024872
   145  H    0.012944
   146  H    0.014119
   147  H    0.012806
   148  H   -0.002176
   149  H    0.027115
   150  H    0.014410
   151  H    0.022648
   152  H    0.015162
   153  H    0.034146
   154  H    0.032800
   155  H    0.026100
   156  H    0.038605
   157  H    0.037176
   158  H    0.007098
 Sum of Mulliken charges =  -0.00000

 Dipole moment (field-independent basis, Debye):
    X=              0.2048    Y=             -3.6190    Z=             -3.2886  Tot=              4.8943
 Quadrupole moment (field-independent basis, Debye-Ang):
   XX=           -489.4260   YY=           -471.6347   ZZ=           -519.0130
   XY=             10.0230   XZ=            -67.1339   YZ=              6.7632

 Normal termination of Gaussian 16 at Wed Sep 15 07:51:57 2021.
