 Gaussian 16, Revision A.03,
 Gaussian 16:  ES64L-G16RevA.03 25-Dec-2016

 -----------------------------------
 #p cam-b3lyp/Def2SVP td=(nstates=5)
 -----------------------------------

 --------------------------------
 TDDFT excited states in gaussian
 --------------------------------
 Symbolic Z-matrix:
 Charge =  0 Multiplicity = 1

                         Standard orientation:
 ---------------------------------------------------------------------
 Center     Atomic      Atomic             Coordinates (Angstroms)
 Number     Number       Type             X           Y           Z
 ---------------------------------------------------------------------
      1         12           0       -9.391737    0.219897    0.877165
      2          6           0       -9.171203   -2.253969   -1.674010
      3          6           0       -7.247415   -1.620879    2.812668
      4          6           0       -8.792650    3.061732    2.829631
      5          6           0      -11.094955    2.302470   -1.383456
      6          7           0       -8.126874   -1.680816    0.387992
      7          6           0       -8.375788   -2.604050   -0.555103
      8          6           0       -7.831114   -3.945882   -0.100810
      9          6           0       -7.136291   -3.745565    1.330982
     10          6           0       -7.684482   -2.249338    1.574624
     11          6           0       -7.712743   -4.788971    2.314234
     12          6           0       -6.867610   -4.515581   -1.129493
     13          6           0       -5.934624   -3.509826   -1.844884
     14          1           0       -4.436450   -3.530372   -1.435820
     15          7           0       -8.233829    0.653650    2.672981
     16          6           0       -7.416245   -0.285964    3.262364
     17          6           0       -6.972030    0.300886    4.487621
     18          6           0       -7.308169    1.707944    4.516517
     19          6           0       -8.191707    1.884930    3.336342
     20          6           0       -6.051218   -0.416584    5.447335
     21          6           0       -6.757198    2.786691    5.450396
     22          8           0       -5.908337    2.503222    6.273556
     23          6           0       -7.175896    4.155758    5.408803
     24          7           0       -9.780787    2.395963    0.702987
     25          6           0       -9.569541    3.265197    1.680232
     26          6           0      -10.025449    4.675283    1.342107
     27          6           0      -10.431763    4.464288   -0.179734
     28          6           0      -10.510855    2.985505   -0.304786
     29          6           0      -11.237120    5.203344    2.254945
     30          6           0       -9.389648    5.197784   -1.143679
     31          6           0       -9.806713    6.397469   -1.946380
     32          7           0      -10.204104    0.016253   -0.949855
     33          6           0      -10.986003    0.915376   -1.703318
     34          6           0      -11.493141    0.265120   -2.926027
     35          6           0      -10.813348   -0.952380   -2.895496
     36          6           0       -9.934037   -1.057451   -1.761670
     37          6           0      -12.593156    0.748932   -3.932930
     38          6           0      -10.639901   -2.186661   -3.668054
     39          8           0      -11.140020   -2.604114   -4.725654
     40          6           0       -9.599250   -3.084611   -2.921101
     41          6           0       -8.526165   -3.135919   -3.953227
     42          8           0       -7.959576   -2.179365   -4.416232
     43          8           0       -8.370375   -4.383358   -4.387213
     44          6           0       -7.277457   -4.690309   -5.374757
     45          1           0       -6.823423   -2.311391    3.544502
     46          1           0       -8.747588    4.006412    3.375176
     47          1           0      -11.517549    3.059889   -2.047720
     48          1           0       -8.769053   -4.501217   -0.095550
     49          1           0       -6.048550   -3.800344    1.279714
     50          1           0       -6.888985   -5.403054    2.677586
     51          1           0       -8.430486   -5.480148    1.871644
     52          1           0       -8.124715   -4.216850    3.145099
     53          1           0       -7.429669   -5.032441   -1.907388
     54          1           0       -6.181266   -5.221342   -0.660682
     55          1           0       -6.103872   -2.447564   -1.669207
     56          1           0       -6.043620   -3.746953   -2.903243
     57          1           0       -5.751926   -1.394087    5.068302
     58          1           0       -6.539482   -0.431162    6.422355
     59          1           0       -5.194941    0.234461    5.619973
     60          1           0       -6.937265    4.690500    4.489200
     61          1           0       -6.698954    4.702332    6.222142
     62          1           0       -8.259842    4.076206    5.498289
     63          1           0       -9.220550    5.409580    1.322019
     64          1           0      -11.332367    5.075474   -0.241275
     65          1           0      -11.471169    4.457447    3.015086
     66          1           0      -12.108431    5.299618    1.606864
     67          1           0      -11.100092    6.184653    2.711823
     68          1           0       -9.079843    4.544719   -1.959621
     69          1           0       -8.498964    5.502643   -0.595989
     70          1           0      -10.017576    6.177043   -2.992857
     71          1           0       -8.897788    6.993815   -1.860288
     72          1           0      -10.537827    7.043391   -1.459932
     73          1           0      -12.149881    1.523349   -4.558341
     74          1           0      -13.447462    1.075291   -3.339616
     75          1           0      -12.835965   -0.079082   -4.598669
     76          1           0      -10.114104   -4.021210   -2.703940
     77          1           0       -7.577320   -4.509103   -6.407165
     78          1           0       -6.960212   -5.731239   -5.300083
     79          1           0       -6.449460   -4.046555   -5.077989
     80         12           0        9.145661    0.612928   -0.122516
     81          6           0        7.638635   -2.310580    1.140366
     82          6           0        6.057553    1.898834   -0.706243
     83          6           0       10.644850    3.347300   -1.432322
     84          6           0       12.232803   -0.961963    0.096137
     85          7           0        7.117767   -0.141805    0.083269
     86          6           0        6.731717   -1.319182    0.729734
     87          6           0        5.243298   -1.322776    0.909096
     88          6           0        4.783360   -0.244561   -0.100697
     89          6           0        6.089786    0.575689   -0.256990
     90          6           0        4.297771   -0.729840   -1.503015
     91          6           0        4.726435   -1.056059    2.372882
     92          6           0        3.673728   -2.009685    2.841082
     93          1           0        2.459776   -1.394520    3.562108
     94          7           0        8.446798    2.368811   -0.833305
     95          6           0        7.105692    2.778187   -0.919272
     96          6           0        7.034313    4.099891   -1.400890
     97          6           0        8.405998    4.587633   -1.630920
     98          6           0        9.217418    3.453455   -1.292122
     99          6           0        5.777209    4.835112   -1.763469
    100          6           0        8.980042    5.951614   -2.213087
    101          8           0       10.170826    6.139851   -2.292464
    102          6           0        8.049904    7.095955   -2.589775
    103          7           0       11.150753    1.071896   -0.700803
    104          6           0       11.487885    2.273345   -1.236865
    105          6           0       13.056009    2.309943   -1.568538
    106          6           0       13.611927    1.035548   -0.794597
    107          6           0       12.246077    0.310419   -0.433702
    108          6           0       13.442640    2.286849   -3.073231
    109          6           0       14.470146    1.375508    0.475654
    110          6           0       15.777830    0.703179    0.435289
    111          7           0        9.820973   -1.260626    0.439920
    112          6           0       11.128254   -1.723863    0.580657
    113          6           0       11.119085   -3.051239    1.132604
    114          6           0        9.782330   -3.325806    1.337716
    115          6           0        9.047112   -2.250373    0.949814
    116          6           0       12.421224   -3.827679    1.459913
    117          6           0        8.842321   -4.334700    1.790530
    118          8           0        9.072553   -5.482467    2.101815
    119          6           0        7.368068   -3.704977    1.654561
    120          6           0        6.570584   -4.547135    0.744258
    121          8           0        6.884734   -4.805199   -0.447301
    122          8           0        5.485630   -5.011580    1.428352
    123          6           0        4.799981   -6.161589    0.781526
    124          1           0        5.035544    2.228356   -0.904464
    125          1           0       11.206829    4.180705   -1.858625
    126          1           0       13.200134   -1.467630    0.091774
    127          1           0        4.755074   -2.229104    0.548857
    128          1           0        3.963785    0.373712    0.265954
    129          1           0        3.785611   -1.692741   -1.484909
    130          1           0        5.177130   -0.765889   -2.146598
    131          1           0        3.669828   -0.030883   -2.054918
    132          1           0        4.381152   -0.022402    2.364389
    133          1           0        5.546251   -1.043913    3.091705
    134          1           0        4.259911   -2.664043    3.486493
    135          1           0        3.230111   -2.513893    1.982648
    136          1           0        5.477528    5.626454   -1.076042
    137          1           0        4.935718    4.144868   -1.719499
    138          1           0        5.715335    5.301358   -2.746407
    139          1           0        8.701378    7.939517   -2.814692
    140          1           0        7.286190    7.260645   -1.829135
    141          1           0        7.381772    6.777937   -3.390663
    142          1           0       13.482072    3.258000   -1.239869
    143          1           0       14.186094    0.431862   -1.499024
    144          1           0       12.623662    2.170132   -3.783747
    145          1           0       14.142062    1.488599   -3.322885
    146          1           0       13.942405    3.233494   -3.280374
    147          1           0       13.953133    0.990995    1.355617
    148          1           0       14.691559    2.434829    0.604077
    149          1           0       16.525633    1.420898    0.096963
    150          1           0       15.878132   -0.230018   -0.117824
    151          1           0       16.028747    0.343697    1.433304
    152          1           0       13.253935   -3.124458    1.487130
    153          1           0       12.545902   -4.693449    0.807920
    154          1           0       12.274034   -4.169380    2.483774
    155          1           0        6.871398   -3.631966    2.622410
    156          1           0        4.033105   -6.564786    1.442707
    157          1           0        5.556599   -6.944814    0.729932
    158          1           0        4.461079   -5.815287   -0.195257
 ---------------------------------------------------------------------

 SCF Done:  E(RCAM-B3LYP) =  -4069.79277244     A.U. after   19 cycles

 Excitation energies and oscillator strengths:

 Excited State   1:      Singlet-A      1.6888 eV  734.15 nm  f=0.3514  <S**2>=0.000
     309 -> 315       -0.20072
     311 -> 314        0.68049
     309 <- 315       -0.11491
 This state for optimization and/or second-order correction.
 Total Energy, E(TD-HF/TD-DFT) =  -4069.73070998
 Copying the excited state density for this state as the 1-particle RhoCI density.

 Excited State   2:      Singlet-A      1.7437 eV  711.05 nm  f=0.3871  <S**2>=0.000
     310 -> 316       -0.17826
     312 -> 313        0.68465
     310 <- 316       -0.10690

 Excited State   3:      Singlet-A      2.1996 eV  563.66 nm  f=0.0796  <S**2>=0.000
     309 -> 314        0.56002
     310 -> 313       -0.27849
     311 -> 315        0.29807
     312 -> 316       -0.10529

 Excited State   4:      Singlet-A      2.2022 eV  562.99 nm  f=0.1537  <S**2>=0.000
     309 -> 314        0.26247
     310 -> 313        0.59179
     311 -> 315        0.14184
     312 -> 316        0.22627

 Excited State   5:      Singlet-A      2.8994 eV  427.63 nm  f=0.0000  <S**2>=0.000
     312 -> 314        0.70695

 The electronic state is 1-A.
 Alpha  occ. eigenvalues --  -46.90367 -46.87103 -19.25607 -19.25225 -19.19819
 Alpha  occ. eigenvalues --  -19.19457 -19.19010 -19.18999 -19.18970 -19.18227
 Alpha  occ. eigenvalues --  -14.42589 -14.42129 -14.41980 -14.41425 -14.40293
 Alpha  occ. eigenvalues --  -14.39696 -14.39211 -14.38479 -10.39371 -10.38879
 Alpha  occ. eigenvalues --  -10.36273 -10.35114 -10.34971 -10.34479 -10.32602
 Alpha  occ. eigenvalues --  -10.32163 -10.32143 -10.31548 -10.31134 -10.31083
 Alpha  occ. eigenvalues --  -10.30964 -10.30894 -10.30858 -10.30558 -10.30548
 Alpha  occ. eigenvalues --  -10.30534 -10.30363 -10.30109 -10.30003 -10.29842
 Alpha  occ. eigenvalues --  -10.29021 -10.29010 -10.28969 -10.28888 -10.28867
 Alpha  occ. eigenvalues --  -10.28603 -10.28534 -10.28532 -10.28306 -10.28254
 Alpha  occ. eigenvalues --  -10.28219 -10.28066 -10.28011 -10.27983 -10.27824
 Alpha  occ. eigenvalues --  -10.27823 -10.27789 -10.27660 -10.27650 -10.27593
 Alpha  occ. eigenvalues --  -10.27579 -10.27548 -10.27334 -10.27169 -10.27132
 Alpha  occ. eigenvalues --  -10.27124 -10.27066 -10.26937 -10.26867 -10.26767
 Alpha  occ. eigenvalues --  -10.26660 -10.26579 -10.26381 -10.26337 -10.26276
 Alpha  occ. eigenvalues --  -10.26060 -10.25974 -10.25937 -10.25794 -10.25717
 Alpha  occ. eigenvalues --  -10.25678 -10.25653 -10.25279 -10.25204 -10.24603
 Alpha  occ. eigenvalues --  -10.24281  -3.18674  -3.15831  -1.93538  -1.93161
 Alpha  occ. eigenvalues --   -1.92951  -1.90736  -1.90275  -1.90156  -1.17213
 Alpha  occ. eigenvalues --   -1.15704  -1.11640  -1.10373  -1.10258  -1.08962
 Alpha  occ. eigenvalues --   -1.07855  -1.06278  -1.04857  -1.04756  -1.03835
 Alpha  occ. eigenvalues --   -1.03266  -1.02552  -1.02480  -1.01757  -1.01351
 Alpha  occ. eigenvalues --   -0.92506  -0.92098  -0.89108  -0.89101  -0.88983
 Alpha  occ. eigenvalues --   -0.88594  -0.88407  -0.87958  -0.87243  -0.86950
 Alpha  occ. eigenvalues --   -0.86340  -0.86269  -0.85753  -0.85512  -0.84842
 Alpha  occ. eigenvalues --   -0.84218  -0.84198  -0.83768  -0.83007  -0.82831
 Alpha  occ. eigenvalues --   -0.82776  -0.82038  -0.81246  -0.81120  -0.80594
 Alpha  occ. eigenvalues --   -0.80410  -0.78158  -0.78050  -0.77498  -0.77243
 Alpha  occ. eigenvalues --   -0.76705  -0.76538  -0.76460  -0.75660  -0.75116
 Alpha  occ. eigenvalues --   -0.74809  -0.73008  -0.72807  -0.71874  -0.70853
 Alpha  occ. eigenvalues --   -0.69061  -0.68683  -0.68526  -0.68280  -0.68054
 Alpha  occ. eigenvalues --   -0.67492  -0.66838  -0.66462  -0.65738  -0.65434
 Alpha  occ. eigenvalues --   -0.65353  -0.65111  -0.64908  -0.64490  -0.64186
 Alpha  occ. eigenvalues --   -0.63971  -0.62567  -0.61883  -0.60437  -0.60239
 Alpha  occ. eigenvalues --   -0.60038  -0.59425  -0.59172  -0.59132  -0.58841
 Alpha  occ. eigenvalues --   -0.58143  -0.57954  -0.57618  -0.57552  -0.57420
 Alpha  occ. eigenvalues --   -0.56471  -0.56087  -0.55995  -0.55612  -0.55446
 Alpha  occ. eigenvalues --   -0.55191  -0.55056  -0.54935  -0.54663  -0.54015
 Alpha  occ. eigenvalues --   -0.53785  -0.53693  -0.53478  -0.53333  -0.53213
 Alpha  occ. eigenvalues --   -0.52771  -0.52642  -0.52552  -0.52488  -0.52177
 Alpha  occ. eigenvalues --   -0.51910  -0.51818  -0.51749  -0.51673  -0.51481
 Alpha  occ. eigenvalues --   -0.50959  -0.50831  -0.50819  -0.50390  -0.50309
 Alpha  occ. eigenvalues --   -0.50017  -0.49954  -0.49840  -0.49726  -0.49630
 Alpha  occ. eigenvalues --   -0.49390  -0.49364  -0.49346  -0.49100  -0.49029
 Alpha  occ. eigenvalues --   -0.48659  -0.48651  -0.48411  -0.47942  -0.47876
 Alpha  occ. eigenvalues --   -0.47609  -0.47453  -0.47178  -0.47097  -0.47049
 Alpha  occ. eigenvalues --   -0.46748  -0.46710  -0.46573  -0.46438  -0.46378
 Alpha  occ. eigenvalues --   -0.46065  -0.45952  -0.45772  -0.45751  -0.45669
 Alpha  occ. eigenvalues --   -0.45467  -0.45329  -0.45326  -0.45244  -0.45057
 Alpha  occ. eigenvalues --   -0.45009  -0.44676  -0.44603  -0.44508  -0.44384
 Alpha  occ. eigenvalues --   -0.44254  -0.44101  -0.43821  -0.43728  -0.43370
 Alpha  occ. eigenvalues --   -0.43324  -0.43295  -0.43039  -0.42849  -0.42800
 Alpha  occ. eigenvalues --   -0.42538  -0.42535  -0.42208  -0.42145  -0.41866
 Alpha  occ. eigenvalues --   -0.41806  -0.41642  -0.41557  -0.41435  -0.41153
 Alpha  occ. eigenvalues --   -0.41006  -0.40868  -0.40420  -0.40275  -0.40180
 Alpha  occ. eigenvalues --   -0.39967  -0.39958  -0.39076  -0.38794  -0.38748
 Alpha  occ. eigenvalues --   -0.38281  -0.38148  -0.37762  -0.37736  -0.37569
 Alpha  occ. eigenvalues --   -0.37266  -0.36909  -0.36691  -0.36539  -0.36252
 Alpha  occ. eigenvalues --   -0.35902  -0.35884  -0.34400  -0.34258  -0.34168
 Alpha  occ. eigenvalues --   -0.34080  -0.33500  -0.33080  -0.31694  -0.31531
 Alpha  occ. eigenvalues --   -0.31195  -0.30888  -0.30829  -0.30791  -0.30420
 Alpha  occ. eigenvalues --   -0.29911  -0.29486  -0.29076  -0.24434  -0.23892
 Alpha  occ. eigenvalues --   -0.21468  -0.21451
 Alpha virt. eigenvalues --   -0.08935  -0.08918  -0.02708  -0.01191   0.00118
 Alpha virt. eigenvalues --    0.00812   0.00891   0.02279   0.02864   0.03530
 Alpha virt. eigenvalues --    0.04570   0.04628   0.04999   0.05553   0.06213

 Mulliken charges:
               1
     1  Mg   0.808989
     2  C   -0.024382
     3  C   -0.063649
     4  C   -0.069433
     5  C   -0.046330
     6  N   -0.259963
     7  C   -0.095614
     8  C    0.047150
     9  C   -0.095056
    10  C    0.038606
    11  C    0.067264
    12  C    0.028203
    13  C   -0.086033
    14  H   -0.004697
    15  N   -0.383396
    16  C    0.150773
    17  C   -0.160441
    18  C   -0.041679
    19  C    0.173009
    20  C    0.133685
    21  C   -0.013158
    22  O   -0.204469
    23  C    0.070731
    24  N   -0.255798
    25  C    0.022711
    26  C   -0.100989
    27  C   -0.016257
    28  C    0.028500
    29  C    0.062429
    30  C    0.013493
    31  C    0.006331
    32  N   -0.412723
    33  C    0.143999
    34  C   -0.181348
    35  C    0.017321
    36  C    0.150084
    37  C    0.132555
    38  C    0.023850
    39  O   -0.196494
    40  C    0.022562
    41  C    0.168794
    42  O   -0.207270
    43  O   -0.315583
    44  C    0.170871
    45  H   -0.008531
    46  H   -0.041436
    47  H   -0.025097
    48  H    0.008929
    49  H    0.035443
    50  H    0.010306
    51  H    0.023211
    52  H    0.020963
    53  H    0.017875
    54  H    0.016083
    55  H    0.065629
    56  H    0.027944
    57  H    0.007164
    58  H    0.024291
    59  H    0.038569
    60  H    0.044187
    61  H    0.029587
    62  H    0.035260
    63  H    0.014878
    64  H   -0.005246
    65  H    0.022541
    66  H    0.010736
    67  H    0.024285
    68  H    0.012339
    69  H    0.009308
    70  H    0.031565
    71  H    0.005778
    72  H    0.005576
    73  H    0.031944
    74  H    0.035204
    75  H    0.039345
    76  H    0.037482
    77  H    0.053801
    78  H    0.041168
    79  H    0.051771
    80  Mg   0.836487
    81  C   -0.017195
    82  C   -0.093157
    83  C   -0.052803
    84  C   -0.080296
    85  N   -0.248999
    86  C   -0.021665
    87  C   -0.041101
    88  C   -0.078730
    89  C    0.007112
    90  C    0.066211
    91  C    0.084171
    92  C   -0.064722
    93  H    0.015950
    94  N   -0.438750
    95  C    0.227530
    96  C   -0.127479
    97  C   -0.044739
    98  C    0.133447
    99  C    0.086751
   100  C    0.029697
   101  O   -0.182157
   102  C    0.052810
   103  N   -0.286458
   104  C    0.051608
   105  C   -0.061451
   106  C   -0.034511
   107  C    0.042336
   108  C    0.054143
   109  C    0.073783
   110  C   -0.018398
   111  N   -0.354986
   112  C    0.116763
   113  C   -0.202503
   114  C    0.058948
   115  C    0.084158
   116  C    0.134340
   117  C    0.026969
   118  O   -0.153751
   119  C    0.027128
   120  C    0.210870
   121  O   -0.254134
   122  O   -0.341394
   123  C    0.182564
   124  H   -0.035806
   125  H   -0.006491
   126  H   -0.029245
   127  H    0.004696
   128  H    0.000127
   129  H    0.022965
   130  H    0.021558
   131  H    0.011433
   132  H    0.007174
   133  H    0.004862
   134  H    0.042579
   135  H    0.031988
   136  H    0.028064
   137  H   -0.000172
   138  H    0.023500
   139  H    0.044950
   140  H    0.025247
   141  H    0.027656
   142  H    0.011439
   143  H    0.015143
   144  H    0.022278
   145  H    0.008646
   146  H    0.015343
   147  H    0.011093
   148  H    0.012700
   149  H    0.016364
   150  H    0.008561
   151  H    0.004007
   152  H    0.010944
   153  H    0.043195
   154  H    0.026393
   155  H    0.026384
   156  H    0.041441
   157  H    0.046363
   158  H    0.050222
 Sum of Mulliken charges =  -0.00000

 Dipole moment (field-independent basis, Debye):
    X=             -4.8276    Y=              3.8466    Z=              1.0152  Tot=              6.2556
 Quadrupole moment (field-independent basis, Debye-Ang):
   XX=           -499.3992   YY=           -485.9754   ZZ=           -548.9263
   XY=             -1.1288   XZ=            -27.0831   YZ=             -7.8051

 Normal termination of Gaussian 16 at Tue Sep 14 17:32:40 2021.
