 Gaussian 16, Revision A.03,
 Gaussian 16:  ES64L-G16RevA.03 25-Dec-2016

 -----------------------------------
 #p cam-b3lyp/Def2SVP td=(nstates=5)
 -----------------------------------

 --------------------------------
 TDDFT excited states in gaussian
 --------------------------------
 Symbolic Z-matrix:
 Charge =  0 Multiplicity = 1

                         Standard orientation:
 ---------------------------------------------------------------------
 Center     Atomic      Atomic             Coordinates (Angstroms)
 Number     Number       Type             X           Y           Z
 ---------------------------------------------------------------------
      1         12           0       12.948381   -0.826873   -0.255705
      2          6           0       15.432747    1.671163    0.376715
      3          6           0       10.818975    1.015431    1.671627
      4          6           0       10.888873   -3.232478   -0.423379
      5          6           0       15.545069   -2.972089   -1.150652
      6          7           0       13.209017    1.084343    0.830558
      7          6           0       14.192193    1.971915    0.943478
      8          6           0       13.758147    3.287300    1.656737
      9          6           0       12.517797    2.726181    2.486602
     10          6           0       12.135248    1.559712    1.592774
     11          6           0       12.898546    2.187049    3.861691
     12          6           0       13.314993    4.395088    0.642759
     13          6           0       13.189420    5.804524    1.228487
     14          1           0       13.556412    6.942662    0.399447
     15          7           0       11.003105   -0.874190    0.085634
     16          6           0       10.300628   -0.036340    0.885522
     17          6           0        8.893010   -0.482581    0.807031
     18          6           0        8.863300   -1.763000    0.046941
     19          6           0       10.271594   -2.024664   -0.106740
     20          6           0        7.748458    0.301913    1.371230
     21          6           0        7.743473   -2.620846   -0.451276
     22          8           0        7.937158   -3.807625   -0.885575
     23          6           0        6.384806   -2.061155   -0.333750
     24          7           0       13.186699   -2.885265   -0.508420
     25          6           0       12.127191   -3.695841   -0.605335
     26          6           0       12.528704   -5.067031   -1.062024
     27          6           0       14.062256   -4.957893   -1.493373
     28          6           0       14.310358   -3.477996   -1.110466
     29          6           0       12.367975   -6.190431   -0.028510
     30          6           0       14.423896   -5.419288   -2.927511
     31          6           0       13.806146   -4.480668   -3.939675
     32          7           0       15.092399   -0.655098   -0.546780
     33          6           0       15.980653   -1.682153   -0.897261
     34          6           0       17.338271   -1.107584   -0.868778
     35          6           0       17.145702    0.218141   -0.485092
     36          6           0       15.758438    0.449633   -0.261031
     37          6           0       18.547679   -1.814252   -1.118553
     38          6           0       17.791691    1.486422   -0.188413
     39          8           0       18.939954    1.920087   -0.292915
     40          6           0       16.721907    2.444865    0.499174
     41          6           0       16.806210    3.783261   -0.182661
     42          8           0       16.466212    3.915807   -1.376059
     43          8           0       17.044063    4.734592    0.733274
     44          6           0       17.110108    6.090966    0.126608
     45          1           0       10.140427    1.384774    2.443054
     46          1           0       10.201922   -4.063046   -0.598572
     47          1           0       16.396439   -3.558942   -1.500259
     48          1           0       14.502792    3.703190    2.335680
     49          1           0       11.702560    3.447633    2.537776
     50          1           0       13.980144    2.159087    3.993160
     51          1           0       12.483679    1.179803    3.904501
     52          1           0       12.399388    2.750474    4.650469
     53          1           0       12.278938    4.222178    0.351635
     54          1           0       13.984496    4.420599   -0.217729
     55          1           0       13.667597    5.873994    2.205948
     56          1           0       12.135556    5.998806    1.428049
     57          1           0        8.095148    1.110447    2.013588
     58          1           0        7.205813   -0.364104    2.041802
     59          1           0        7.077704    0.666506    0.593097
     60          1           0        6.174522   -1.843711    0.713651
     61          1           0        5.722163   -2.775387   -0.821220
     62          1           0        6.349899   -1.105803   -0.858185
     63          1           0       11.937559   -5.381815   -1.921026
     64          1           0       14.711238   -5.553450   -0.850871
     65          1           0       11.733762   -7.009892   -0.367571
     66          1           0       11.980683   -5.750439    0.890023
     67          1           0       13.302996   -6.629188    0.318829
     68          1           0       14.017481   -6.411544   -3.120384
     69          1           0       15.498065   -5.459928   -3.108507
     70          1           0       12.791846   -4.865106   -4.040842
     71          1           0       14.341711   -4.537820   -4.887892
     72          1           0       13.732447   -3.465808   -3.548379
     73          1           0       19.154268   -1.166578   -1.751432
     74          1           0       18.354273   -2.771767   -1.601628
     75          1           0       18.928416   -1.927928   -0.103677
     76          1           0       16.987567    2.505392    1.554107
     77          1           0       18.072221    6.520832    0.405512
     78          1           0       16.209699    6.616835    0.444619
     79          1           0       17.174992    6.129774   -0.961337
     80         12           0      -13.613121   -0.540299    0.184560
     81          6           0      -13.126908    2.902411   -0.862018
     82          6           0      -12.197356    0.394226    3.097833
     83          6           0      -13.995455   -3.587544    1.062573
     84          6           0      -14.753807   -1.290643   -3.082349
     85          7           0      -12.757873    1.545526    1.033928
     86          6           0      -12.766865    2.763082    0.464426
     87          6           0      -12.324534    3.831014    1.482973
     88          6           0      -11.625620    2.841609    2.527544
     89          6           0      -12.262515    1.544692    2.251988
     90          6           0      -10.117353    2.917945    2.695683
     91          6           0      -13.568949    4.589641    1.975756
     92          6           0      -13.242567    6.027929    2.475191
     93          1           0      -11.837939    6.745675    2.216780
     94          7           0      -13.199170   -1.510408    1.903342
     95          6           0      -12.526311   -0.995670    2.994876
     96          6           0      -12.341257   -2.076462    3.958449
     97          6           0      -12.934716   -3.238579    3.406633
     98          6           0      -13.400492   -2.789681    2.063934
     99          6           0      -11.653884   -1.929068    5.242482
    100          6           0      -13.123300   -4.713115    4.044001
    101          8           0      -13.806230   -5.544804    3.511741
    102          6           0      -12.697364   -5.024686    5.489943
    103          7           0      -14.032086   -2.247910   -0.971695
    104          6           0      -14.280507   -3.372427   -0.305181
    105          6           0      -14.858836   -4.478565   -1.146173
    106          6           0      -15.445739   -3.626438   -2.297914
    107          6           0      -14.550104   -2.346151   -2.171963
    108          6           0      -13.780523   -5.532218   -1.680195
    109          6           0      -17.006626   -3.350089   -2.238476
    110          6           0      -17.953494   -4.386695   -1.566603
    111          7           0      -13.793691    0.493880   -1.634990
    112          6           0      -14.308361    0.126674   -2.834586
    113          6           0      -14.448155    1.213357   -3.694054
    114          6           0      -13.955911    2.266738   -2.977705
    115          6           0      -13.579580    1.831894   -1.722260
    116          6           0      -15.081805    1.185644   -5.082248
    117          6           0      -13.742153    3.717329   -3.090961
    118          8           0      -13.776207    4.494308   -4.033396
    119          6           0      -13.259705    4.166991   -1.643148
    120          6           0      -12.039508    4.936888   -1.810353
    121          8           0      -10.905222    4.495623   -2.020576
    122          8           0      -12.407565    6.226657   -1.958185
    123          6           0      -11.343918    7.049678   -2.505338
    124          1           0      -11.578629    0.657406    3.958369
    125          1           0      -14.074159   -4.627849    1.383372
    126          1           0      -15.201174   -1.551867   -4.043449
    127          1           0      -11.543116    4.473594    1.077098
    128          1           0      -11.986109    3.150715    3.507717
    129          1           0       -9.832644    3.295577    3.677273
    130          1           0       -9.685527    3.563504    1.931140
    131          1           0       -9.603229    1.970590    2.533363
    132          1           0      -13.931381    4.071977    2.864162
    133          1           0      -14.395323    4.597159    1.265255
    134          1           0      -13.500203    6.158158    3.526760
    135          1           0      -14.079263    6.596025    2.068852
    136          1           0      -11.666066   -0.896787    5.591621
    137          1           0      -10.635636   -2.272331    5.058805
    138          1           0      -12.091876   -2.514344    6.051307
    139          1           0      -13.270341   -4.484969    6.243898
    140          1           0      -11.615868   -4.887039    5.489641
    141          1           0      -12.789528   -6.094416    5.679602
    142          1           0      -15.559706   -4.957570   -0.462897
    143          1           0      -15.266044   -4.057152   -3.282648
    144          1           0      -14.279746   -6.477953   -1.470575
    145          1           0      -12.825237   -5.505233   -1.154803
    146          1           0      -13.572902   -5.497515   -2.748995
    147          1           0      -17.359035   -3.135528   -3.246373
    148          1           0      -17.029906   -2.497413   -1.559637
    149          1           0      -18.019570   -4.201615   -0.494739
    150          1           0      -17.531315   -5.344521   -1.872632
    151          1           0      -18.953624   -4.371672   -1.998366
    152          1           0      -15.814459    0.379910   -5.030552
    153          1           0      -14.382137    0.904575   -5.868831
    154          1           0      -15.544595    2.155318   -5.264829
    155          1           0      -14.059245    4.784799   -1.232374
    156          1           0      -11.633564    8.089825   -2.651915
    157          1           0      -10.798265    6.640979   -3.355985
    158          1           0      -10.538407    7.160108   -1.778533
 ---------------------------------------------------------------------

 SCF Done:  E(RCAM-B3LYP) =  -4069.78908244     A.U. after   18 cycles

 Excitation energies and oscillator strengths:

 Excited State   1:      Singlet-A      1.6799 eV  738.05 nm  f=0.3917  <S**2>=0.000
     309 -> 315        0.17556
     312 -> 313        0.68568
     309 <- 315        0.10515
 This state for optimization and/or second-order correction.
 Total Energy, E(TD-HF/TD-DFT) =  -4069.72734783
 Copying the excited state density for this state as the 1-particle RhoCI density.

 Excited State   2:      Singlet-A      1.8345 eV  675.87 nm  f=0.3704  <S**2>=0.000
     310 -> 316       -0.18810
     311 -> 314        0.68156
     310 <- 316       -0.10398

 Excited State   3:      Singlet-A      2.1926 eV  565.47 nm  f=0.0957  <S**2>=0.000
     309 -> 313        0.64069
     312 -> 315       -0.27830

 Excited State   4:      Singlet-A      2.2401 eV  553.49 nm  f=0.1579  <S**2>=0.000
     310 -> 314        0.65516
     311 -> 316        0.25330

 Excited State   5:      Singlet-A      3.0916 eV  401.03 nm  f=0.0000  <S**2>=0.000
     311 -> 313        0.70705

 The electronic state is 1-A.
 Alpha  occ. eigenvalues --  -46.89406 -46.87766 -19.26253 -19.24943 -19.20568
 Alpha  occ. eigenvalues --  -19.18988 -19.18904 -19.18815 -19.18780 -19.18140
 Alpha  occ. eigenvalues --  -14.42420 -14.41528 -14.41419 -14.41173 -14.39998
 Alpha  occ. eigenvalues --  -14.39372 -14.38688 -14.38557 -10.39048 -10.38264
 Alpha  occ. eigenvalues --  -10.37021 -10.35413 -10.34861 -10.34360 -10.31648
 Alpha  occ. eigenvalues --  -10.31376 -10.31293 -10.30879 -10.30843 -10.30777
 Alpha  occ. eigenvalues --  -10.30663 -10.30581 -10.30540 -10.30477 -10.30177
 Alpha  occ. eigenvalues --  -10.29891 -10.29644 -10.29634 -10.29600 -10.29472
 Alpha  occ. eigenvalues --  -10.29258 -10.29224 -10.28720 -10.28545 -10.28506
 Alpha  occ. eigenvalues --  -10.28453 -10.28335 -10.28090 -10.28020 -10.27883
 Alpha  occ. eigenvalues --  -10.27763 -10.27752 -10.27698 -10.27571 -10.27558
 Alpha  occ. eigenvalues --  -10.27553 -10.27538 -10.27471 -10.27451 -10.27420
 Alpha  occ. eigenvalues --  -10.27405 -10.27373 -10.27346 -10.27298 -10.27175
 Alpha  occ. eigenvalues --  -10.27165 -10.27129 -10.26672 -10.26543 -10.26370
 Alpha  occ. eigenvalues --  -10.26247 -10.26213 -10.26151 -10.26150 -10.26022
 Alpha  occ. eigenvalues --  -10.25989 -10.25815 -10.25570 -10.25513 -10.25412
 Alpha  occ. eigenvalues --  -10.25411 -10.25261 -10.24803 -10.24758 -10.24651
 Alpha  occ. eigenvalues --  -10.23764  -3.17907  -3.16509  -1.92808  -1.92380
 Alpha  occ. eigenvalues --   -1.92192  -1.91390  -1.90977  -1.90819  -1.16602
 Alpha  occ. eigenvalues --   -1.16535  -1.12650  -1.09496  -1.08598  -1.07181
 Alpha  occ. eigenvalues --   -1.06684  -1.06611  -1.05826  -1.05248  -1.04680
 Alpha  occ. eigenvalues --   -1.04551  -1.03730  -1.03456  -1.03203  -1.02381
 Alpha  occ. eigenvalues --   -0.92390  -0.91942  -0.89489  -0.89215  -0.89160
 Alpha  occ. eigenvalues --   -0.88799  -0.88257  -0.88142  -0.87841  -0.87643
 Alpha  occ. eigenvalues --   -0.87568  -0.87242  -0.86945  -0.85630  -0.84952
 Alpha  occ. eigenvalues --   -0.84418  -0.83906  -0.83149  -0.82933  -0.82618
 Alpha  occ. eigenvalues --   -0.82421  -0.81982  -0.81555  -0.80772  -0.80565
 Alpha  occ. eigenvalues --   -0.80139  -0.78766  -0.78651  -0.77188  -0.76905
 Alpha  occ. eigenvalues --   -0.76889  -0.76677  -0.75895  -0.75756  -0.75303
 Alpha  occ. eigenvalues --   -0.74869  -0.72798  -0.72745  -0.71706  -0.71644
 Alpha  occ. eigenvalues --   -0.69876  -0.69702  -0.68843  -0.68806  -0.67623
 Alpha  occ. eigenvalues --   -0.67610  -0.67188  -0.66813  -0.65492  -0.65257
 Alpha  occ. eigenvalues --   -0.65115  -0.64824  -0.64706  -0.64590  -0.64239
 Alpha  occ. eigenvalues --   -0.63725  -0.62267  -0.61851  -0.60856  -0.60410
 Alpha  occ. eigenvalues --   -0.59775  -0.59554  -0.59284  -0.58958  -0.58474
 Alpha  occ. eigenvalues --   -0.58447  -0.57962  -0.57554  -0.57521  -0.57278
 Alpha  occ. eigenvalues --   -0.56580  -0.56280  -0.55948  -0.55523  -0.55489
 Alpha  occ. eigenvalues --   -0.55309  -0.55232  -0.54661  -0.54493  -0.54093
 Alpha  occ. eigenvalues --   -0.53866  -0.53829  -0.53657  -0.53267  -0.53191
 Alpha  occ. eigenvalues --   -0.53000  -0.52916  -0.52884  -0.52724  -0.52406
 Alpha  occ. eigenvalues --   -0.52321  -0.51886  -0.51720  -0.51585  -0.51336
 Alpha  occ. eigenvalues --   -0.51193  -0.51166  -0.50699  -0.50538  -0.50505
 Alpha  occ. eigenvalues --   -0.50074  -0.50001  -0.49887  -0.49759  -0.49484
 Alpha  occ. eigenvalues --   -0.49184  -0.49126  -0.49068  -0.48958  -0.48812
 Alpha  occ. eigenvalues --   -0.48655  -0.48564  -0.48431  -0.48413  -0.48338
 Alpha  occ. eigenvalues --   -0.47947  -0.47664  -0.47547  -0.47438  -0.47267
 Alpha  occ. eigenvalues --   -0.47087  -0.46785  -0.46767  -0.46525  -0.46329
 Alpha  occ. eigenvalues --   -0.46250  -0.46133  -0.45800  -0.45793  -0.45479
 Alpha  occ. eigenvalues --   -0.45172  -0.44976  -0.44691  -0.44548  -0.44475
 Alpha  occ. eigenvalues --   -0.44417  -0.44364  -0.44113  -0.44108  -0.44059
 Alpha  occ. eigenvalues --   -0.43988  -0.43945  -0.43850  -0.43464  -0.43356
 Alpha  occ. eigenvalues --   -0.43352  -0.43299  -0.43003  -0.42998  -0.42694
 Alpha  occ. eigenvalues --   -0.42668  -0.42623  -0.42523  -0.42300  -0.42118
 Alpha  occ. eigenvalues --   -0.41978  -0.41674  -0.41504  -0.41465  -0.41396
 Alpha  occ. eigenvalues --   -0.41112  -0.40839  -0.40789  -0.40541  -0.40439
 Alpha  occ. eigenvalues --   -0.40202  -0.39774  -0.39409  -0.39381  -0.38658
 Alpha  occ. eigenvalues --   -0.38439  -0.38297  -0.38131  -0.37717  -0.37486
 Alpha  occ. eigenvalues --   -0.37290  -0.37233  -0.36682  -0.36645  -0.36162
 Alpha  occ. eigenvalues --   -0.35974  -0.35690  -0.34256  -0.34215  -0.33773
 Alpha  occ. eigenvalues --   -0.33739  -0.33156  -0.32524  -0.31971  -0.31567
 Alpha  occ. eigenvalues --   -0.31310  -0.31005  -0.30651  -0.30411  -0.29999
 Alpha  occ. eigenvalues --   -0.29520  -0.29418  -0.29292  -0.24050  -0.23418
 Alpha  occ. eigenvalues --   -0.21409  -0.21098
 Alpha virt. eigenvalues --   -0.08744  -0.08299  -0.01719  -0.01122  -0.00026
 Alpha virt. eigenvalues --    0.00523   0.02230   0.02380   0.02699   0.03157
 Alpha virt. eigenvalues --    0.04146   0.04748   0.05129   0.05670   0.05835

 Mulliken charges:
               1
     1  Mg   0.838827
     2  C   -0.002940
     3  C   -0.094098
     4  C   -0.045891
     5  C   -0.063966
     6  N   -0.256772
     7  C   -0.052461
     8  C   -0.014028
     9  C   -0.087010
    10  C    0.046353
    11  C    0.104844
    12  C    0.053460
    13  C   -0.071831
    14  H    0.036236
    15  N   -0.433145
    16  C    0.168464
    17  C   -0.177176
    18  C   -0.003976
    19  C    0.148740
    20  C    0.110220
    21  C    0.012329
    22  O   -0.249612
    23  C    0.062440
    24  N   -0.341154
    25  C    0.041264
    26  C   -0.028178
    27  C   -0.023966
    28  C    0.074848
    29  C    0.076202
    30  C    0.035129
    31  C   -0.004517
    32  N   -0.310476
    33  C    0.080414
    34  C   -0.169716
    35  C    0.008343
    36  C    0.082985
    37  C    0.127309
    38  C    0.046116
    39  O   -0.188473
    40  C   -0.005347
    41  C    0.212875
    42  O   -0.257027
    43  O   -0.304839
    44  C    0.157678
    45  H   -0.017711
    46  H   -0.016840
    47  H   -0.041515
    48  H    0.000881
    49  H   -0.004022
    50  H    0.025440
    51  H    0.016380
    52  H    0.016548
    53  H    0.011296
    54  H    0.044186
    55  H    0.017773
    56  H    0.017964
    57  H    0.005797
    58  H    0.026641
    59  H    0.039774
    60  H    0.037152
    61  H    0.035795
    62  H    0.031746
    63  H    0.016627
    64  H    0.009388
    65  H    0.023203
    66  H    0.012455
    67  H    0.004686
    68  H    0.006349
    69  H    0.004703
    70  H    0.008843
    71  H    0.018198
    72  H    0.029019
    73  H    0.047583
    74  H    0.009111
    75  H    0.045935
    76  H    0.035078
    77  H    0.042904
    78  H    0.046407
    79  H    0.053749
    80  Mg   0.824289
    81  C    0.009990
    82  C   -0.058375
    83  C   -0.077429
    84  C   -0.071080
    85  N   -0.187792
    86  C   -0.104849
    87  C   -0.021643
    88  C   -0.035972
    89  C   -0.028543
    90  C    0.088155
    91  C    0.049009
    92  C   -0.037940
    93  H    0.035108
    94  N   -0.382885
    95  C    0.143306
    96  C   -0.138039
    97  C   -0.053107
    98  C    0.096466
    99  C    0.105635
   100  C    0.029697
   101  O   -0.167188
   102  C    0.040791
   103  N   -0.248117
   104  C    0.043866
   105  C   -0.049664
   106  C   -0.064517
   107  C    0.033779
   108  C    0.074609
   109  C    0.034629
   110  C    0.005238
   111  N   -0.317548
   112  C    0.075634
   113  C   -0.206241
   114  C    0.001034
   115  C    0.122245
   116  C    0.136335
   117  C    0.060813
   118  O   -0.161507
   119  C   -0.025069
   120  C    0.186362
   121  O   -0.243628
   122  O   -0.299385
   123  C    0.195005
   124  H   -0.035531
   125  H   -0.013956
   126  H   -0.021967
   127  H    0.017923
   128  H   -0.009379
   129  H    0.017622
   130  H    0.020560
   131  H    0.014660
   132  H    0.007827
   133  H    0.024832
   134  H    0.015703
   135  H    0.014734
   136  H    0.021357
   137  H    0.041617
   138  H    0.018451
   139  H    0.065194
   140  H    0.023114
   141  H    0.024075
   142  H    0.019542
   143  H   -0.009257
   144  H    0.020176
   145  H    0.023925
   146  H    0.021377
   147  H    0.012477
   148  H    0.003351
   149  H    0.029262
   150  H    0.014404
   151  H    0.015762
   152  H    0.005840
   153  H    0.029909
   154  H    0.032478
   155  H    0.043061
   156  H    0.030173
   157  H    0.042726
   158  H    0.006483
 Sum of Mulliken charges =  -0.00000

 Dipole moment (field-independent basis, Debye):
    X=             -4.0573    Y=             -0.8255    Z=              8.8279  Tot=              9.7507
 Quadrupole moment (field-independent basis, Debye-Ang):
   XX=           -597.7200   YY=           -493.3440   ZZ=           -497.6413
   XY=              1.1822   XZ=            -29.6379   YZ=             36.6577

 Normal termination of Gaussian 16 at Wed Sep 15 10:10:35 2021.
