 Gaussian 16, Revision A.03,
 Gaussian 16:  ES64L-G16RevA.03 25-Dec-2016

 -----------------------------------
 #p cam-b3lyp/Def2SVP td=(nstates=5)
 -----------------------------------

 --------------------------------
 TDDFT excited states in gaussian
 --------------------------------
 Symbolic Z-matrix:
 Charge =  0 Multiplicity = 1

                         Standard orientation:
 ---------------------------------------------------------------------
 Center     Atomic      Atomic             Coordinates (Angstroms)
 Number     Number       Type             X           Y           Z
 ---------------------------------------------------------------------
      1         12           0       19.901174    0.428470    0.553008
      2          6           0       17.799886   -1.573650   -1.381993
      3          6           0       20.559211    2.316223   -2.107866
      4          6           0       22.796819    1.380055    2.100529
      5          6           0       19.220174   -1.607309    3.296749
      6          7           0       19.111299    0.471854   -1.498002
      7          6           0       18.276640   -0.412910   -2.029724
      8          6           0       17.880250    0.063586   -3.473876
      9          6           0       18.860569    1.237525   -3.709600
     10          6           0       19.588370    1.357890   -2.374044
     11          6           0       19.985215    0.938399   -4.820560
     12          6           0       16.360017    0.517606   -3.647331
     13          6           0       15.768632    0.037373   -4.928169
     14          1           0       15.063232    1.025115   -5.844694
     15          7           0       21.439263    1.695876    0.057882
     16          6           0       21.523671    2.418678   -1.102562
     17          6           0       22.568056    3.440163   -0.943291
     18          6           0       23.214720    3.154360    0.291480
     19          6           0       22.499337    1.991420    0.842478
     20          6           0       22.905537    4.495616   -2.044275
     21          6           0       24.463190    3.844050    0.919536
     22          8           0       24.951832    3.531412    1.999507
     23          6           0       25.083724    4.966405    0.176899
     24          7           0       20.867305   -0.043129    2.351178
     25          6           0       22.112824    0.416357    2.789676
     26          6           0       22.541309   -0.373366    4.054056
     27          6           0       21.147806   -0.795864    4.696299
     28          6           0       20.374135   -0.794628    3.347393
     29          6           0       23.528701   -1.520576    3.750230
     30          6           0       20.528756    0.154539    5.681439
     31          6           0       19.806344    1.385730    5.221107
     32          7           0       18.619446   -1.123222    1.016756
     33          6           0       18.465567   -1.888412    2.149651
     34          6           0       17.451371   -2.930540    1.974362
     35          6           0       17.210767   -2.923872    0.526966
     36          6           0       17.969763   -1.798707    0.018817
     37          6           0       17.028316   -3.893847    2.960824
     38          6           0       16.527179   -3.585151   -0.577901
     39          8           0       15.878268   -4.561264   -0.639143
     40          6           0       16.833263   -2.660929   -1.868737
     41          6           0       17.283414   -3.425521   -3.087885
     42          8           0       18.451107   -3.654689   -3.388963
     43          8           0       16.161371   -3.737631   -3.854864
     44          6           0       16.379580   -4.463861   -5.119015
     45          1           0       20.757172    3.138108   -2.799599
     46          1           0       23.744405    1.717016    2.526850
     47          1           0       18.983114   -2.142535    4.218193
     48          1           0       18.105248   -0.688065   -4.230923
     49          1           0       18.417964    2.179188   -4.034314
     50          1           0       19.591698    1.301216   -5.770308
     51          1           0       20.202134   -0.115504   -4.992811
     52          1           0       20.875204    1.510674   -4.556184
     53          1           0       16.259234    1.602988   -3.634453
     54          1           0       15.683791    0.210713   -2.849311
     55          1           0       14.972234   -0.627513   -4.594956
     56          1           0       16.401101   -0.546895   -5.595947
     57          1           0       23.669695    4.033792   -2.668851
     58          1           0       23.201117    5.450457   -1.608852
     59          1           0       22.132611    4.606344   -2.805561
     60          1           0       25.204966    4.938679   -0.905869
     61          1           0       26.082816    5.155993    0.568507
     62          1           0       24.647276    5.905212    0.519059
     63          1           0       23.004538    0.388458    4.680411
     64          1           0       21.192441   -1.773323    5.176262
     65          1           0       23.251273   -2.511749    4.109044
     66          1           0       24.567562   -1.272567    3.969008
     67          1           0       23.602901   -1.668441    2.673002
     68          1           0       21.226008    0.553572    6.417138
     69          1           0       19.807141   -0.409010    6.273040
     70          1           0       18.769428    1.050559    5.205409
     71          1           0       20.041452    1.727700    4.212960
     72          1           0       19.959658    2.184670    5.947285
     73          1           0       15.965580   -4.054815    2.778855
     74          1           0       17.156974   -3.428715    3.937853
     75          1           0       17.574433   -4.828004    2.833412
     76          1           0       15.898633   -2.164968   -2.130672
     77          1           0       16.975261   -5.344948   -4.878849
     78          1           0       16.958401   -3.860712   -5.818006
     79          1           0       15.522017   -4.795783   -5.704495
     80         12           0      -19.918797   -0.495625   -0.173831
     81          6           0      -19.495021    2.912245    0.250866
     82          6           0      -16.502675   -0.933590    0.145630
     83          6           0      -20.474954   -3.807521    0.168029
     84          6           0      -23.387735    0.138555   -0.129862
     85          7           0      -18.220882    0.826762    0.447988
     86          6           0      -18.307146    2.157061    0.360339
     87          6           0      -16.930817    2.805662    0.704899
     88          6           0      -15.935816    1.590023    0.394030
     89          6           0      -16.943304    0.387127    0.240221
     90          6           0      -14.988846    1.875249   -0.796517
     91          6           0      -16.871388    3.169849    2.170931
     92          6           0      -16.204668    4.498993    2.489477
     93          1           0      -15.296516    4.715581    3.758129
     94          7           0      -18.585744   -2.159198   -0.054464
     95          6           0      -17.255558   -2.159532    0.138838
     96          6           0      -16.824155   -3.519599    0.155357
     97          6           0      -17.944238   -4.388536   -0.015655
     98          6           0      -19.092791   -3.474066   -0.011749
     99          6           0      -15.384548   -3.879493    0.137345
    100          6           0      -17.866208   -5.872787    0.042041
    101          8           0      -16.783886   -6.426559    0.141216
    102          6           0      -19.109908   -6.743673   -0.089678
    103          7           0      -21.773395   -1.703683   -0.086873
    104          6           0      -21.662250   -3.044322    0.128979
    105          6           0      -22.993557   -3.637779    0.457663
    106          6           0      -23.927259   -2.339804    0.363731
    107          6           0      -23.030053   -1.196797   -0.041654
    108          6           0      -23.409050   -4.824866   -0.431320
    109          6           0      -24.794742   -2.009412    1.658047
    110          6           0      -26.319831   -1.777620    1.544061
    111          7           0      -21.189427    1.129003   -0.010052
    112          6           0      -22.542684    1.237869   -0.081413
    113          6           0      -22.905537    2.566959   -0.303652
    114          6           0      -21.740514    3.315684   -0.211171
    115          6           0      -20.741304    2.409249    0.040491
    116          6           0      -24.370964    3.066475   -0.467343
    117          6           0      -21.184143    4.585212   -0.276055
    118          8           0      -21.765331    5.661373   -0.361213
    119          6           0      -19.622344    4.463671    0.070513
    120          6           0      -18.804596    4.837191   -1.026612
    121          8           0      -18.525828    4.237184   -2.067466
    122          8           0      -18.301283    6.097014   -0.717123
    123          6           0      -17.414733    6.790376   -1.635888
    124          1           0      -15.420459   -1.066039    0.088537
    125          1           0      -20.808875   -4.842790    0.268492
    126          1           0      -24.473640    0.220038   -0.212572
    127          1           0      -16.815576    3.692752    0.082707
    128          1           0      -15.349131    1.265681    1.252896
    129          1           0      -15.232037    2.815604   -1.290790
    130          1           0      -15.047027    1.054447   -1.512071
    131          1           0      -13.969733    1.874815   -0.410540
    132          1           0      -16.440009    2.439729    2.856022
    133          1           0      -17.909406    3.127482    2.500769
    134          1           0      -16.991712    5.252271    2.458719
    135          1           0      -15.596136    4.645503    1.597123
    136          1           0      -15.202659   -4.079689   -0.918397
    137          1           0      -15.180638   -4.747181    0.765044
    138          1           0      -14.736447   -3.076160    0.487829
    139          1           0      -19.581419   -6.731965    0.893109
    140          1           0      -18.742018   -7.763045   -0.203882
    141          1           0      -19.754168   -6.379921   -0.890021
    142          1           0      -22.810822   -3.948287    1.485890
    143          1           0      -24.723614   -2.471484   -0.368809
    144          1           0      -23.300652   -5.713848    0.190897
    145          1           0      -22.820754   -4.897064   -1.346669
    146          1           0      -24.466967   -4.737474   -0.677663
    147          1           0      -24.396863   -1.101421    2.110969
    148          1           0      -24.761607   -2.803655    2.404147
    149          1           0      -26.324402   -0.700432    1.377992
    150          1           0      -26.807119   -1.987315    2.495377
    151          1           0      -26.864296   -2.130763    0.668405
    152          1           0      -24.852758    3.044454    0.509315
    153          1           0      -25.022579    2.448837   -1.085726
    154          1           0      -24.393620    4.090947   -0.839920
    155          1           0      -19.473024    5.061856    0.969522
    156          1           0      -17.594816    7.857065   -1.505893
    157          1           0      -17.463317    6.453819   -2.671830
    158          1           0      -16.396130    6.652700   -1.272853
 ---------------------------------------------------------------------

 SCF Done:  E(RCAM-B3LYP) =  -4069.79590245     A.U. after   18 cycles

 Excitation energies and oscillator strengths:

 Excited State   1:      Singlet-A      1.6811 eV  737.53 nm  f=0.3692  <S**2>=0.000
     310 -> 316       -0.17687
     312 -> 314        0.68594
     310 <- 316       -0.10846
 This state for optimization and/or second-order correction.
 Total Energy, E(TD-HF/TD-DFT) =  -4069.73412376
 Copying the excited state density for this state as the 1-particle RhoCI density.

 Excited State   2:      Singlet-A      1.6990 eV  729.73 nm  f=0.4122  <S**2>=0.000
     309 -> 315       -0.18495
     311 -> 313        0.68427
     309 <- 315       -0.10989

 Excited State   3:      Singlet-A      2.2279 eV  556.51 nm  f=0.1009  <S**2>=0.000
     309 -> 313        0.63672
     311 -> 315        0.29383

 Excited State   4:      Singlet-A      2.2559 eV  549.59 nm  f=0.1048  <S**2>=0.000
     310 -> 314        0.63272
     312 -> 316        0.30598

 Excited State   5:      Singlet-A      2.9165 eV  425.12 nm  f=0.0000  <S**2>=0.000
     312 -> 313        0.70710

 The electronic state is 1-A.
 Alpha  occ. eigenvalues --  -46.89703 -46.87918 -19.25016 -19.24656 -19.20208
 Alpha  occ. eigenvalues --  -19.20097 -19.19685 -19.19260 -19.19182 -19.18366
 Alpha  occ. eigenvalues --  -14.42365 -14.42192 -14.42033 -14.41422 -14.39820
 Alpha  occ. eigenvalues --  -14.39283 -14.39225 -14.39214 -10.39688 -10.39639
 Alpha  occ. eigenvalues --  -10.35647 -10.35519 -10.35245 -10.34633 -10.31795
 Alpha  occ. eigenvalues --  -10.31601 -10.31559 -10.31409 -10.31332 -10.31322
 Alpha  occ. eigenvalues --  -10.31156 -10.30918 -10.30590 -10.30585 -10.30001
 Alpha  occ. eigenvalues --  -10.29884 -10.29789 -10.29748 -10.29475 -10.29452
 Alpha  occ. eigenvalues --  -10.29386 -10.28848 -10.28779 -10.28734 -10.28663
 Alpha  occ. eigenvalues --  -10.28515 -10.28378 -10.28351 -10.28343 -10.28328
 Alpha  occ. eigenvalues --  -10.28296 -10.28290 -10.28216 -10.28192 -10.28190
 Alpha  occ. eigenvalues --  -10.27907 -10.27826 -10.27811 -10.27774 -10.27666
 Alpha  occ. eigenvalues --  -10.27559 -10.27538 -10.27385 -10.27078 -10.27053
 Alpha  occ. eigenvalues --  -10.26888 -10.26869 -10.26809 -10.26703 -10.26618
 Alpha  occ. eigenvalues --  -10.26545 -10.26120 -10.26084 -10.26082 -10.26051
 Alpha  occ. eigenvalues --  -10.26041 -10.25930 -10.25912 -10.25867 -10.25812
 Alpha  occ. eigenvalues --  -10.25567 -10.25538 -10.25374 -10.24919 -10.24864
 Alpha  occ. eigenvalues --  -10.24549  -3.18025  -3.16621  -1.92939  -1.92475
 Alpha  occ. eigenvalues --   -1.92319  -1.91525  -1.91052  -1.90949  -1.15764
 Alpha  occ. eigenvalues --   -1.15151  -1.12943  -1.10159  -1.10047  -1.10000
 Alpha  occ. eigenvalues --   -1.07541  -1.07449  -1.05526  -1.05179  -1.04099
 Alpha  occ. eigenvalues --   -1.03876  -1.03578  -1.02868  -1.02626  -1.02136
 Alpha  occ. eigenvalues --   -0.93914  -0.91868  -0.89493  -0.89171  -0.89031
 Alpha  occ. eigenvalues --   -0.88631  -0.88419  -0.88019  -0.87911  -0.87182
 Alpha  occ. eigenvalues --   -0.86897  -0.86894  -0.86305  -0.86209  -0.85443
 Alpha  occ. eigenvalues --   -0.84659  -0.84177  -0.83595  -0.83068  -0.82539
 Alpha  occ. eigenvalues --   -0.82273  -0.81866  -0.81499  -0.80997  -0.80815
 Alpha  occ. eigenvalues --   -0.80363  -0.78244  -0.78198  -0.77632  -0.77270
 Alpha  occ. eigenvalues --   -0.76731  -0.76583  -0.76528  -0.75847  -0.75196
 Alpha  occ. eigenvalues --   -0.74862  -0.73531  -0.72409  -0.72245  -0.71467
 Alpha  occ. eigenvalues --   -0.69841  -0.69277  -0.69226  -0.68495  -0.68143
 Alpha  occ. eigenvalues --   -0.67750  -0.67440  -0.66757  -0.66200  -0.65934
 Alpha  occ. eigenvalues --   -0.65706  -0.65505  -0.64880  -0.64613  -0.64236
 Alpha  occ. eigenvalues --   -0.64096  -0.62726  -0.61800  -0.60520  -0.60147
 Alpha  occ. eigenvalues --   -0.59909  -0.59592  -0.59147  -0.59121  -0.58874
 Alpha  occ. eigenvalues --   -0.58204  -0.58101  -0.58015  -0.57765  -0.57230
 Alpha  occ. eigenvalues --   -0.56374  -0.56174  -0.55805  -0.55523  -0.55479
 Alpha  occ. eigenvalues --   -0.55346  -0.54895  -0.54836  -0.54395  -0.54095
 Alpha  occ. eigenvalues --   -0.53566  -0.53561  -0.53419  -0.53377  -0.52964
 Alpha  occ. eigenvalues --   -0.52673  -0.52511  -0.52354  -0.52166  -0.52107
 Alpha  occ. eigenvalues --   -0.52100  -0.51852  -0.51773  -0.51621  -0.51523
 Alpha  occ. eigenvalues --   -0.51380  -0.51335  -0.51236  -0.50405  -0.50398
 Alpha  occ. eigenvalues --   -0.50174  -0.50158  -0.50070  -0.50035  -0.49615
 Alpha  occ. eigenvalues --   -0.49610  -0.49523  -0.49459  -0.49147  -0.49045
 Alpha  occ. eigenvalues --   -0.49007  -0.48605  -0.48406  -0.48315  -0.48313
 Alpha  occ. eigenvalues --   -0.47989  -0.47798  -0.47552  -0.46962  -0.46902
 Alpha  occ. eigenvalues --   -0.46791  -0.46773  -0.46726  -0.46629  -0.46593
 Alpha  occ. eigenvalues --   -0.46277  -0.46146  -0.46095  -0.45983  -0.45839
 Alpha  occ. eigenvalues --   -0.45746  -0.45504  -0.45497  -0.45316  -0.45193
 Alpha  occ. eigenvalues --   -0.45097  -0.44949  -0.44722  -0.44633  -0.44538
 Alpha  occ. eigenvalues --   -0.44388  -0.44164  -0.43923  -0.43728  -0.43630
 Alpha  occ. eigenvalues --   -0.43410  -0.43324  -0.43249  -0.43184  -0.42889
 Alpha  occ. eigenvalues --   -0.42801  -0.42663  -0.42207  -0.42074  -0.41943
 Alpha  occ. eigenvalues --   -0.41881  -0.41854  -0.41572  -0.41527  -0.41461
 Alpha  occ. eigenvalues --   -0.41366  -0.41184  -0.41088  -0.40498  -0.40264
 Alpha  occ. eigenvalues --   -0.40233  -0.39750  -0.39130  -0.38661  -0.38310
 Alpha  occ. eigenvalues --   -0.38233  -0.38066  -0.37987  -0.37677  -0.37394
 Alpha  occ. eigenvalues --   -0.37288  -0.36976  -0.36584  -0.36530  -0.36294
 Alpha  occ. eigenvalues --   -0.35910  -0.35691  -0.34938  -0.34459  -0.34381
 Alpha  occ. eigenvalues --   -0.34283  -0.33635  -0.32806  -0.31845  -0.31408
 Alpha  occ. eigenvalues --   -0.31222  -0.31218  -0.31012  -0.30731  -0.30515
 Alpha  occ. eigenvalues --   -0.30024  -0.29555  -0.29462  -0.24569  -0.23983
 Alpha  occ. eigenvalues --   -0.21563  -0.20778
 Alpha virt. eigenvalues --   -0.09201  -0.08464  -0.02290  -0.01380  -0.00195
 Alpha virt. eigenvalues --    0.00403   0.02320   0.02420   0.02500   0.02792
 Alpha virt. eigenvalues --    0.04033   0.04567   0.04621   0.05488   0.05582

 Mulliken charges:
               1
     1  Mg   0.845359
     2  C    0.027397
     3  C   -0.076823
     4  C   -0.074872
     5  C   -0.103101
     6  N   -0.243940
     7  C   -0.032150
     8  C    0.000720
     9  C   -0.076716
    10  C    0.082337
    11  C    0.038847
    12  C    0.070161
    13  C   -0.093392
    14  H    0.009695
    15  N   -0.370826
    16  C    0.094380
    17  C   -0.139784
    18  C   -0.061970
    19  C    0.101664
    20  C    0.093653
    21  C    0.039023
    22  O   -0.200716
    23  C    0.041881
    24  N   -0.293921
    25  C    0.034447
    26  C    0.001881
    27  C   -0.010290
    28  C    0.025356
    29  C    0.092683
    30  C    0.017561
    31  C    0.022131
    32  N   -0.363067
    33  C    0.153961
    34  C   -0.162527
    35  C   -0.039982
    36  C    0.088723
    37  C    0.122998
    38  C    0.056388
    39  O   -0.102346
    40  C   -0.071446
    41  C    0.218775
    42  O   -0.220146
    43  O   -0.352122
    44  C    0.187107
    45  H   -0.036741
    46  H   -0.006458
    47  H   -0.034611
    48  H    0.020347
    49  H    0.017623
    50  H    0.008619
    51  H    0.029601
    52  H    0.017100
    53  H    0.013817
    54  H    0.012993
    55  H    0.031524
    56  H    0.030130
    57  H    0.034923
    58  H    0.042242
    59  H    0.009172
    60  H    0.038125
    61  H    0.012058
    62  H    0.038774
    63  H   -0.003752
    64  H   -0.003984
    65  H    0.017243
    66  H    0.021801
    67  H    0.010553
    68  H    0.001281
    69  H   -0.002065
    70  H    0.005378
    71  H    0.031870
    72  H    0.016184
    73  H    0.033366
    74  H    0.015304
    75  H    0.051224
    76  H    0.046729
    77  H    0.036678
    78  H    0.023047
    79  H    0.042917
    80  Mg   0.803442
    81  C   -0.053523
    82  C   -0.077656
    83  C   -0.031483
    84  C   -0.113901
    85  N   -0.266404
    86  C   -0.028597
    87  C   -0.077956
    88  C   -0.056796
    89  C    0.065581
    90  C    0.083063
    91  C    0.065154
    92  C   -0.060417
    93  H    0.028826
    94  N   -0.375694
    95  C    0.137240
    96  C   -0.161465
    97  C   -0.018944
    98  C    0.178068
    99  C    0.123843
   100  C   -0.042887
   101  O   -0.204991
   102  C    0.068020
   103  N   -0.281965
   104  C   -0.040106
   105  C   -0.032409
   106  C   -0.000423
   107  C    0.029953
   108  C    0.073841
   109  C   -0.008462
   110  C   -0.012551
   111  N   -0.343836
   112  C    0.184284
   113  C   -0.180470
   114  C    0.103158
   115  C    0.131988
   116  C    0.117900
   117  C   -0.022212
   118  O   -0.171220
   119  C   -0.002536
   120  C    0.227961
   121  O   -0.227799
   122  O   -0.357583
   123  C    0.177870
   124  H   -0.025133
   125  H   -0.050633
   126  H   -0.029532
   127  H    0.016091
   128  H    0.020256
   129  H    0.026925
   130  H    0.012910
   131  H    0.013828
   132  H    0.013081
   133  H    0.002786
   134  H    0.032684
   135  H    0.023558
   136  H    0.036670
   137  H    0.042158
   138  H    0.002286
   139  H    0.036917
   140  H    0.025032
   141  H    0.043442
   142  H    0.026548
   143  H   -0.001265
   144  H    0.020707
   145  H    0.031765
   146  H    0.017649
   147  H    0.019556
   148  H    0.006271
   149  H    0.003060
   150  H    0.024540
   151  H    0.019080
   152  H    0.024507
   153  H    0.016648
   154  H    0.037788
   155  H    0.052362
   156  H    0.038602
   157  H    0.051820
   158  H    0.019129
 Sum of Mulliken charges =  -0.00000

 Dipole moment (field-independent basis, Debye):
    X=             -2.2971    Y=              1.9887    Z=             -0.2923  Tot=              3.0524
 Quadrupole moment (field-independent basis, Debye-Ang):
   XX=           -454.5283   YY=           -536.5039   ZZ=           -487.2943
   XY=            125.7542   XZ=            -46.2875   YZ=            -13.9349

 Normal termination of Gaussian 16 at Tue Sep 14 21:53:45 2021.
