 Gaussian 16, Revision A.03,
 Gaussian 16:  ES64L-G16RevA.03 25-Dec-2016

 -----------------------------------
 #p cam-b3lyp/Def2SVP td=(nstates=5)
 -----------------------------------

 --------------------------------
 TDDFT excited states in gaussian
 --------------------------------
 Symbolic Z-matrix:
 Charge =  0 Multiplicity = 1

                         Standard orientation:
 ---------------------------------------------------------------------
 Center     Atomic      Atomic             Coordinates (Angstroms)
 Number     Number       Type             X           Y           Z
 ---------------------------------------------------------------------
      1         12           0       27.361249   -0.711297    0.225541
      2          6           0       25.543670    2.283441    0.987723
      3          6           0       29.710502    1.259912   -1.351445
      4          6           0       28.642574   -3.465266   -0.978230
      5          6           0       24.753525   -2.469076    1.681707
      6          7           0       27.456500    1.568154   -0.391159
      7          6           0       26.649286    2.524896    0.162165
      8          6           0       27.277130    3.926218   -0.064793
      9          6           0       28.601971    3.612402   -0.878197
     10          6           0       28.632208    2.041175   -0.926136
     11          6           0       28.731397    4.207400   -2.343264
     12          6           0       27.579581    4.731519    1.227037
     13          6           0       27.204641    6.170577    1.251272
     14          1           0       26.931375    7.020780   -0.047831
     15          7           0       28.993278   -1.100036   -1.039712
     16          6           0       29.940739   -0.182038   -1.492033
     17          6           0       30.928587   -0.890886   -2.327968
     18          6           0       30.672002   -2.300074   -2.117331
     19          6           0       29.397632   -2.344618   -1.363359
     20          6           0       32.013982   -0.254513   -3.142317
     21          6           0       31.456090   -3.554025   -2.570824
     22          8           0       31.321346   -4.697086   -2.085489
     23          6           0       32.561651   -3.355207   -3.528048
     24          7           0       26.744198   -2.608976    0.297818
     25          6           0       27.457115   -3.582213   -0.367247
     26          6           0       26.961409   -5.003342    0.018888
     27          6           0       25.930727   -4.652920    1.181555
     28          6           0       25.798846   -3.143764    1.072081
     29          6           0       26.345956   -5.915989   -1.118900
     30          6           0       26.314338   -5.066121    2.593629
     31          6           0       25.416562   -6.140768    3.241858
     32          7           0       25.615153   -0.235854    1.318224
     33          6           0       24.639818   -1.064917    1.819735
     34          6           0       23.545330   -0.266471    2.387057
     35          6           0       23.912396    1.040844    2.121421
     36          6           0       25.167374    1.016714    1.473080
     37          6           0       22.278650   -0.725996    3.030228
     38          6           0       23.474456    2.374749    2.325405
     39          8           0       22.502523    2.858786    2.972381
     40          6           0       24.461735    3.210204    1.626789
     41          6           0       23.768867    4.139731    0.667458
     42          8           0       23.239995    3.815267   -0.340337
     43          8           0       23.897461    5.399491    1.083314
     44          6           0       23.073739    6.411555    0.514356
     45          1           0       30.493884    1.806101   -1.881320
     46          1           0       28.980043   -4.462738   -1.270430
     47          1           0       23.902274   -3.032726    2.067059
     48          1           0       26.556289    4.479764   -0.667660
     49          1           0       29.471606    3.947182   -0.313525
     50          1           0       27.958053    4.920508   -2.627404
     51          1           0       28.604657    3.370982   -3.032152
     52          1           0       29.723722    4.633124   -2.495154
     53          1           0       28.640974    4.747684    1.477335
     54          1           0       27.068106    4.331835    2.102205
     55          1           0       28.011419    6.752610    1.697777
     56          1           0       26.321173    6.262320    1.882462
     57          1           0       31.940092   -0.597646   -4.174028
     58          1           0       32.956158   -0.606646   -2.722297
     59          1           0       32.057113    0.823184   -2.981444
     60          1           0       32.129096   -2.972771   -4.452622
     61          1           0       32.939019   -4.354790   -3.742386
     62          1           0       33.387619   -2.795247   -3.090346
     63          1           0       27.825031   -5.498406    0.464074
     64          1           0       24.995647   -5.153976    0.931413
     65          1           0       26.367389   -5.390756   -2.073097
     66          1           0       25.363402   -6.314842   -0.863804
     67          1           0       26.962878   -6.812830   -1.177555
     68          1           0       26.494447   -4.261386    3.306555
     69          1           0       27.294037   -5.537598    2.523680
     70          1           0       25.125124   -5.981088    4.279773
     71          1           0       26.039426   -7.025972    3.373301
     72          1           0       24.490358   -6.359936    2.712340
     73          1           0       22.324685   -1.767219    3.350631
     74          1           0       21.477269   -0.761411    2.292376
     75          1           0       22.021634    0.026457    3.775683
     76          1           0       24.963546    3.787312    2.403025
     77          1           0       22.077695    6.262910    0.933751
     78          1           0       22.946310    6.254427   -0.556809
     79          1           0       23.409765    7.405764    0.810061
     80         12           0      -27.340177   -0.598583   -0.080371
     81          6           0      -25.721228    2.209685   -1.398430
     82          6           0      -28.400925    1.269309    2.577900
     83          6           0      -28.549386   -3.366495    1.267839
     84          6           0      -26.004489   -2.474710   -2.813960
     85          7           0      -27.029426    1.511392    0.522307
     86          6           0      -26.403014    2.523239   -0.170850
     87          6           0      -26.719930    3.870096    0.452445
     88          6           0      -27.329348    3.476972    1.855991
     89          6           0      -27.684213    1.977765    1.571040
     90          6           0      -26.349352    3.630621    3.012157
     91          6           0      -27.564969    4.739578   -0.548449
     92          6           0      -28.115879    6.048129    0.083147
     93          1           0      -27.289298    6.669416    1.189814
     94          7           0      -28.318156   -0.975029    1.612657
     95          6           0      -28.586089   -0.102318    2.659754
     96          6           0      -29.250259   -0.785989    3.783435
     97          6           0      -29.319009   -2.147666    3.355892
     98          6           0      -28.703864   -2.201866    2.032331
     99          6           0      -29.733719   -0.078862    4.993792
    100          6           0      -29.901439   -3.295710    4.139305
    101          8           0      -29.963275   -4.464247    3.666015
    102          6           0      -30.512301   -3.084196    5.498048
    103          7           0      -27.327135   -2.642997   -0.731376
    104          6           0      -27.912395   -3.556802    0.043195
    105          6           0      -27.664966   -5.017241   -0.539918
    106          6           0      -26.781621   -4.728273   -1.878254
    107          6           0      -26.680065   -3.204055   -1.806360
    108          6           0      -26.928185   -5.881068    0.564099
    109          6           0      -27.487271   -5.153456   -3.236351
    110          6           0      -27.290881   -6.635509   -3.666696
    111          7           0      -26.087839   -0.293854   -1.711114
    112          6           0      -25.710146   -1.100105   -2.817252
    113          6           0      -24.906922   -0.260861   -3.810108
    114          6           0      -24.820257    1.017722   -3.268611
    115          6           0      -25.629334    0.959943   -2.024455
    116          6           0      -24.353777   -0.686480   -5.134036
    117          6           0      -24.352156    2.370786   -3.457775
    118          8           0      -23.685708    2.899675   -4.353050
    119          6           0      -25.075786    3.262910   -2.331445
    120          6           0      -24.120553    4.192162   -1.618112
    121          8           0      -23.468240    3.879686   -0.658881
    122          8           0      -24.271504    5.522835   -2.069472
    123          6           0      -23.766891    6.592110   -1.194978
    124          1           0      -28.619331    1.981863    3.376490
    125          1           0      -28.937124   -4.279169    1.725496
    126          1           0      -25.480841   -3.002800   -3.613688
    127          1           0      -25.776185    4.396926    0.587649
    128          1           0      -28.261411    3.976937    2.121395
    129          1           0      -26.834538    4.302708    3.719806
    130          1           0      -25.391778    3.961159    2.610449
    131          1           0      -26.270127    2.730215    3.620866
    132          1           0      -28.213109    3.983614   -0.990675
    133          1           0      -26.876256    5.000250   -1.351379
    134          1           0      -29.100534    5.749867    0.443253
    135          1           0      -28.210443    6.789922   -0.709757
    136          1           0      -29.112175   -0.510008    5.778395
    137          1           0      -30.804062   -0.195207    5.161778
    138          1           0      -29.577623    0.996793    5.085125
    139          1           0      -31.383076   -2.437898    5.396710
    140          1           0      -29.643558   -2.651435    5.995698
    141          1           0      -30.773641   -3.981793    6.057829
    142          1           0      -28.692117   -5.302121   -0.771050
    143          1           0      -25.719595   -4.974911   -1.843917
    144          1           0      -26.703252   -5.342484    1.484500
    145          1           0      -25.977636   -6.246162    0.174248
    146          1           0      -27.639982   -6.655883    0.847359
    147          1           0      -27.318336   -4.431185   -4.034518
    148          1           0      -28.556668   -5.056243   -3.051987
    149          1           0      -28.287136   -7.055793   -3.799690
    150          1           0      -26.673711   -7.133338   -2.918675
    151          1           0      -26.774042   -6.718916   -4.623037
    152          1           0      -24.980886   -0.212654   -5.889547
    153          1           0      -24.367347   -1.773911   -5.216952
    154          1           0      -23.340913   -0.373579   -5.386755
    155          1           0      -25.859857    3.816725   -2.846985
    156          1           0      -22.689399    6.597019   -1.357397
    157          1           0      -24.118957    6.454154   -0.172468
    158          1           0      -24.239255    7.511646   -1.539521
 ---------------------------------------------------------------------

 SCF Done:  E(RCAM-B3LYP) =  -4069.82011881     A.U. after   17 cycles

 Excitation energies and oscillator strengths:

 Excited State   1:      Singlet-A      1.7141 eV  723.31 nm  f=0.3945  <S**2>=0.000
     310 -> 315       -0.19943
     312 -> 314        0.68029
     310 <- 315       -0.11162
 This state for optimization and/or second-order correction.
 Total Energy, E(TD-HF/TD-DFT) =  -4069.75712635
 Copying the excited state density for this state as the 1-particle RhoCI density.

 Excited State   2:      Singlet-A      1.7200 eV  720.83 nm  f=0.4117  <S**2>=0.000
     309 -> 316       -0.17636
     311 -> 313        0.68695
     309 <- 316       -0.10597

 Excited State   3:      Singlet-A      2.2103 eV  560.94 nm  f=0.1292  <S**2>=0.000
     309 -> 313        0.65015
     311 -> 316        0.26633

 Excited State   4:      Singlet-A      2.2903 eV  541.35 nm  f=0.0345  <S**2>=0.000
     310 -> 314        0.58797
     312 -> 315        0.38617

 Excited State   5:      Singlet-A      2.9495 eV  420.36 nm  f=0.0000  <S**2>=0.000
     312 -> 313        0.70710

 The electronic state is 1-A.
 Alpha  occ. eigenvalues --  -46.88903 -46.88054 -19.24991 -19.23959 -19.20282
 Alpha  occ. eigenvalues --  -19.19643 -19.19165 -19.19017 -19.18541 -19.18375
 Alpha  occ. eigenvalues --  -14.42133 -14.42048 -14.41612 -14.41542 -14.39934
 Alpha  occ. eigenvalues --  -14.39860 -14.39688 -14.39551 -10.39402 -10.39037
 Alpha  occ. eigenvalues --  -10.35516 -10.35230 -10.34952 -10.34700 -10.31741
 Alpha  occ. eigenvalues --  -10.31693 -10.31495 -10.31020 -10.30948 -10.30898
 Alpha  occ. eigenvalues --  -10.30738 -10.30594 -10.30541 -10.30349 -10.30339
 Alpha  occ. eigenvalues --  -10.30297 -10.30150 -10.30096 -10.29691 -10.29603
 Alpha  occ. eigenvalues --  -10.29541 -10.29460 -10.29289 -10.29209 -10.29087
 Alpha  occ. eigenvalues --  -10.28750 -10.28743 -10.28524 -10.28375 -10.28360
 Alpha  occ. eigenvalues --  -10.28281 -10.28258 -10.28188 -10.28174 -10.28122
 Alpha  occ. eigenvalues --  -10.28090 -10.27721 -10.27691 -10.27595 -10.27559
 Alpha  occ. eigenvalues --  -10.27557 -10.27507 -10.27179 -10.27145 -10.27047
 Alpha  occ. eigenvalues --  -10.26990 -10.26887 -10.26758 -10.26724 -10.26602
 Alpha  occ. eigenvalues --  -10.26462 -10.26425 -10.26419 -10.26203 -10.26199
 Alpha  occ. eigenvalues --  -10.25969 -10.25907 -10.25886 -10.25747 -10.25574
 Alpha  occ. eigenvalues --  -10.25552 -10.25441 -10.25382 -10.25183 -10.25175
 Alpha  occ. eigenvalues --  -10.25134  -3.17481  -3.16736  -1.92363  -1.91951
 Alpha  occ. eigenvalues --   -1.91780  -1.91641  -1.91177  -1.91067  -1.18610
 Alpha  occ. eigenvalues --   -1.15457  -1.09699  -1.09097  -1.08301  -1.08075
 Alpha  occ. eigenvalues --   -1.07789  -1.07757  -1.04824  -1.04311  -1.03763
 Alpha  occ. eigenvalues --   -1.03450  -1.02781  -1.02524  -1.01777  -1.01359
 Alpha  occ. eigenvalues --   -0.93564  -0.91589  -0.89121  -0.88897  -0.88560
 Alpha  occ. eigenvalues --   -0.88537  -0.88364  -0.87811  -0.87732  -0.87547
 Alpha  occ. eigenvalues --   -0.86875  -0.86709  -0.86305  -0.86280  -0.84547
 Alpha  occ. eigenvalues --   -0.84231  -0.83519  -0.82921  -0.82616  -0.82175
 Alpha  occ. eigenvalues --   -0.82053  -0.81914  -0.81709  -0.80738  -0.80500
 Alpha  occ. eigenvalues --   -0.79984  -0.78946  -0.78295  -0.77703  -0.77401
 Alpha  occ. eigenvalues --   -0.77151  -0.76959  -0.76351  -0.75744  -0.75194
 Alpha  occ. eigenvalues --   -0.74527  -0.73168  -0.72050  -0.71485  -0.71452
 Alpha  occ. eigenvalues --   -0.69394  -0.69394  -0.68967  -0.68598  -0.68258
 Alpha  occ. eigenvalues --   -0.67486  -0.67048  -0.66245  -0.65915  -0.65494
 Alpha  occ. eigenvalues --   -0.65111  -0.64910  -0.64842  -0.64466  -0.63926
 Alpha  occ. eigenvalues --   -0.63747  -0.63023  -0.61247  -0.60620  -0.60326
 Alpha  occ. eigenvalues --   -0.59856  -0.59477  -0.59329  -0.59131  -0.58679
 Alpha  occ. eigenvalues --   -0.58205  -0.57778  -0.57749  -0.57494  -0.56756
 Alpha  occ. eigenvalues --   -0.56486  -0.56134  -0.56103  -0.55929  -0.55169
 Alpha  occ. eigenvalues --   -0.54908  -0.54504  -0.54221  -0.53936  -0.53747
 Alpha  occ. eigenvalues --   -0.53665  -0.53422  -0.53243  -0.53226  -0.53011
 Alpha  occ. eigenvalues --   -0.52790  -0.52494  -0.52398  -0.52192  -0.51882
 Alpha  occ. eigenvalues --   -0.51731  -0.51644  -0.51574  -0.51480  -0.51421
 Alpha  occ. eigenvalues --   -0.51138  -0.51109  -0.50814  -0.50464  -0.50072
 Alpha  occ. eigenvalues --   -0.50046  -0.50028  -0.49875  -0.49517  -0.49409
 Alpha  occ. eigenvalues --   -0.49302  -0.49247  -0.49082  -0.48987  -0.48864
 Alpha  occ. eigenvalues --   -0.48747  -0.48571  -0.48486  -0.48326  -0.48230
 Alpha  occ. eigenvalues --   -0.48089  -0.48036  -0.47701  -0.47408  -0.47368
 Alpha  occ. eigenvalues --   -0.46904  -0.46859  -0.46771  -0.46205  -0.46161
 Alpha  occ. eigenvalues --   -0.46106  -0.46057  -0.46044  -0.45797  -0.45712
 Alpha  occ. eigenvalues --   -0.45576  -0.45275  -0.45187  -0.45141  -0.44837
 Alpha  occ. eigenvalues --   -0.44779  -0.44630  -0.44533  -0.44441  -0.44159
 Alpha  occ. eigenvalues --   -0.43973  -0.43635  -0.43448  -0.43434  -0.43104
 Alpha  occ. eigenvalues --   -0.43052  -0.43026  -0.42875  -0.42679  -0.42601
 Alpha  occ. eigenvalues --   -0.42532  -0.42323  -0.42144  -0.42081  -0.41850
 Alpha  occ. eigenvalues --   -0.41620  -0.41495  -0.41425  -0.41265  -0.41165
 Alpha  occ. eigenvalues --   -0.40958  -0.40891  -0.40313  -0.40262  -0.40166
 Alpha  occ. eigenvalues --   -0.40075  -0.39676  -0.39206  -0.39115  -0.39056
 Alpha  occ. eigenvalues --   -0.38479  -0.38202  -0.38178  -0.37968  -0.37903
 Alpha  occ. eigenvalues --   -0.36940  -0.36632  -0.36520  -0.36256  -0.36253
 Alpha  occ. eigenvalues --   -0.35873  -0.35842  -0.34670  -0.34515  -0.34125
 Alpha  occ. eigenvalues --   -0.34118  -0.33156  -0.32898  -0.31589  -0.31433
 Alpha  occ. eigenvalues --   -0.31295  -0.30911  -0.30754  -0.30591  -0.30494
 Alpha  occ. eigenvalues --   -0.30469  -0.30010  -0.29475  -0.24106  -0.23965
 Alpha  occ. eigenvalues --   -0.21298  -0.20408
 Alpha virt. eigenvalues --   -0.08929  -0.07867  -0.02118  -0.01465  -0.00191
 Alpha virt. eigenvalues --   -0.00182   0.01937   0.02189   0.02371   0.03279
 Alpha virt. eigenvalues --    0.04511   0.04976   0.05281   0.05898   0.06124

 Mulliken charges:
               1
     1  Mg   0.831083
     2  C   -0.003469
     3  C   -0.022636
     4  C   -0.061399
     5  C   -0.094158
     6  N   -0.252763
     7  C   -0.054182
     8  C    0.021044
     9  C   -0.061045
    10  C    0.018217
    11  C    0.057387
    12  C    0.048975
    13  C   -0.081537
    14  H    0.000646
    15  N   -0.364181
    16  C    0.090938
    17  C   -0.170516
    18  C   -0.041468
    19  C    0.129262
    20  C    0.140608
    21  C    0.009620
    22  O   -0.229748
    23  C    0.054906
    24  N   -0.351637
    25  C    0.076924
    26  C   -0.074956
    27  C   -0.035809
    28  C    0.084597
    29  C    0.075271
    30  C    0.058354
    31  C   -0.010533
    32  N   -0.321556
    33  C    0.100468
    34  C   -0.161322
    35  C   -0.007602
    36  C    0.104561
    37  C    0.130299
    38  C    0.045001
    39  O   -0.216232
    40  C    0.039313
    41  C    0.154810
    42  O   -0.173628
    43  O   -0.300083
    44  C    0.179693
    45  H   -0.038465
    46  H   -0.005598
    47  H   -0.029173
    48  H    0.021607
    49  H    0.016303
    50  H    0.019328
    51  H    0.019364
    52  H    0.018309
    53  H    0.008895
    54  H    0.007769
    55  H    0.022202
    56  H    0.037192
    57  H    0.036382
    58  H    0.019921
    59  H    0.011624
    60  H    0.032307
    61  H    0.020464
    62  H    0.045017
    63  H    0.021375
    64  H    0.000797
    65  H    0.029710
    66  H    0.014105
    67  H    0.016447
    68  H    0.016400
    69  H   -0.002386
    70  H    0.007276
    71  H    0.010567
    72  H    0.017272
    73  H    0.008812
    74  H    0.034187
    75  H    0.049479
    76  H    0.040247
    77  H    0.029079
    78  H    0.038758
    79  H    0.042911
    80  Mg   0.842091
    81  C   -0.020548
    82  C   -0.090089
    83  C   -0.079647
    84  C   -0.078346
    85  N   -0.250706
    86  C   -0.044702
    87  C   -0.013011
    88  C   -0.082123
    89  C   -0.014521
    90  C    0.091546
    91  C    0.015925
    92  C   -0.044478
    93  H    0.032168
    94  N   -0.411439
    95  C    0.200966
    96  C   -0.144021
    97  C   -0.033968
    98  C    0.153142
    99  C    0.122196
   100  C   -0.007215
   101  O   -0.241935
   102  C    0.080574
   103  N   -0.275384
   104  C    0.019553
   105  C   -0.035734
   106  C    0.002838
   107  C    0.012043
   108  C    0.060822
   109  C    0.002621
   110  C    0.023784
   111  N   -0.368234
   112  C    0.111832
   113  C   -0.177366
   114  C    0.032714
   115  C    0.112096
   116  C    0.110967
   117  C    0.072027
   118  O   -0.179427
   119  C   -0.071633
   120  C    0.225352
   121  O   -0.190682
   122  O   -0.375628
   123  C    0.183808
   124  H   -0.034863
   125  H   -0.005897
   126  H   -0.023960
   127  H    0.008540
   128  H    0.003668
   129  H    0.006440
   130  H    0.036724
   131  H    0.014649
   132  H    0.016667
   133  H    0.015049
   134  H    0.036664
   135  H    0.035923
   136  H    0.032164
   137  H    0.035683
   138  H    0.012025
   139  H    0.044586
   140  H    0.019937
   141  H    0.028094
   142  H    0.024685
   143  H    0.018545
   144  H    0.031731
   145  H    0.016265
   146  H    0.027661
   147  H    0.011360
   148  H   -0.004947
   149  H    0.019964
   150  H    0.018636
   151  H    0.014664
   152  H    0.037870
   153  H    0.005622
   154  H    0.037479
   155  H    0.063003
   156  H    0.049898
   157  H    0.033274
   158  H    0.033971
 Sum of Mulliken charges =  -0.00000

 Dipole moment (field-independent basis, Debye):
    X=             -0.7495    Y=              2.1324    Z=              2.9732  Tot=              3.7348
 Quadrupole moment (field-independent basis, Debye-Ang):
   XX=           -200.2946   YY=           -486.1001   ZZ=           -502.9148
   XY=             -6.7842   XZ=            -58.7216   YZ=             15.5065

 Normal termination of Gaussian 16 at Thu Sep  2 17:51:45 2021.
