 Gaussian 16, Revision A.03,
 Gaussian 16:  ES64L-G16RevA.03 25-Dec-2016

 ---------------------------------------------------
 #p cam-b3lyp/Def2SVP td=(nstates=5) density=(CIS=1)
 ---------------------------------------------------

 --------------------------------
 TDDFT excited states in gaussian
 --------------------------------
 Symbolic Z-matrix:
 Charge =  0 Multiplicity = 1

                         Standard orientation:
 ---------------------------------------------------------------------
 Center     Atomic      Atomic             Coordinates (Angstroms)
 Number     Number       Type             X           Y           Z
 ---------------------------------------------------------------------
      1         12           0        0.722600   -0.066789   -0.482949
      2          6           0       -2.828971    0.404962   -0.367204
      3          6           0        0.245201   -3.314871   -0.422659
      4          6           0        3.955395   -0.266331    0.219657
      5          6           0        0.962385    3.589480   -0.162108
      6          7           0       -1.098413   -1.299334   -0.450883
      7          6           0       -2.455851   -0.929453   -0.372813
      8          6           0       -3.447014   -2.153374   -0.330985
      9          6           0       -2.326487   -3.360644   -0.423438
     10          6           0       -0.970175   -2.663007   -0.450349
     11          6           0       -2.417648   -4.363439    0.805606
     12          6           0       -4.560234   -2.169434   -1.435721
     13          6           0       -5.246786   -3.510593   -1.665050
     14          1           0       -6.736072   -3.545198   -1.275934
     15          7           0        1.949427   -1.599096   -0.245531
     16          6           0        1.629934   -2.936403   -0.266646
     17          6           0        2.793040   -3.784296   -0.111388
     18          6           0        3.885233   -2.845290    0.064702
     19          6           0        3.266352   -1.477624   -0.059698
     20          6           0        2.832106   -5.237544   -0.194584
     21          6           0        5.368421   -3.100286    0.269656
     22          8           0        6.202520   -2.239054    0.286321
     23          6           0        5.727839   -4.536097    0.545729
     24          7           0        2.240416    1.450752    0.030311
     25          6           0        3.523869    1.064455    0.241559
     26          6           0        4.449150    2.294866    0.439185
     27          6           0        3.473578    3.493832    0.174095
     28          6           0        2.136192    2.815792   -0.053166
     29          6           0        5.213337    2.434829    1.799709
     30          6           0        3.831907    4.421805   -1.039860
     31          6           0        4.978480    5.411431   -0.736187
     32          7           0       -0.570871    1.661253   -0.279047
     33          6           0       -0.346406    3.018182   -0.242104
     34          6           0       -1.584426    3.688798   -0.290689
     35          6           0       -2.568688    2.772985   -0.283152
     36          6           0       -1.928740    1.496905   -0.253395
     37          6           0       -1.656138    5.205812   -0.406725
     38          6           0       -4.004445    2.478356   -0.237611
     39          8           0       -4.954497    3.217048   -0.200870
     40          6           0       -4.202710    0.888171   -0.267824
     41          6           0       -4.733528    0.482671    1.070146
     42          8           0       -4.177018    0.205890    2.108763
     43          8           0       -6.102563    0.425571    0.899537
     44          6           0       -6.911361    0.022211    2.074437
     45          1           0        0.189372   -4.402975   -0.351033
     46          1           0        4.972901   -0.402338    0.593932
     47          1           0        1.209509    4.653568   -0.173670
     48          1           0       -3.864412   -2.205516    0.674716
     49          1           0       -2.537305   -3.943576   -1.320317
     50          1           0       -2.344204   -5.388013    0.441306
     51          1           0       -3.267187   -4.293792    1.484444
     52          1           0       -1.527755   -4.277631    1.428411
     53          1           0       -3.985428   -1.789856   -2.281485
     54          1           0       -5.363672   -1.435124   -1.373615
     55          1           0       -4.732555   -4.276437   -1.085086
     56          1           0       -5.286316   -3.701609   -2.737098
     57          1           0        3.434970   -5.345110   -1.096268
     58          1           0        1.827277   -5.655181   -0.259662
     59          1           0        3.338311   -5.782622    0.601868
     60          1           0        5.997672   -5.025807   -0.389843
     61          1           0        5.098880   -5.007073    1.301728
     62          1           0        6.548262   -4.446240    1.257165
     63          1           0        5.071756    2.323520   -0.455539
     64          1           0        3.323847    4.040122    1.105622
     65          1           0        5.015521    3.340190    2.374279
     66          1           0        6.260893    2.556711    1.525163
     67          1           0        5.077709    1.609908    2.499137
     68          1           0        2.960583    5.019755   -1.304615
     69          1           0        4.051374    3.736293   -1.859583
     70          1           0        5.078526    5.559559    0.339232
     71          1           0        4.732722    6.324705   -1.277937
     72          1           0        5.964076    5.061714   -1.044885
     73          1           0       -2.579968    5.520862   -0.892012
     74          1           0       -0.775669    5.557720   -0.944440
     75          1           0       -1.543148    5.666887    0.574721
     76          1           0       -4.856546    0.578416   -1.083431
     77          1           0       -7.793703    0.661700    2.052673
     78          1           0       -6.400733    0.133523    3.030862
     79          1           0       -7.119004   -1.011397    1.795868
 ---------------------------------------------------------------------

 SCF Done:  E(RCAM-B3LYP) =  -2034.91358491     A.U. after   19 cycles

 Excitation energies and oscillator strengths:

 Excited State   1:      Singlet-A      1.6973 eV  730.49 nm  f=0.0000  <S**2>=0.000
     155 ->158        -0.17785
     156 ->157         0.68635
     155 <-158        -0.10768
 This state for optimization and/or second-order correction.
 Total Energy, E(TD-HF/TD-DFT) =  -2034.85121122
 Copying the excited state density for this state as the 1-particle RhoCI density.

 Excited State   2:      Singlet-A      2.2114 eV  560.66 nm  f=0.0000  <S**2>=0.000
     155 ->157         0.65077
     156 ->158         0.26503

 Excited State   3:      Singlet-A      3.4428 eV  360.12 nm  f=0.0000  <S**2>=0.000
     153 ->157         0.12771
     154 ->157         0.68096

 Excited State   4:      Singlet-A      3.5522 eV  349.04 nm  f=0.0000  <S**2>=0.000
     151 ->157         0.12439
     152 ->157         0.56668
     152 ->159         0.26886
     152 ->160        -0.12674
     152 ->161         0.16185
     153 ->157        -0.12011

 Excited State   5:      Singlet-A      3.5749 eV  346.82 nm  f=0.0000  <S**2>=0.000
     153 ->157        -0.43799
     154 ->157         0.11826
     155 ->157        -0.16403
     156 ->158         0.49618

 The electronic state is 1-A.
 Alpha  occ. eigenvalues --  -46.88572 -19.23843 -19.19923 -19.19111 -19.18950
 Alpha  occ. eigenvalues --  -14.42191 -14.41322 -14.39628 -14.38850 -10.38976
 Alpha  occ. eigenvalues --  -10.35269 -10.34772 -10.31205 -10.30913 -10.30867
 Alpha  occ. eigenvalues --  -10.30369 -10.30190 -10.30107 -10.30105 -10.29382
 Alpha  occ. eigenvalues --  -10.29091 -10.28909 -10.28860 -10.28764 -10.28489
 Alpha  occ. eigenvalues --  -10.27751 -10.27669 -10.27185 -10.26997 -10.26944
 Alpha  occ. eigenvalues --  -10.26823 -10.26781 -10.26769 -10.26753 -10.26741
 Alpha  occ. eigenvalues --  -10.26706 -10.26155 -10.25883 -10.25713 -10.25600
 Alpha  occ. eigenvalues --  -10.25565 -10.25550 -10.24708  -3.17115  -1.92011
 Alpha  occ. eigenvalues --   -1.91551  -1.91439  -1.15707  -1.11368  -1.10792
 Alpha  occ. eigenvalues --   -1.07467  -1.03809  -1.03298  -1.02505  -1.01594
 Alpha  occ. eigenvalues --   -0.93017  -0.88932  -0.88251  -0.88124  -0.87149
 Alpha  occ. eigenvalues --   -0.86847  -0.86023  -0.83896  -0.83193  -0.82179
 Alpha  occ. eigenvalues --   -0.82051  -0.80711  -0.80078  -0.78115  -0.76976
 Alpha  occ. eigenvalues --   -0.76644  -0.75545  -0.74820  -0.72772  -0.71324
 Alpha  occ. eigenvalues --   -0.69645  -0.68752  -0.67723  -0.66958  -0.65046
 Alpha  occ. eigenvalues --   -0.64610  -0.64416  -0.63891  -0.61461  -0.60082
 Alpha  occ. eigenvalues --   -0.59475  -0.58821  -0.58333  -0.57844  -0.56875
 Alpha  occ. eigenvalues --   -0.56131  -0.55770  -0.55003  -0.54466  -0.54282
 Alpha  occ. eigenvalues --   -0.54132  -0.53661  -0.52660  -0.52379  -0.51950
 Alpha  occ. eigenvalues --   -0.51623  -0.51339  -0.50997  -0.50543  -0.50191
 Alpha  occ. eigenvalues --   -0.49802  -0.49676  -0.49485  -0.49156  -0.48830
 Alpha  occ. eigenvalues --   -0.48408  -0.47970  -0.47814  -0.47750  -0.47055
 Alpha  occ. eigenvalues --   -0.46756  -0.46340  -0.45894  -0.45746  -0.45448
 Alpha  occ. eigenvalues --   -0.45302  -0.45177  -0.45042  -0.44846  -0.44719
 Alpha  occ. eigenvalues --   -0.43981  -0.43814  -0.43478  -0.43186  -0.42760
 Alpha  occ. eigenvalues --   -0.42551  -0.42073  -0.41818  -0.41620  -0.41118
 Alpha  occ. eigenvalues --   -0.40949  -0.40778  -0.40475  -0.39342  -0.38790
 Alpha  occ. eigenvalues --   -0.38103  -0.37755  -0.37011  -0.36544  -0.36344
 Alpha  occ. eigenvalues --   -0.35735  -0.34640  -0.33939  -0.32593  -0.31314
 Alpha  occ. eigenvalues --   -0.30833  -0.30570  -0.30111  -0.29742  -0.23590
 Alpha  occ. eigenvalues --   -0.20962
 Alpha virt. eigenvalues --   -0.08535  -0.01132   0.00879   0.02464   0.02674
 Alpha virt. eigenvalues --    0.04943   0.05850   0.06374   0.07398   0.08353
 Alpha virt. eigenvalues --    0.08749   0.09374   0.09803   0.10204   0.10693

 Mulliken charges:
               1
     1  Mg   0.828260
     2  C   -0.070263
     3  C   -0.097701
     4  C   -0.105543
     5  C   -0.125611
     6  N   -0.385445
     7  C   -0.000809
     8  C    0.014392
     9  C   -0.069077
    10  C    0.135937
    11  C    0.034499
    12  C    0.023077
    13  C   -0.066489
    14  H    0.012783
    15  N   -0.407986
    16  C    0.130571
    17  C   -0.133194
    18  C   -0.095720
    19  C    0.181276
    20  C    0.130035
    21  C   -0.016673
    22  O   -0.180528
    23  C    0.036994
    24  N   -0.324786
    25  C    0.059740
    26  C    0.023866
    27  C   -0.062330
    28  C    0.054198
    29  C    0.069449
    30  C    0.014824
    31  C    0.025401
    32  N   -0.319568
    33  C    0.183262
    34  C   -0.231951
    35  C    0.057238
    36  C    0.142558
    37  C    0.139028
    38  C    0.023355
    39  O   -0.145245
    40  C   -0.039005
    41  C    0.216438
    42  O   -0.204364
    43  O   -0.356882
    44  C    0.167111
    45  H   -0.052735
    46  H   -0.002363
    47  H   -0.022485
    48  H    0.027920
    49  H    0.024636
    50  H    0.009737
    51  H    0.029147
    52  H    0.021453
    53  H    0.009684
    54  H    0.037195
    55  H    0.040069
    56  H    0.040328
    57  H    0.034099
    58  H    0.015673
    59  H    0.024781
    60  H    0.055030
    61  H    0.027266
    62  H    0.014717
    63  H    0.014778
    64  H    0.011063
    65  H    0.012781
    66  H    0.017816
    67  H    0.029941
    68  H    0.004597
    69  H    0.008373
    70  H    0.011477
    71  H    0.020280
    72  H    0.015787
    73  H    0.034468
    74  H    0.007024
    75  H    0.021870
    76  H    0.051955
    77  H    0.045613
    78  H    0.055970
    79  H    0.036931
 Sum of Mulliken charges =  -0.00000

 Dipole moment (field-independent basis, Debye):
    X=              1.2623    Y=             -2.7936    Z=             -1.2068  Tot=              3.2945
 Quadrupole moment (field-independent basis, Debye-Ang):
   XX=           -270.7555   YY=           -230.1268   ZZ=           -254.1107
   XY=             27.8760   XZ=             -1.0222   YZ=              0.0342

 Normal termination of Gaussian 16 at Fri Oct  8 18:45:26 2021.
