 Gaussian 16, Revision A.03,
 Gaussian 16:  ES64L-G16RevA.03 25-Dec-2016

 -----------------------------------
 #p cam-b3lyp/Def2SVP td=(nstates=5)
 -----------------------------------

 --------------------------------
 TDDFT excited states in gaussian
 --------------------------------
 Symbolic Z-matrix:
 Charge =  0 Multiplicity = 1

                         Standard orientation:
 ---------------------------------------------------------------------
 Center     Atomic      Atomic             Coordinates (Angstroms)
 Number     Number       Type             X           Y           Z
 ---------------------------------------------------------------------
      1         12           0      -21.187679   -0.485090   -0.043209
      2          6           0      -19.971858    2.740996   -0.748274
      3          6           0      -20.676837    0.205642    3.326141
      4          6           0      -22.030078   -3.642582    0.546859
      5          6           0      -20.829545   -1.316906   -3.517444
      6          7           0      -20.401417    1.237589    1.132805
      7          6           0      -20.084092    2.497849    0.606950
      8          6           0      -20.106194    3.523241    1.725368
      9          6           0      -20.051159    2.689578    3.037117
     10          6           0      -20.404898    1.283337    2.465981
     11          6           0      -18.733462    2.789045    3.868093
     12          6           0      -21.297684    4.540353    1.657332
     13          6           0      -20.959765    5.980381    2.246275
     14          1           0      -19.569310    6.197930    2.849032
     15          7           0      -21.445517   -1.488183    1.649460
     16          6           0      -21.262452   -1.019251    2.938933
     17          6           0      -21.677105   -2.000131    3.900007
     18          6           0      -21.955688   -3.176982    3.133847
     19          6           0      -21.851672   -2.781057    1.740709
     20          6           0      -21.611559   -1.780965    5.442367
     21          6           0      -22.294566   -4.549396    3.616540
     22          8           0      -22.360031   -5.523543    2.829312
     23          6           0      -22.530007   -5.048946    5.072409
     24          7           0      -21.143113   -2.310693   -1.246207
     25          6           0      -21.644830   -3.468664   -0.776880
     26          6           0      -21.919953   -4.452216   -1.942039
     27          6           0      -21.520462   -3.731703   -3.234724
     28          6           0      -21.175744   -2.305522   -2.616439
     29          6           0      -21.331169   -5.805205   -1.681820
     30          6           0      -22.570726   -3.678661   -4.364976
     31          6           0      -23.909463   -2.994682   -3.993308
     32          7           0      -20.477716    0.451026   -1.829594
     33          6           0      -20.556073    0.040901   -3.117010
     34          6           0      -20.272122    1.210415   -3.947255
     35          6           0      -20.053576    2.335440   -3.103748
     36          6           0      -20.140554    1.811946   -1.790814
     37          6           0      -20.343027    1.258859   -5.471238
     38          6           0      -19.756269    3.731647   -3.063105
     39          8           0      -19.671534    4.610493   -3.916813
     40          6           0      -19.620406    4.063381   -1.437398
     41          6           0      -18.276828    4.716402   -1.172815
     42          8           0      -17.236026    4.096749   -1.072963
     43          8           0      -18.421966    6.069135   -0.964207
     44          6           0      -17.249046    6.930366   -1.074171
     45          1           0      -20.598870    0.573315    4.351237
     46          1           0      -22.398827   -4.638602    0.799557
     47          1           0      -20.874922   -1.609201   -4.568332
     48          1           0      -19.207893    4.137750    1.667712
     49          1           0      -20.879093    3.026118    3.660443
     50          1           0      -18.429160    1.745807    3.945739
     51          1           0      -18.944457    3.119549    4.885835
     52          1           0      -17.889702    3.358566    3.478529
     53          1           0      -22.135497    4.213744    2.272585
     54          1           0      -21.647805    4.595457    0.627366
     55          1           0      -21.607639    6.136727    3.108920
     56          1           0      -21.142026    6.704020    1.452148
     57          1           0      -21.294014   -2.721786    5.893602
     58          1           0      -22.582119   -1.535938    5.872412
     59          1           0      -20.987875   -1.000700    5.878346
     60          1           0      -23.313152   -4.465253    5.557061
     61          1           0      -21.615212   -5.054623    5.664985
     62          1           0      -23.071394   -5.991759    5.140998
     63          1           0      -22.980397   -4.691246   -1.872929
     64          1           0      -20.541327   -4.140772   -3.486324
     65          1           0      -22.073706   -6.534842   -1.358219
     66          1           0      -20.516524   -5.723293   -0.962095
     67          1           0      -20.831278   -6.248395   -2.543814
     68          1           0      -22.773442   -4.731490   -4.562393
     69          1           0      -22.143468   -3.213137   -5.253638
     70          1           0      -24.003438   -2.158391   -4.685753
     71          1           0      -23.815076   -2.661594   -2.959712
     72          1           0      -24.769830   -3.664064   -3.987140
     73          1           0      -20.836139    2.158008   -5.839565
     74          1           0      -20.980055    0.468052   -5.866330
     75          1           0      -19.337419    1.098762   -5.861077
     76          1           0      -20.388545    4.815424   -1.255334
     77          1           0      -16.423098    6.387641   -0.613679
     78          1           0      -17.335547    7.889384   -0.563268
     79          1           0      -17.141060    7.138297   -2.138721
     80         12           0       20.240887   -0.853947   -0.252945
     81          6           0       21.952926    2.239827   -0.302295
     82          6           0       18.057471    0.500828    2.011200
     83          6           0       19.053766   -3.899189    0.280976
     84          6           0       22.829257   -2.205203   -2.183206
     85          7           0       20.131963    1.102791    0.863953
     86          6           0       20.889993    2.239795    0.571798
     87          6           0       20.244004    3.486358    1.225267
     88          6           0       19.000014    2.892518    1.981761
     89          6           0       18.996868    1.389184    1.588742
     90          6           0       18.842101    3.255735    3.447927
     91          6           0       19.877324    4.642965    0.282370
     92          6           0       20.495154    6.008594    0.690327
     93          1           0       19.506863    7.136533    0.887840
     94          7           0       18.689229   -1.559186    0.929938
     95          6           0       17.915635   -0.880618    1.825214
     96          6           0       16.878625   -1.777546    2.276778
     97          6           0       17.250390   -3.134181    1.884376
     98          6           0       18.388858   -2.867099    1.018816
     99          6           0       15.721953   -1.318550    3.307293
    100          6           0       16.859693   -4.447477    2.411474
    101          8           0       17.212669   -5.523983    2.021863
    102          6           0       15.904613   -4.430237    3.601241
    103          7           0       21.008321   -2.820262   -0.717908
    104          6           0       20.277940   -3.914974   -0.429208
    105          6           0       20.818567   -5.138160   -1.173426
    106          6           0       21.769380   -4.513846   -2.207311
    107          6           0       21.868478   -3.083561   -1.725821
    108          6           0       21.572943   -6.137970   -0.182000
    109          6           0       21.058130   -4.567972   -3.653936
    110          6           0       19.878372   -3.579544   -3.862277
    111          7           0       22.000532   -0.180688   -1.217517
    112          6           0       22.912104   -0.835908   -1.954353
    113          6           0       23.914723    0.107562   -2.370461
    114          6           0       23.553014    1.311291   -1.795281
    115          6           0       22.401933    1.098769   -1.031713
    116          6           0       25.144904   -0.118617   -3.228528
    117          6           0       24.031917    2.690721   -1.672306
    118          8           0       24.990076    3.339855   -1.984593
    119          6           0       22.974946    3.373749   -0.764739
    120          6           0       23.729236    3.891946    0.403543
    121          8           0       24.428701    3.171476    1.070346
    122          8           0       23.611723    5.261986    0.574146
    123          6           0       24.571067    5.898254    1.537767
    124          1           0       17.255673    0.997517    2.561764
    125          1           0       18.632111   -4.905827    0.327038
    126          1           0       23.552557   -2.482963   -2.952752
    127          1           0       20.908955    3.852981    2.007546
    128          1           0       18.105536    3.364593    1.574898
    129          1           0       19.770616    3.649925    3.858276
    130          1           0       18.491460    2.431466    4.069513
    131          1           0       18.139893    4.088669    3.472230
    132          1           0       18.823838    4.901064    0.174291
    133          1           0       20.191213    4.422788   -0.737720
    134          1           0       21.317865    6.287434    0.032005
    135          1           0       20.945559    5.882018    1.673991
    136          1           0       14.767301   -1.662877    2.909731
    137          1           0       15.593882   -0.245142    3.441707
    138          1           0       15.799946   -1.621891    4.351298
    139          1           0       15.012350   -3.950965    3.197739
    140          1           0       16.405898   -3.816099    4.348671
    141          1           0       15.603130   -5.415426    3.958414
    142          1           0       20.057185   -5.675830   -1.739499
    143          1           0       22.797640   -4.865762   -2.293508
    144          1           0       21.468646   -7.137903   -0.603961
    145          1           0       21.224179   -6.213687    0.848474
    146          1           0       22.615221   -5.823895   -0.235613
    147          1           0       20.714835   -5.567945   -3.918359
    148          1           0       21.745708   -4.190399   -4.410881
    149          1           0       19.292634   -3.733720   -4.767882
    150          1           0       20.299920   -2.575937   -3.920821
    151          1           0       19.240314   -3.640706   -2.980060
    152          1           0       24.929436   -0.436750   -4.248308
    153          1           0       25.667030   -0.926494   -2.716534
    154          1           0       25.827730    0.730915   -3.217899
    155          1           0       22.628824    4.208983   -1.373315
    156          1           0       23.871155    6.552442    2.057631
    157          1           0       25.336970    6.497205    1.045417
    158          1           0       25.129306    5.284417    2.244202
 ---------------------------------------------------------------------

 SCF Done:  E(RCAM-B3LYP) =  -4069.82665391     A.U. after   19 cycles

 Excitation energies and oscillator strengths:

 Excited State   1:      Singlet-A      1.6591 eV  747.29 nm  f=0.3990  <S**2>=0.000
     310 -> 316        0.16730
     312 -> 313        0.68826
     310 <- 316        0.10534
 This state for optimization and/or second-order correction.
 Total Energy, E(TD-HF/TD-DFT) =  -4069.76568235
 Copying the excited state density for this state as the 1-particle RhoCI density.

 Excited State   2:      Singlet-A      1.7037 eV  727.75 nm  f=0.4057  <S**2>=0.000
     309 -> 315       -0.17556
     311 -> 314        0.68731
     309 <- 315       -0.10763

 Excited State   3:      Singlet-A      2.1917 eV  565.71 nm  f=0.0125  <S**2>=0.000
     309 -> 314        0.53022
     310 -> 313        0.38796
     311 -> 315        0.20039
     312 -> 316       -0.14461

 Excited State   4:      Singlet-A      2.1920 eV  565.63 nm  f=0.2807  <S**2>=0.000
     309 -> 314       -0.38769
     310 -> 313        0.53043
     311 -> 315       -0.14668
     312 -> 316       -0.19793

 Excited State   5:      Singlet-A      3.1010 eV  399.82 nm  f=0.0000  <S**2>=0.000
     312 -> 314        0.70710

 The electronic state is 1-A.
 Alpha  occ. eigenvalues --  -46.89538 -46.88919 -19.25140 -19.24269 -19.19601
 Alpha  occ. eigenvalues --  -19.19370 -19.19275 -19.19270 -19.18393 -19.18373
 Alpha  occ. eigenvalues --  -14.42561 -14.42106 -14.41916 -14.41443 -14.40283
 Alpha  occ. eigenvalues --  -14.39767 -14.39389 -14.39225 -10.39131 -10.38790
 Alpha  occ. eigenvalues --  -10.35599 -10.35487 -10.35151 -10.34368 -10.31805
 Alpha  occ. eigenvalues --  -10.31552 -10.31522 -10.31428 -10.30948 -10.30810
 Alpha  occ. eigenvalues --  -10.30770 -10.30754 -10.30749 -10.30741 -10.30480
 Alpha  occ. eigenvalues --  -10.30362 -10.30235 -10.29957 -10.29863 -10.29622
 Alpha  occ. eigenvalues --  -10.29527 -10.29347 -10.29303 -10.29155 -10.29049
 Alpha  occ. eigenvalues --  -10.28671 -10.28255 -10.28212 -10.28182 -10.28165
 Alpha  occ. eigenvalues --  -10.28026 -10.28021 -10.27991 -10.27987 -10.27956
 Alpha  occ. eigenvalues --  -10.27886 -10.27862 -10.27760 -10.27535 -10.27530
 Alpha  occ. eigenvalues --  -10.27503 -10.27487 -10.27466 -10.27387 -10.27024
 Alpha  occ. eigenvalues --  -10.26983 -10.26894 -10.26735 -10.26642 -10.26602
 Alpha  occ. eigenvalues --  -10.26548 -10.26504 -10.26342 -10.26271 -10.26268
 Alpha  occ. eigenvalues --  -10.26169 -10.26082 -10.25959 -10.25951 -10.25625
 Alpha  occ. eigenvalues --  -10.25610 -10.25602 -10.25304 -10.25056 -10.25037
 Alpha  occ. eigenvalues --  -10.24917  -3.17941  -3.17490  -1.92824  -1.92410
 Alpha  occ. eigenvalues --   -1.92360  -1.92234  -1.91945  -1.91803  -1.15686
 Alpha  occ. eigenvalues --   -1.15461  -1.11665  -1.11062  -1.09459  -1.08423
 Alpha  occ. eigenvalues --   -1.07619  -1.07468  -1.05182  -1.04340  -1.04285
 Alpha  occ. eigenvalues --   -1.03829  -1.03479  -1.03227  -1.02126  -1.01993
 Alpha  occ. eigenvalues --   -0.92356  -0.92199  -0.89220  -0.88874  -0.88807
 Alpha  occ. eigenvalues --   -0.88562  -0.88214  -0.88159  -0.87736  -0.87379
 Alpha  occ. eigenvalues --   -0.86812  -0.86539  -0.86325  -0.85326  -0.84407
 Alpha  occ. eigenvalues --   -0.83829  -0.83492  -0.83349  -0.82502  -0.82198
 Alpha  occ. eigenvalues --   -0.81205  -0.81077  -0.80859  -0.80640  -0.80161
 Alpha  occ. eigenvalues --   -0.80050  -0.78719  -0.78374  -0.77417  -0.76962
 Alpha  occ. eigenvalues --   -0.76785  -0.76758  -0.76161  -0.75850  -0.75219
 Alpha  occ. eigenvalues --   -0.74998  -0.73099  -0.72553  -0.71760  -0.71096
 Alpha  occ. eigenvalues --   -0.69936  -0.69361  -0.69193  -0.69148  -0.68346
 Alpha  occ. eigenvalues --   -0.68073  -0.67538  -0.67296  -0.65479  -0.65317
 Alpha  occ. eigenvalues --   -0.65230  -0.65152  -0.64926  -0.64436  -0.64163
 Alpha  occ. eigenvalues --   -0.64145  -0.62276  -0.61648  -0.60918  -0.60407
 Alpha  occ. eigenvalues --   -0.59715  -0.59501  -0.59280  -0.58806  -0.58747
 Alpha  occ. eigenvalues --   -0.58121  -0.58084  -0.57531  -0.57432  -0.56965
 Alpha  occ. eigenvalues --   -0.55982  -0.55910  -0.55775  -0.55365  -0.55218
 Alpha  occ. eigenvalues --   -0.54936  -0.54755  -0.54572  -0.54194  -0.53957
 Alpha  occ. eigenvalues --   -0.53488  -0.53422  -0.53062  -0.52939  -0.52788
 Alpha  occ. eigenvalues --   -0.52666  -0.52557  -0.52433  -0.52360  -0.52122
 Alpha  occ. eigenvalues --   -0.52000  -0.51881  -0.51489  -0.51332  -0.51257
 Alpha  occ. eigenvalues --   -0.51038  -0.50759  -0.50733  -0.50028  -0.50027
 Alpha  occ. eigenvalues --   -0.49793  -0.49528  -0.49503  -0.49377  -0.49315
 Alpha  occ. eigenvalues --   -0.49294  -0.49216  -0.49039  -0.49029  -0.48779
 Alpha  occ. eigenvalues --   -0.48618  -0.48401  -0.48283  -0.48200  -0.47934
 Alpha  occ. eigenvalues --   -0.47885  -0.47764  -0.47570  -0.47464  -0.47427
 Alpha  occ. eigenvalues --   -0.47003  -0.46695  -0.46428  -0.46388  -0.46306
 Alpha  occ. eigenvalues --   -0.46128  -0.46094  -0.45893  -0.45843  -0.45589
 Alpha  occ. eigenvalues --   -0.45475  -0.45302  -0.45215  -0.45099  -0.44732
 Alpha  occ. eigenvalues --   -0.44561  -0.44513  -0.44251  -0.44088  -0.44050
 Alpha  occ. eigenvalues --   -0.44010  -0.43680  -0.43415  -0.43380  -0.43326
 Alpha  occ. eigenvalues --   -0.43147  -0.43054  -0.43052  -0.42895  -0.42650
 Alpha  occ. eigenvalues --   -0.42431  -0.42426  -0.42304  -0.42068  -0.41981
 Alpha  occ. eigenvalues --   -0.41936  -0.41859  -0.41613  -0.41542  -0.41458
 Alpha  occ. eigenvalues --   -0.41362  -0.40918  -0.40747  -0.40619  -0.40310
 Alpha  occ. eigenvalues --   -0.40111  -0.39728  -0.39644  -0.39255  -0.39077
 Alpha  occ. eigenvalues --   -0.38690  -0.38322  -0.38060  -0.37834  -0.37815
 Alpha  occ. eigenvalues --   -0.37647  -0.37019  -0.36834  -0.36359  -0.36323
 Alpha  occ. eigenvalues --   -0.36231  -0.35982  -0.34398  -0.34079  -0.34025
 Alpha  occ. eigenvalues --   -0.33755  -0.33392  -0.33071  -0.31612  -0.31480
 Alpha  occ. eigenvalues --   -0.31216  -0.30805  -0.30749  -0.30385  -0.30306
 Alpha  occ. eigenvalues --   -0.30295  -0.30146  -0.29503  -0.24172  -0.24134
 Alpha  occ. eigenvalues --   -0.21576  -0.21395
 Alpha virt. eigenvalues --   -0.09256  -0.09167  -0.01424  -0.01422  -0.00062
 Alpha virt. eigenvalues --    0.00563   0.01348   0.01691   0.02155   0.02516
 Alpha virt. eigenvalues --    0.05193   0.05313   0.05374   0.05676   0.06062

 Mulliken charges:
               1
     1  Mg   0.835522
     2  C    0.031233
     3  C   -0.057087
     4  C   -0.053471
     5  C   -0.058932
     6  N   -0.269263
     7  C   -0.044985
     8  C    0.001981
     9  C   -0.047183
    10  C   -0.014818
    11  C    0.074628
    12  C    0.034741
    13  C   -0.076592
    14  H    0.020592
    15  N   -0.405733
    16  C    0.178239
    17  C   -0.125133
    18  C   -0.000868
    19  C    0.109747
    20  C    0.101755
    21  C   -0.004288
    22  O   -0.244029
    23  C    0.051027
    24  N   -0.270202
    25  C    0.053225
    26  C   -0.078178
    27  C    0.027880
    28  C   -0.007783
    29  C    0.069546
    30  C    0.031235
    31  C    0.009342
    32  N   -0.344256
    33  C    0.135693
    34  C   -0.189190
    35  C    0.048237
    36  C    0.088848
    37  C    0.113939
    38  C    0.043014
    39  O   -0.170961
    40  C   -0.068814
    41  C    0.209031
    42  O   -0.207563
    43  O   -0.347369
    44  C    0.172024
    45  H   -0.027405
    46  H   -0.004039
    47  H   -0.028297
    48  H    0.008139
    49  H    0.006987
    50  H    0.010107
    51  H    0.012678
    52  H    0.036543
    53  H    0.005624
    54  H    0.014520
    55  H    0.032448
    56  H    0.046722
    57  H    0.016024
    58  H    0.027860
    59  H    0.023611
    60  H    0.009475
    61  H    0.052511
    62  H    0.023015
    63  H    0.010417
    64  H    0.009990
    65  H    0.021292
    66  H    0.019804
    67  H   -0.000299
    68  H    0.007296
    69  H    0.015365
    70  H    0.024409
    71  H    0.019923
    72  H    0.019873
    73  H    0.034821
    74  H   -0.002141
    75  H    0.035951
    76  H    0.036134
    77  H    0.043619
    78  H    0.035893
    79  H    0.046351
    80  Mg   0.813037
    81  C   -0.023613
    82  C   -0.077239
    83  C   -0.062011
    84  C   -0.064334
    85  N   -0.302467
    86  C   -0.035147
    87  C    0.006891
    88  C   -0.058624
    89  C    0.050775
    90  C    0.068884
    91  C    0.056717
    92  C   -0.088701
    93  H    0.008348
    94  N   -0.363082
    95  C    0.161197
    96  C   -0.116968
    97  C   -0.041618
    98  C    0.130641
    99  C    0.062494
   100  C   -0.022261
   101  O   -0.176333
   102  C    0.054556
   103  N   -0.263233
   104  C    0.030066
   105  C   -0.035231
   106  C   -0.014422
   107  C    0.032488
   108  C    0.066529
   109  C    0.004390
   110  C   -0.014683
   111  N   -0.320742
   112  C    0.065156
   113  C   -0.162624
   114  C   -0.035086
   115  C    0.140027
   116  C    0.116972
   117  C    0.069102
   118  O   -0.136715
   119  C    0.003808
   120  C    0.181212
   121  O   -0.201526
   122  O   -0.351206
   123  C    0.165226
   124  H   -0.034072
   125  H   -0.000957
   126  H   -0.031201
   127  H    0.018615
   128  H    0.008148
   129  H    0.008548
   130  H    0.022438
   131  H    0.009362
   132  H    0.019172
   133  H    0.009150
   134  H    0.046111
   135  H    0.015621
   136  H    0.027237
   137  H    0.003895
   138  H    0.033280
   139  H    0.021905
   140  H    0.036806
   141  H    0.022633
   142  H    0.016605
   143  H    0.012819
   144  H    0.017352
   145  H    0.035548
   146  H    0.016210
   147  H    0.020208
   148  H    0.002063
   149  H    0.023699
   150  H    0.021704
   151  H    0.021081
   152  H    0.029130
   153  H    0.019734
   154  H    0.036335
   155  H    0.033838
   156  H    0.035890
   157  H    0.044036
   158  H    0.056407
 Sum of Mulliken charges =  -0.00000

 Dipole moment (field-independent basis, Debye):
    X=             -6.3466    Y=              1.2718    Z=              3.4857  Tot=              7.3516
 Quadrupole moment (field-independent basis, Debye-Ang):
   XX=           -515.9800   YY=           -517.8984   ZZ=           -477.6249
   XY=             -8.6971   XZ=            -86.5441   YZ=             50.6143

 Normal termination of Gaussian 16 at Wed Sep 15 06:41:49 2021.
