 Gaussian 16, Revision A.03,
 Gaussian 16:  ES64L-G16RevA.03 25-Dec-2016

 -----------------------------------
 #p cam-b3lyp/Def2SVP td=(nstates=5)
 -----------------------------------

 --------------------------------
 TDDFT excited states in gaussian
 --------------------------------
 Symbolic Z-matrix:
 Charge =  0 Multiplicity = 1

                         Standard orientation:
 ---------------------------------------------------------------------
 Center     Atomic      Atomic             Coordinates (Angstroms)
 Number     Number       Type             X           Y           Z
 ---------------------------------------------------------------------
      1         12           0       21.547822   -0.364648    0.032452
      2          6           0       18.178349   -1.305722   -0.301053
      3          6           0       21.781795   -0.258958   -3.396285
      4          6           0       24.419779    1.226102    0.441023
      5          6           0       21.096135   -0.259343    3.554203
      6          7           0       20.083493   -0.490586   -1.616663
      7          6           0       18.726919   -0.898203   -1.535055
      8          6           0       18.170950   -1.300062   -2.838678
      9          6           0       19.395909   -1.045322   -3.819181
     10          6           0       20.517537   -0.600804   -2.893744
     11          6           0       19.681967   -2.256313   -4.739881
     12          6           0       17.030510   -0.456046   -3.320302
     13          6           0       17.106827    1.047641   -3.016552
     14          1           0       16.557376    2.121331   -4.034630
     15          7           0       22.972719    0.371454   -1.288624
     16          6           0       22.919264    0.195021   -2.622669
     17          6           0       24.160641    0.655385   -3.192764
     18          6           0       24.984660    1.026722   -2.101825
     19          6           0       24.160488    0.861782   -0.893693
     20          6           0       24.478424    0.745517   -4.661150
     21          6           0       26.431950    1.507833   -2.201275
     22          8           0       26.984303    1.615475   -3.278673
     23          6           0       27.306010    2.004720   -1.088057
     24          7           0       22.492650    0.605158    1.709301
     25          6           0       23.738653    1.167436    1.627579
     26          6           0       24.350331    1.412790    3.046080
     27          6           0       23.114750    1.204121    3.973135
     28          6           0       22.183738    0.458726    3.042111
     29          6           0       25.503814    0.461844    3.447194
     30          6           0       22.306597    2.526430    4.376616
     31          6           0       21.941202    2.678579    5.808741
     32          7           0       20.083203   -0.781218    1.363616
     33          6           0       20.124115   -0.868320    2.700013
     34          6           0       18.966323   -1.700859    3.201284
     35          6           0       18.218765   -1.920930    2.000797
     36          6           0       18.862620   -1.219233    0.942616
     37          6           0       18.616205   -2.163441    4.608303
     38          6           0       16.966367   -2.435053    1.526576
     39          8           0       16.050321   -2.975129    2.126345
     40          6           0       16.913429   -2.074149   -0.012785
     41          6           0       15.791365   -1.072684   -0.192114
     42          8           0       15.750605    0.048222    0.195051
     43          8           0       14.834364   -1.649501   -0.999675
     44          6           0       13.830320   -0.701444   -1.493038
     45          1           0       21.905326   -0.418521   -4.469298
     46          1           0       25.435561    1.587983    0.608684
     47          1           0       21.086207   -0.328066    4.643977
     48          1           0       17.841842   -2.335510   -2.751358
     49          1           0       19.330629   -0.155634   -4.445433
     50          1           0       19.759280   -1.754602   -5.704622
     51          1           0       18.828203   -2.928601   -4.654167
     52          1           0       20.638689   -2.735187   -4.530451
     53          1           0       16.047559   -0.870404   -3.094647
     54          1           0       16.900230   -0.440097   -4.402595
     55          1           0       18.161746    1.236590   -2.814819
     56          1           0       16.594985    1.109266   -2.056016
     57          1           0       24.935070    1.705376   -4.904759
     58          1           0       23.582989    0.537318   -5.246644
     59          1           0       25.207290   -0.049341   -4.821238
     60          1           0       26.986903    2.936216   -0.621634
     61          1           0       28.201740    2.289715   -1.640119
     62          1           0       27.654138    1.209780   -0.427663
     63          1           0       24.737460    2.431426    3.067262
     64          1           0       23.333076    0.606194    4.858340
     65          1           0       25.156188   -0.181920    4.254969
     66          1           0       26.447285    0.995328    3.561608
     67          1           0       25.707560   -0.204847    2.610036
     68          1           0       21.412677    2.640991    3.763955
     69          1           0       22.981112    3.335727    4.096507
     70          1           0       22.306845    3.607590    6.245681
     71          1           0       22.266801    1.845606    6.432259
     72          1           0       20.861629    2.731615    5.946868
     73          1           0       17.626464   -1.761843    4.825697
     74          1           0       19.452080   -1.905657    5.259826
     75          1           0       18.476541   -3.241670    4.531812
     76          1           0       16.773611   -2.954478   -0.639741
     77          1           0       14.219035    0.310396   -1.607016
     78          1           0       13.059139   -0.728181   -0.723126
     79          1           0       13.379826   -1.176607   -2.364038
     80         12           0      -20.524665    0.910801   -0.321701
     81          6           0      -21.831096   -2.424983   -0.297080
     82          6           0      -17.451375   -0.527864    0.641992
     83          6           0      -19.360343    3.882087    0.399397
     84          6           0      -23.662178    2.086641   -0.901249
     85          7           0      -19.758791   -1.238657    0.061298
     86          6           0      -20.487126   -2.367594   -0.112849
     87          6           0      -19.560732   -3.566246    0.009071
     88          6           0      -18.124797   -3.037463    0.284103
     89          6           0      -18.428276   -1.526930    0.303339
     90          6           0      -17.458003   -3.632031    1.649356
     91          6           0      -19.556673   -4.475290   -1.293791
     92          6           0      -19.708817   -5.981318   -1.077746
     93          1           0      -19.113659   -6.684537    0.207600
     94          7           0      -18.659716    1.584956    0.476551
     95          6           0      -17.592546    0.866079    0.753554
     96          6           0      -16.582484    1.766056    1.234453
     97          6           0      -17.006443    3.107509    1.057306
     98          6           0      -18.378069    2.901809    0.671995
     99          6           0      -15.159496    1.313399    1.557514
    100          6           0      -16.311711    4.458858    1.117206
    101          8           0      -16.904498    5.514812    0.992369
    102          6           0      -14.816951    4.427031    1.280369
    103          7           0      -21.491778    2.672045    0.077793
    104          6           0      -20.734200    3.841851    0.159816
    105          6           0      -21.565803    5.125921   -0.106836
    106          6           0      -22.876862    4.461652   -0.673605
    107          6           0      -22.677363    2.956472   -0.496513
    108          6           0      -21.730732    5.948081    1.179559
    109          6           0      -23.107671    4.731038   -2.235474
    110          6           0      -24.162413    5.705199   -2.641102
    111          7           0      -22.323502    0.061637   -0.662924
    112          6           0      -23.536810    0.686385   -0.855066
    113          6           0      -24.653739   -0.252613   -0.918367
    114          6           0      -24.023073   -1.530016   -0.704637
    115          6           0      -22.658425   -1.270474   -0.435838
    116          6           0      -26.030619    0.113486   -1.340397
    117          6           0      -24.223352   -2.970997   -0.702970
    118          8           0      -25.285124   -3.581727   -0.923138
    119          6           0      -22.767706   -3.645746   -0.397665
    120          6           0      -22.946409   -4.364599    0.853919
    121          8           0      -23.333721   -3.846602    1.878426
    122          8           0      -22.618762   -5.656128    0.729142
    123          6           0      -22.767089   -6.630525    1.855332
    124          1           0      -16.459104   -0.922717    0.869523
    125          1           0      -18.975511    4.886030    0.205066
    126          1           0      -24.633531    2.506369   -1.169982
    127          1           0      -19.890261   -4.136066    0.877888
    128          1           0      -17.415543   -3.369395   -0.474296
    129          1           0      -17.927292   -4.574443    1.931885
    130          1           0      -17.608414   -2.850225    2.394292
    131          1           0      -16.387188   -3.772907    1.503261
    132          1           0      -18.709210   -4.323412   -1.960849
    133          1           0      -20.413895   -4.213743   -1.914047
    134          1           0      -19.326060   -6.549377   -1.925892
    135          1           0      -20.789145   -6.119373   -1.121852
    136          1           0      -14.447760    1.464210    0.745686
    137          1           0      -15.140883    0.298126    1.954862
    138          1           0      -14.839129    1.916487    2.406772
    139          1           0      -14.301996    3.661874    0.698677
    140          1           0      -14.471561    4.289709    2.304087
    141          1           0      -14.392353    5.310160    0.802908
    142          1           0      -21.023901    5.713438   -0.847459
    143          1           0      -23.721446    4.857874   -0.109727
    144          1           0      -21.106042    5.618640    2.009703
    145          1           0      -22.750236    5.898522    1.560378
    146          1           0      -21.509946    6.994498    0.966392
    147          1           0      -23.364301    3.847055   -2.819240
    148          1           0      -22.195231    5.034760   -2.747285
    149          1           0      -23.712736    6.556254   -3.150970
    150          1           0      -24.601227    5.999709   -1.687607
    151          1           0      -24.875815    5.235617   -3.318272
    152          1           0      -26.501297   -0.692739   -1.902011
    153          1           0      -25.946668    1.071295   -1.853540
    154          1           0      -26.603595    0.271660   -0.425711
    155          1           0      -22.478063   -4.350872   -1.175607
    156          1           0      -23.769432   -6.546631    2.275707
    157          1           0      -22.052987   -6.453634    2.659989
    158          1           0      -22.507368   -7.654022    1.586378
 ---------------------------------------------------------------------

 SCF Done:  E(RCAM-B3LYP) =  -4069.79535027     A.U. after   18 cycles

 Excitation energies and oscillator strengths:

 Excited State   1:      Singlet-A      1.6651 eV  744.62 nm  f=0.3932  <S**2>=0.000
     309 -> 315        0.17236
     311 -> 313        0.68734
     309 <- 315        0.10771
 This state for optimization and/or second-order correction.
 Total Energy, E(TD-HF/TD-DFT) =  -4069.73415994
 Copying the excited state density for this state as the 1-particle RhoCI density.

 Excited State   2:      Singlet-A      1.6835 eV  736.47 nm  f=0.3874  <S**2>=0.000
     310 -> 316       -0.17282
     312 -> 314        0.68652
     310 <- 316       -0.10708

 Excited State   3:      Singlet-A      2.1994 eV  563.73 nm  f=0.1323  <S**2>=0.000
     310 -> 314        0.65028
     312 -> 316        0.26296

 Excited State   4:      Singlet-A      2.2662 eV  547.11 nm  f=0.1011  <S**2>=0.000
     309 -> 313        0.62923
     311 -> 315       -0.31014

 Excited State   5:      Singlet-A      3.0796 eV  402.59 nm  f=0.0000  <S**2>=0.000
     312 -> 313        0.70710

 The electronic state is 1-A.
 Alpha  occ. eigenvalues --  -46.88615 -46.88611 -19.25254 -19.24647 -19.20468
 Alpha  occ. eigenvalues --  -19.19519 -19.19161 -19.19004 -19.18510 -19.18281
 Alpha  occ. eigenvalues --  -14.42410 -14.41919 -14.41870 -14.41704 -14.39629
 Alpha  occ. eigenvalues --  -14.39567 -14.39365 -14.39079 -10.39285 -10.38493
 Alpha  occ. eigenvalues --  -10.35777 -10.35452 -10.35029 -10.34636 -10.32532
 Alpha  occ. eigenvalues --  -10.31482 -10.31323 -10.31244 -10.30979 -10.30852
 Alpha  occ. eigenvalues --  -10.30735 -10.30690 -10.30616 -10.30510 -10.30502
 Alpha  occ. eigenvalues --  -10.30260 -10.29983 -10.29641 -10.29575 -10.29352
 Alpha  occ. eigenvalues --  -10.29170 -10.29017 -10.28749 -10.28739 -10.28557
 Alpha  occ. eigenvalues --  -10.28548 -10.28544 -10.28370 -10.28328 -10.28198
 Alpha  occ. eigenvalues --  -10.28172 -10.28162 -10.28079 -10.28010 -10.27927
 Alpha  occ. eigenvalues --  -10.27858 -10.27789 -10.27778 -10.27718 -10.27608
 Alpha  occ. eigenvalues --  -10.27469 -10.27078 -10.27074 -10.26998 -10.26784
 Alpha  occ. eigenvalues --  -10.26655 -10.26649 -10.26593 -10.26562 -10.26541
 Alpha  occ. eigenvalues --  -10.26524 -10.26422 -10.26416 -10.26217 -10.26059
 Alpha  occ. eigenvalues --  -10.26046 -10.26042 -10.25800 -10.25568 -10.25560
 Alpha  occ. eigenvalues --  -10.25545 -10.25519 -10.25455 -10.25400 -10.25164
 Alpha  occ. eigenvalues --  -10.25015  -3.17260  -3.17240  -1.92121  -1.92105
 Alpha  occ. eigenvalues --   -1.91720  -1.91700  -1.91578  -1.91550  -1.17307
 Alpha  occ. eigenvalues --   -1.16552  -1.10835  -1.10440  -1.09988  -1.09003
 Alpha  occ. eigenvalues --   -1.08430  -1.07361  -1.04641  -1.04617  -1.04028
 Alpha  occ. eigenvalues --   -1.03501  -1.03372  -1.03136  -1.02662  -1.01876
 Alpha  occ. eigenvalues --   -0.93220  -0.92155  -0.89906  -0.89463  -0.88628
 Alpha  occ. eigenvalues --   -0.88420  -0.88256  -0.88089  -0.87561  -0.87099
 Alpha  occ. eigenvalues --   -0.87012  -0.86398  -0.86369  -0.85840  -0.84779
 Alpha  occ. eigenvalues --   -0.84219  -0.84203  -0.84117  -0.82751  -0.82657
 Alpha  occ. eigenvalues --   -0.81823  -0.81726  -0.81278  -0.80911  -0.80689
 Alpha  occ. eigenvalues --   -0.80550  -0.78256  -0.77981  -0.77667  -0.77543
 Alpha  occ. eigenvalues --   -0.76884  -0.76858  -0.76270  -0.76085  -0.75170
 Alpha  occ. eigenvalues --   -0.74834  -0.72739  -0.72477  -0.71727  -0.71407
 Alpha  occ. eigenvalues --   -0.69667  -0.68846  -0.68742  -0.68717  -0.67793
 Alpha  occ. eigenvalues --   -0.67642  -0.67120  -0.66966  -0.65899  -0.65550
 Alpha  occ. eigenvalues --   -0.65153  -0.65116  -0.64616  -0.64577  -0.64492
 Alpha  occ. eigenvalues --   -0.64415  -0.62416  -0.62142  -0.60493  -0.60041
 Alpha  occ. eigenvalues --   -0.59451  -0.59222  -0.59105  -0.58977  -0.58809
 Alpha  occ. eigenvalues --   -0.58482  -0.58174  -0.58035  -0.57464  -0.57416
 Alpha  occ. eigenvalues --   -0.56596  -0.56143  -0.56074  -0.55750  -0.55456
 Alpha  occ. eigenvalues --   -0.55155  -0.55139  -0.54640  -0.54359  -0.54110
 Alpha  occ. eigenvalues --   -0.53494  -0.53309  -0.53080  -0.52982  -0.52907
 Alpha  occ. eigenvalues --   -0.52888  -0.52611  -0.52405  -0.52355  -0.52321
 Alpha  occ. eigenvalues --   -0.52158  -0.52086  -0.51653  -0.51461  -0.51278
 Alpha  occ. eigenvalues --   -0.51194  -0.51184  -0.50966  -0.50580  -0.50519
 Alpha  occ. eigenvalues --   -0.50167  -0.50064  -0.49964  -0.49642  -0.49443
 Alpha  occ. eigenvalues --   -0.49288  -0.49256  -0.49020  -0.48975  -0.48802
 Alpha  occ. eigenvalues --   -0.48747  -0.48631  -0.48559  -0.48401  -0.48391
 Alpha  occ. eigenvalues --   -0.48135  -0.47710  -0.47590  -0.47421  -0.47234
 Alpha  occ. eigenvalues --   -0.47140  -0.46939  -0.46816  -0.46736  -0.46594
 Alpha  occ. eigenvalues --   -0.46414  -0.46186  -0.46110  -0.46039  -0.45917
 Alpha  occ. eigenvalues --   -0.45882  -0.45538  -0.45298  -0.45266  -0.45092
 Alpha  occ. eigenvalues --   -0.44708  -0.44503  -0.44406  -0.44229  -0.44085
 Alpha  occ. eigenvalues --   -0.43941  -0.43815  -0.43637  -0.43585  -0.43290
 Alpha  occ. eigenvalues --   -0.43266  -0.43009  -0.42841  -0.42750  -0.42601
 Alpha  occ. eigenvalues --   -0.42559  -0.42463  -0.42416  -0.42232  -0.42163
 Alpha  occ. eigenvalues --   -0.41934  -0.41835  -0.41507  -0.41406  -0.41281
 Alpha  occ. eigenvalues --   -0.41153  -0.41002  -0.40807  -0.40543  -0.40437
 Alpha  occ. eigenvalues --   -0.40284  -0.39856  -0.39713  -0.39317  -0.39187
 Alpha  occ. eigenvalues --   -0.38493  -0.38386  -0.37915  -0.37912  -0.37371
 Alpha  occ. eigenvalues --   -0.37073  -0.36965  -0.36544  -0.36480  -0.36214
 Alpha  occ. eigenvalues --   -0.36140  -0.35803  -0.35145  -0.34446  -0.34265
 Alpha  occ. eigenvalues --   -0.33755  -0.33060  -0.33002  -0.31685  -0.31414
 Alpha  occ. eigenvalues --   -0.31230  -0.31139  -0.30732  -0.30569  -0.30078
 Alpha  occ. eigenvalues --   -0.29937  -0.29689  -0.29385  -0.24344  -0.23824
 Alpha  occ. eigenvalues --   -0.21082  -0.20953
 Alpha virt. eigenvalues --   -0.08815  -0.08710  -0.01824  -0.01109   0.00125
 Alpha virt. eigenvalues --    0.00182   0.01346   0.01787   0.02085   0.02490
 Alpha virt. eigenvalues --    0.04775   0.05012   0.05394   0.05530   0.05851

 Mulliken charges:
               1
     1  Mg   0.832754
     2  C   -0.065628
     3  C   -0.082013
     4  C   -0.051808
     5  C   -0.084136
     6  N   -0.298300
     7  C   -0.025807
     8  C    0.018486
     9  C   -0.084327
    10  C    0.035870
    11  C    0.085090
    12  C    0.008059
    13  C   -0.055344
    14  H    0.025449
    15  N   -0.351569
    16  C    0.137614
    17  C   -0.183560
    18  C   -0.001184
    19  C    0.138268
    20  C    0.160167
    21  C   -0.032198
    22  O   -0.207962
    23  C    0.057933
    24  N   -0.289641
    25  C    0.015903
    26  C   -0.027198
    27  C   -0.062475
    28  C    0.016112
    29  C    0.089636
    30  C    0.056711
    31  C    0.010155
    32  N   -0.344923
    33  C    0.137342
    34  C   -0.195340
    35  C   -0.004426
    36  C    0.133849
    37  C    0.146235
    38  C    0.051123
    39  O   -0.169783
    40  C    0.007128
    41  C    0.187059
    42  O   -0.181055
    43  O   -0.345679
    44  C    0.175678
    45  H   -0.026727
    46  H   -0.055754
    47  H   -0.024787
    48  H    0.014618
    49  H    0.028485
    50  H    0.016092
    51  H    0.023407
    52  H    0.024330
    53  H   -0.006982
    54  H   -0.001161
    55  H    0.031184
    56  H    0.037554
    57  H    0.042165
    58  H   -0.001164
    59  H    0.032102
    60  H    0.043748
    61  H    0.018274
    62  H    0.031583
    63  H    0.006954
    64  H    0.007297
    65  H    0.018896
    66  H    0.023749
    67  H    0.006589
    68  H    0.033364
    69  H   -0.000376
    70  H    0.016141
    71  H    0.005078
    72  H    0.013744
    73  H    0.046438
    74  H    0.016197
    75  H    0.034347
    76  H    0.034113
    77  H    0.056380
    78  H    0.035365
    79  H    0.036494
    80  Mg   0.829331
    81  C   -0.027435
    82  C   -0.081360
    83  C   -0.048337
    84  C   -0.098018
    85  N   -0.248717
    86  C   -0.030229
    87  C    0.007222
    88  C   -0.059287
    89  C    0.026563
    90  C    0.039529
    91  C    0.031807
    92  C   -0.059025
    93  H    0.004059
    94  N   -0.302850
    95  C    0.146149
    96  C   -0.168991
    97  C   -0.020040
    98  C    0.093319
    99  C    0.099917
   100  C    0.033813
   101  O   -0.186989
   102  C    0.024080
   103  N   -0.332254
   104  C   -0.001087
   105  C   -0.024809
   106  C   -0.002652
   107  C    0.080344
   108  C    0.078542
   109  C   -0.015176
   110  C    0.023917
   111  N   -0.395372
   112  C    0.148612
   113  C   -0.178812
   114  C    0.024797
   115  C    0.119046
   116  C    0.137498
   117  C    0.044570
   118  O   -0.191636
   119  C    0.008861
   120  C    0.183314
   121  O   -0.215310
   122  O   -0.324725
   123  C    0.186192
   124  H   -0.034509
   125  H   -0.001833
   126  H   -0.023817
   127  H    0.020280
   128  H    0.020915
   129  H    0.027654
   130  H    0.024001
   131  H    0.016065
   132  H    0.005682
   133  H    0.004812
   134  H    0.020165
   135  H    0.032993
   136  H    0.044435
   137  H    0.015545
   138  H    0.008561
   139  H    0.015423
   140  H    0.052173
   141  H    0.023569
   142  H    0.017645
   143  H    0.012697
   144  H    0.031341
   145  H    0.004845
   146  H    0.019352
   147  H    0.006158
   148  H   -0.004172
   149  H    0.014265
   150  H    0.005115
   151  H    0.017072
   152  H    0.042109
   153  H    0.016883
   154  H    0.031345
   155  H    0.029673
   156  H    0.052771
   157  H    0.029871
   158  H    0.042547
 Sum of Mulliken charges =  -0.00000

 Dipole moment (field-independent basis, Debye):
    X=              6.2590    Y=             -0.9519    Z=             -1.1515  Tot=              6.4348
 Quadrupole moment (field-independent basis, Debye-Ang):
   XX=           -636.8662   YY=           -508.0210   ZZ=           -494.8759
   XY=            -44.8548   XZ=            101.2878   YZ=              3.8441

 Normal termination of Gaussian 16 at Tue Sep 14 18:21:20 2021.
