 Gaussian 16, Revision A.03,
 Gaussian 16:  ES64L-G16RevA.03 25-Dec-2016

 ----------------------------------------------------------
 #p cam-b3lyp/Def2SVP td=(nstates=5) density=(transition=1)
 ----------------------------------------------------------

 --------------------------------
 TDDFT excited states in gaussian
 --------------------------------
 Symbolic Z-matrix:
 Charge =  0 Multiplicity = 1

                         Standard orientation:
 ---------------------------------------------------------------------
 Center     Atomic      Atomic             Coordinates (Angstroms)
 Number     Number       Type             X           Y           Z
 ---------------------------------------------------------------------
      1         12           0      -25.155653   -0.504465   -0.287113
      2          6           0      -23.239148    2.421817   -0.490412
      3          6           0      -26.959139    0.987076    2.369715
      4          6           0      -26.794927   -3.443110    0.167445
      5          6           0      -22.865206   -2.066073   -2.345330
      6          7           0      -25.177543    1.504602    0.648349
      7          6           0      -24.390113    2.584907    0.239826
      8          6           0      -25.013232    3.915452    0.796639
      9          6           0      -26.101526    3.401455    1.746248
     10          6           0      -26.056612    1.838292    1.623951
     11          6           0      -25.820990    3.874822    3.197956
     12          6           0      -25.486735    4.760314   -0.379796
     13          6           0      -25.517233    6.270278   -0.208714
     14          1           0      -25.378281    6.847681    1.218062
     15          7           0      -26.675722   -1.181201    1.048875
     16          6           0      -27.259015   -0.425411    2.083583
     17          6           0      -28.224479   -1.224248    2.817844
     18          6           0      -28.282196   -2.525923    2.180711
     19          6           0      -27.212367   -2.428669    1.097187
     20          6           0      -29.139314   -0.677056    3.920976
     21          6           0      -29.154597   -3.733421    2.465496
     22          8           0      -29.052323   -4.744047    1.782944
     23          6           0      -30.266667   -3.592791    3.432597
     24          7           0      -24.879226   -2.468590   -1.069383
     25          6           0      -25.749229   -3.479898   -0.794139
     26          6           0      -25.426684   -4.705531   -1.688464
     27          6           0      -24.191386   -4.253385   -2.559989
     28          6           0      -23.996038   -2.795911   -2.067994
     29          6           0      -25.155344   -5.946313   -0.819009
     30          6           0      -24.433896   -4.263353   -4.092699
     31          6           0      -23.787564   -5.507437   -4.694218
     32          7           0      -23.323025   -0.048480   -1.187779
     33          6           0      -22.450127   -0.766318   -1.935268
     34          6           0      -21.226429    0.055855   -2.097622
     35          6           0      -21.514615    1.315069   -1.659123
     36          6           0      -22.797568    1.180022   -1.069723
     37          6           0      -20.009645   -0.470180   -2.840224
     38          6           0      -21.055583    2.705104   -1.536497
     39          8           0      -19.985847    3.199338   -1.871517
     40          6           0      -22.195149    3.446094   -0.864115
     41          6           0      -21.581993    4.176308    0.256577
     42          8           0      -21.218597    3.774919    1.370383
     43          8           0      -21.380898    5.476705   -0.158852
     44          6           0      -20.718674    6.362590    0.773776
     45          1           0      -27.545764    1.508865    3.128407
     46          1           0      -27.440463   -4.313022    0.305505
     47          1           0      -22.144697   -2.655638   -2.916193
     48          1           0      -24.150995    4.329861    1.320450
     49          1           0      -27.011138    3.935094    1.470856
     50          1           0      -25.536649    3.084016    3.892337
     51          1           0      -26.790847    4.133797    3.621757
     52          1           0      -25.039757    4.633503    3.240411
     53          1           0      -26.459262    4.338454   -0.635239
     54          1           0      -24.883839    4.514508   -1.253185
     55          1           0      -26.424833    6.653547   -0.673086
     56          1           0      -24.678434    6.568732   -0.838538
     57          1           0      -28.900021    0.340686    4.229846
     58          1           0      -29.071822   -1.310639    4.806360
     59          1           0      -30.173976   -0.784075    3.597358
     60          1           0      -30.989237   -2.883167    3.028804
     61          1           0      -29.890365   -3.430295    4.442565
     62          1           0      -30.850530   -4.509664    3.514116
     63          1           0      -26.318911   -4.927523   -2.273467
     64          1           0      -23.360611   -4.868982   -2.212620
     65          1           0      -24.190910   -6.435232   -0.953496
     66          1           0      -25.923582   -6.606614   -1.220824
     67          1           0      -25.171695   -5.760949    0.254623
     68          1           0      -23.833502   -3.491196   -4.574071
     69          1           0      -25.487001   -4.222800   -4.371601
     70          1           0      -24.564744   -5.910683   -5.343255
     71          1           0      -23.632179   -6.319410   -3.984240
     72          1           0      -22.869536   -5.333712   -5.256288
     73          1           0      -20.009166   -1.543198   -3.033631
     74          1           0      -19.074511   -0.230279   -2.335672
     75          1           0      -20.041477   -0.083536   -3.859458
     76          1           0      -22.632400    4.118246   -1.601726
     77          1           0      -19.808255    5.865354    1.109410
     78          1           0      -21.323311    6.606219    1.647641
     79          1           0      -20.270793    7.133035    0.147064
     80         12           0       24.256008   -0.753395    0.385161
     81          6           0       24.106593    2.462078   -1.192181
     82          6           0       24.450822    0.739918    3.302976
     83          6           0       25.185225   -3.715148    1.546632
     84          6           0       24.403861   -2.134171   -3.020765
     85          7           0       24.228054    1.365480    0.973270
     86          6           0       24.194905    2.535454    0.188663
     87          6           0       24.232423    3.866763    1.030295
     88          6           0       24.278272    3.188068    2.533260
     89          6           0       24.307410    1.680233    2.303940
     90          6           0       25.548271    3.653753    3.366744
     91          6           0       23.057138    4.872518    0.771220
     92          6           0       22.851136    5.940108    1.839146
     93          1           0       23.139784    7.379062    1.373661
     94          7           0       24.654450   -1.412972    2.206050
     95          6           0       24.680563   -0.684003    3.371742
     96          6           0       24.957624   -1.506072    4.530743
     97          6           0       25.158730   -2.831457    3.975285
     98          6           0       24.922530   -2.689120    2.494423
     99          6           0       24.952123   -1.082294    5.923854
    100          6           0       25.476484   -4.143637    4.671053
    101          8           0       25.505267   -5.207541    4.118787
    102          6           0       25.849745   -4.011408    6.123686
    103          7           0       24.792124   -2.650430   -0.606790
    104          6           0       25.109379   -3.731314    0.149609
    105          6           0       25.305653   -4.990911   -0.735832
    106          6           0       24.913798   -4.463820   -2.159966
    107          6           0       24.631681   -2.992309   -1.925328
    108          6           0       26.705793   -5.693777   -0.722320
    109          6           0       23.680771   -5.157673   -2.839253
    110          6           0       24.010076   -6.544607   -3.434383
    111          7           0       24.282708   -0.072253   -1.673019
    112          6           0       24.264922   -0.716815   -2.888432
    113          6           0       24.098192    0.237932   -3.910899
    114          6           0       24.086164    1.462545   -3.356173
    115          6           0       24.224780    1.266461   -1.948644
    116          6           0       23.899693   -0.184867   -5.360649
    117          6           0       24.049479    2.917573   -3.534564
    118          8           0       23.983765    3.582129   -4.536393
    119          6           0       24.087743    3.612256   -2.090659
    120          6           0       25.405784    4.308185   -1.968936
    121          8           0       26.492557    3.919720   -1.604168
    122          8           0       25.146032    5.613787   -2.335757
    123          6           0       26.282661    6.564285   -2.292479
    124          1           0       24.574376    1.144128    4.309737
    125          1           0       25.634034   -4.616617    1.970685
    126          1           0       24.354341   -2.708849   -3.948548
    127          1           0       25.208901    4.326484    0.876934
    128          1           0       23.400350    3.531105    3.081188
    129          1           0       25.242963    3.894481    4.384927
    130          1           0       26.163546    4.467835    2.984517
    131          1           0       26.224661    2.813989    3.523116
    132          1           0       22.233833    4.166780    0.653314
    133          1           0       23.026849    5.400949   -0.181894
    134          1           0       23.503210    5.726123    2.685502
    135          1           0       21.790120    5.987356    2.082760
    136          1           0       24.100057   -1.661477    6.279637
    137          1           0       24.840726   -0.000998    6.005864
    138          1           0       25.808002   -1.348935    6.543583
    139          1           0       24.961020   -4.154865    6.738104
    140          1           0       26.584644   -3.229489    6.317253
    141          1           0       26.609533   -4.782491    6.248030
    142          1           0       24.454852   -5.632002   -0.503174
    143          1           0       25.803714   -4.452300   -2.789657
    144          1           0       27.218321   -5.768641   -1.681826
    145          1           0       26.496902   -6.737161   -0.487125
    146          1           0       27.435935   -5.268209   -0.033935
    147          1           0       23.327222   -4.537020   -3.661834
    148          1           0       22.914137   -5.185319   -2.063660
    149          1           0       25.080755   -6.635245   -3.618524
    150          1           0       23.406673   -6.629992   -4.338028
    151          1           0       23.787219   -7.380183   -2.770198
    152          1           0       23.337406    0.565396   -5.916672
    153          1           0       23.405441   -1.156277   -5.377400
    154          1           0       24.861520   -0.392320   -5.830167
    155          1           0       23.246751    4.291041   -1.946964
    156          1           0       26.168340    7.193694   -3.174930
    157          1           0       27.264471    6.091204   -2.303608
    158          1           0       26.044205    7.077988   -1.360647
 ---------------------------------------------------------------------

 SCF Done:  E(RCAM-B3LYP) =  -4069.81419224     A.U. after   19 cycles

 Excitation energies and oscillator strengths:

 Excited State   1:      Singlet-A      1.6782 eV  738.80 nm  f=0.3901  <S**2>=0.000
     309 -> 315       -0.17296
     312 -> 313        0.68706
     309 <- 315       -0.10454
 This state for optimization and/or second-order correction.
 Total Energy, E(TD-HF/TD-DFT) =  -4069.75252016
 Copying the excited state density for this state as the 1-particle RhoCI density.

 Excited State   2:      Singlet-A      1.6973 eV  730.49 nm  f=0.4024  <S**2>=0.000
     310 -> 316       -0.17774
     311 -> 314        0.68631
     310 <- 316       -0.10765

 Excited State   3:      Singlet-A      2.1968 eV  564.39 nm  f=0.1193  <S**2>=0.000
     309 -> 313        0.64516
     312 -> 315        0.27390

 Excited State   4:      Singlet-A      2.2114 eV  560.66 nm  f=0.1400  <S**2>=0.000
     310 -> 314        0.65082
     311 -> 316        0.26494

 Excited State   5:      Singlet-A      3.1512 eV  393.45 nm  f=0.0000  <S**2>=0.000
     311 -> 313        0.70710

 The electronic state is 1-A.
 Alpha  occ. eigenvalues --  -46.89117 -46.88549 -19.24456 -19.23820 -19.19900
 Alpha  occ. eigenvalues --  -19.19794 -19.19297 -19.19206 -19.19087 -19.18927
 Alpha  occ. eigenvalues --  -14.42189 -14.42168 -14.41740 -14.41299 -14.40119
 Alpha  occ. eigenvalues --  -14.39605 -14.39202 -14.38826 -10.39362 -10.38953
 Alpha  occ. eigenvalues --  -10.35480 -10.35403 -10.35245 -10.34749 -10.31993
 Alpha  occ. eigenvalues --  -10.31205 -10.31183 -10.31156 -10.30991 -10.30969
 Alpha  occ. eigenvalues --  -10.30890 -10.30843 -10.30650 -10.30346 -10.30166
 Alpha  occ. eigenvalues --  -10.30084 -10.30084 -10.30082 -10.29538 -10.29357
 Alpha  occ. eigenvalues --  -10.29346 -10.29067 -10.29056 -10.28885 -10.28836
 Alpha  occ. eigenvalues --  -10.28741 -10.28593 -10.28466 -10.28404 -10.28170
 Alpha  occ. eigenvalues --  -10.28046 -10.27776 -10.27770 -10.27727 -10.27669
 Alpha  occ. eigenvalues --  -10.27646 -10.27614 -10.27596 -10.27563 -10.27398
 Alpha  occ. eigenvalues --  -10.27160 -10.26973 -10.26920 -10.26800 -10.26794
 Alpha  occ. eigenvalues --  -10.26758 -10.26746 -10.26730 -10.26717 -10.26683
 Alpha  occ. eigenvalues --  -10.26527 -10.26494 -10.26291 -10.26228 -10.26132
 Alpha  occ. eigenvalues --  -10.25861 -10.25690 -10.25577 -10.25542 -10.25528
 Alpha  occ. eigenvalues --  -10.25527 -10.25507 -10.25261 -10.25006 -10.24774
 Alpha  occ. eigenvalues --  -10.24685  -3.17515  -3.17091  -1.92428  -1.91988
 Alpha  occ. eigenvalues --   -1.91929  -1.91847  -1.91528  -1.91416  -1.15793
 Alpha  occ. eigenvalues --   -1.15684  -1.11346  -1.10769  -1.10458  -1.10010
 Alpha  occ. eigenvalues --   -1.07445  -1.06865  -1.04321  -1.03786  -1.03275
 Alpha  occ. eigenvalues --   -1.02788  -1.02638  -1.02481  -1.01627  -1.01570
 Alpha  occ. eigenvalues --   -0.93370  -0.92993  -0.89268  -0.88909  -0.88781
 Alpha  occ. eigenvalues --   -0.88228  -0.88100  -0.87966  -0.87125  -0.87108
 Alpha  occ. eigenvalues --   -0.86854  -0.86824  -0.86000  -0.85598  -0.84310
 Alpha  occ. eigenvalues --   -0.83882  -0.83873  -0.83170  -0.82727  -0.82383
 Alpha  occ. eigenvalues --   -0.82155  -0.82028  -0.80895  -0.80688  -0.80055
 Alpha  occ. eigenvalues --   -0.80021  -0.78097  -0.78092  -0.77261  -0.76953
 Alpha  occ. eigenvalues --   -0.76814  -0.76620  -0.75957  -0.75522  -0.74797
 Alpha  occ. eigenvalues --   -0.74536  -0.72748  -0.72536  -0.71300  -0.71007
 Alpha  occ. eigenvalues --   -0.69621  -0.69061  -0.68728  -0.68489  -0.67924
 Alpha  occ. eigenvalues --   -0.67699  -0.67071  -0.66935  -0.65425  -0.65022
 Alpha  occ. eigenvalues --   -0.64917  -0.64633  -0.64587  -0.64392  -0.63896
 Alpha  occ. eigenvalues --   -0.63868  -0.62128  -0.61438  -0.60124  -0.60059
 Alpha  occ. eigenvalues --   -0.59646  -0.59452  -0.59093  -0.58798  -0.58794
 Alpha  occ. eigenvalues --   -0.58351  -0.58310  -0.57821  -0.57639  -0.56851
 Alpha  occ. eigenvalues --   -0.56107  -0.55887  -0.55766  -0.55747  -0.55088
 Alpha  occ. eigenvalues --   -0.54980  -0.54774  -0.54443  -0.54259  -0.54109
 Alpha  occ. eigenvalues --   -0.53637  -0.53631  -0.53599  -0.53415  -0.53318
 Alpha  occ. eigenvalues --   -0.52910  -0.52818  -0.52637  -0.52356  -0.51927
 Alpha  occ. eigenvalues --   -0.51889  -0.51722  -0.51599  -0.51375  -0.51316
 Alpha  occ. eigenvalues --   -0.50974  -0.50771  -0.50519  -0.50332  -0.50168
 Alpha  occ. eigenvalues --   -0.49828  -0.49779  -0.49653  -0.49619  -0.49462
 Alpha  occ. eigenvalues --   -0.49305  -0.49250  -0.49133  -0.49024  -0.48807
 Alpha  occ. eigenvalues --   -0.48646  -0.48385  -0.48164  -0.47947  -0.47860
 Alpha  occ. eigenvalues --   -0.47790  -0.47727  -0.47398  -0.47131  -0.47032
 Alpha  occ. eigenvalues --   -0.46733  -0.46732  -0.46397  -0.46316  -0.46033
 Alpha  occ. eigenvalues --   -0.45886  -0.45870  -0.45722  -0.45425  -0.45278
 Alpha  occ. eigenvalues --   -0.45233  -0.45153  -0.45019  -0.44990  -0.44823
 Alpha  occ. eigenvalues --   -0.44734  -0.44696  -0.44450  -0.44390  -0.44219
 Alpha  occ. eigenvalues --   -0.43958  -0.43791  -0.43593  -0.43455  -0.43399
 Alpha  occ. eigenvalues --   -0.43176  -0.43163  -0.43037  -0.42803  -0.42737
 Alpha  occ. eigenvalues --   -0.42619  -0.42528  -0.42362  -0.42049  -0.41878
 Alpha  occ. eigenvalues --   -0.41794  -0.41597  -0.41529  -0.41243  -0.41095
 Alpha  occ. eigenvalues --   -0.41070  -0.40925  -0.40754  -0.40452  -0.40435
 Alpha  occ. eigenvalues --   -0.39975  -0.39318  -0.38928  -0.38766  -0.38465
 Alpha  occ. eigenvalues --   -0.38080  -0.38022  -0.37960  -0.37757  -0.37731
 Alpha  occ. eigenvalues --   -0.36988  -0.36520  -0.36448  -0.36320  -0.36309
 Alpha  occ. eigenvalues --   -0.35846  -0.35712  -0.34617  -0.34365  -0.34087
 Alpha  occ. eigenvalues --   -0.33915  -0.32618  -0.32569  -0.31576  -0.31458
 Alpha  occ. eigenvalues --   -0.31291  -0.31275  -0.30810  -0.30547  -0.30276
 Alpha  occ. eigenvalues --   -0.30088  -0.29985  -0.29719  -0.23804  -0.23567
 Alpha  occ. eigenvalues --   -0.20939  -0.20937
 Alpha virt. eigenvalues --   -0.08670  -0.08511  -0.01464  -0.01108   0.00184
 Alpha virt. eigenvalues --    0.00903   0.01823   0.02489   0.02509   0.02698
 Alpha virt. eigenvalues --    0.04968   0.05136   0.05203   0.05870   0.05874

 Mulliken charges:
               1
     1  Mg  11.999570
     2  C    6.029251
     3  C    5.987347
     4  C    5.970286
     5  C    6.011581
     6  N    7.014890
     7  C    5.961796
     8  C    6.005824
     9  C    5.987239
    10  C    6.032702
    11  C    5.997761
    12  C    6.004703
    13  C    6.000020
    14  H    0.992773
    15  N    6.990629
    16  C    6.045774
    17  C    6.017424
    18  C    6.019871
    19  C    6.036330
    20  C    5.996011
    21  C    6.014136
    22  O    8.030912
    23  C    5.991501
    24  N    6.992715
    25  C    6.037839
    26  C    5.991309
    27  C    6.012548
    28  C    5.970353
    29  C    5.997306
    30  C    6.004862
    31  C    6.001994
    32  N    7.004342
    33  C    5.958600
    34  C    5.970379
    35  C    5.997623
    36  C    5.959402
    37  C    6.004809
    38  C    5.981966
    39  O    7.972008
    40  C    5.998911
    41  C    5.996554
    42  O    7.992248
    43  O    7.999447
    44  C    6.001710
    45  H    1.013450
    46  H    1.001371
    47  H    0.988132
    48  H    1.002753
    49  H    1.007335
    50  H    0.998833
    51  H    0.999307
    52  H    1.014131
    53  H    0.989692
    54  H    1.008149
    55  H    0.996518
    56  H    1.004515
    57  H    1.018018
    58  H    1.018834
    59  H    1.018411
    60  H    1.007688
    61  H    1.007928
    62  H    1.016029
    63  H    0.998833
    64  H    0.995898
    65  H    1.009624
    66  H    1.000364
    67  H    0.994870
    68  H    1.005137
    69  H    0.989671
    70  H    0.994069
    71  H    0.994058
    72  H    1.001425
    73  H    0.980277
    74  H    0.979982
    75  H    0.977564
    76  H    0.992493
    77  H    0.999361
    78  H    0.992863
    79  H    0.997156
    80  Mg  12.000030
    81  C    5.999547
    82  C    6.000255
    83  C    6.000312
    84  C    5.999739
    85  N    6.999864
    86  C    6.000490
    87  C    5.999769
    88  C    6.000208
    89  C    5.999579
    90  C    6.000016
    91  C    5.999972
    92  C    6.000004
    93  H    0.999997
    94  N    7.000107
    95  C    5.999407
    96  C    5.999746
    97  C    5.999709
    98  C    5.999602
    99  C    6.000130
   100  C    5.999789
   101  O    7.999598
   102  C    6.000155
   103  N    6.999997
   104  C    5.999502
   105  C    6.000196
   106  C    5.999843
   107  C    6.000464
   108  C    6.000014
   109  C    5.999909
   110  C    6.000021
   111  N    6.999974
   112  C    6.000503
   113  C    6.000382
   114  C    5.999999
   115  C    6.000629
   116  C    5.999949
   117  C    6.000287
   118  O    8.000400
   119  C    6.000112
   120  C    5.999975
   121  O    8.000077
   122  O    8.000029
   123  C    5.999970
   124  H    0.999842
   125  H    0.999904
   126  H    1.000165
   127  H    1.000052
   128  H    0.999952
   129  H    0.999983
   130  H    0.999824
   131  H    1.000055
   132  H    1.000061
   133  H    0.999954
   134  H    1.000068
   135  H    1.000077
   136  H    0.999762
   137  H    0.999738
   138  H    0.999688
   139  H    0.999854
   140  H    0.999884
   141  H    0.999759
   142  H    1.000000
   143  H    0.999981
   144  H    0.999855
   145  H    0.999971
   146  H    1.000032
   147  H    0.999959
   148  H    1.000150
   149  H    1.000006
   150  H    1.000026
   151  H    1.000087
   152  H    1.000239
   153  H    1.000267
   154  H    1.000264
   155  H    1.000150
   156  H    1.000043
   157  H    1.000015
   158  H    1.000081
 Sum of Mulliken charges = 624.00000

 Dipole moment (field-independent basis, Debye):
    X=             -8.9087    Y=             -2.6629    Z=              6.0122  Tot=             11.0726
 Quadrupole moment (field-independent basis, Debye-Ang):
   XX=            440.3207   YY=              1.2041   ZZ=              2.7640
   XY=             74.3646   XZ=           -159.4270   YZ=             -5.6399

 Normal termination of Gaussian 16 at Wed Sep 22 21:24:10 2021.
