 Gaussian 16, Revision A.03,
 Gaussian 16:  ES64L-G16RevA.03 25-Dec-2016

 -----------------------------------
 #p cam-b3lyp/Def2SVP td=(nstates=5)
 -----------------------------------

 --------------------------------
 TDDFT excited states in gaussian
 --------------------------------
 Symbolic Z-matrix:
 Charge =  0 Multiplicity = 1

                         Standard orientation:
 ---------------------------------------------------------------------
 Center     Atomic      Atomic             Coordinates (Angstroms)
 Number     Number       Type             X           Y           Z
 ---------------------------------------------------------------------
      1         12           0       28.693044    0.561234    0.471207
      2          6           0       29.240148   -2.293205   -1.434104
      3          6           0       27.632708    2.178818   -2.287166
      4          6           0       28.911512    3.494065    2.141509
      5          6           0       30.570836   -0.919679    3.085503
      6          7           0       28.417567   -0.094280   -1.534741
      7          6           0       28.534957   -1.328711   -2.135512
      8          6           0       28.147710   -1.241872   -3.637507
      9          6           0       28.203596    0.298543   -3.876616
     10          6           0       27.961118    0.846157   -2.477806
     11          6           0       29.567445    0.825848   -4.446232
     12          6           0       26.848039   -2.043171   -3.835930
     13          6           0       26.828841   -2.879592   -5.058381
     14          1           0       25.852305   -3.966951   -5.046462
     15          7           0       28.108403    2.489950    0.037095
     16          6           0       27.633385    2.931491   -1.156173
     17          6           0       27.039081    4.229476   -0.957392
     18          6           0       27.420241    4.622603    0.376138
     19          6           0       28.262826    3.536873    0.885953
     20          6           0       26.325830    4.982024   -2.022926
     21          6           0       27.210478    5.961573    1.155682
     22          8           0       27.600316    6.129795    2.312926
     23          6           0       26.386544    7.078615    0.578690
     24          7           0       29.928654    1.244229    2.209094
     25          6           0       29.692115    2.530969    2.765275
     26          6           0       30.303626    2.716544    4.114504
     27          6           0       30.611928    1.217345    4.432767
     28          6           0       30.284935    0.431996    3.165394
     29          6           0       31.545938    3.670274    4.131897
     30          6           0       29.780746    0.650979    5.641449
     31          6           0       28.248450    0.871512    5.565219
     32          7           0       29.617953   -1.259646    0.845672
     33          6           0       30.300315   -1.740545    1.973871
     34          6           0       30.688020   -3.068140    1.674869
     35          6           0       30.265234   -3.313914    0.374453
     36          6           0       29.643919   -2.194721   -0.072649
     37          6           0       31.366507   -4.007960    2.619881
     38          6           0       30.315085   -4.254065   -0.644728
     39          8           0       30.831354   -5.386436   -0.651653
     40          6           0       29.637580   -3.693497   -1.931418
     41          6           0       28.469289   -4.695320   -2.190284
     42          8           0       27.453820   -4.818393   -1.482491
     43          8           0       28.770415   -5.418930   -3.339063
     44          6           0       27.933978   -6.617982   -3.663411
     45          1           0       27.402065    2.616505   -3.260738
     46          1           0       28.954385    4.300240    2.877800
     47          1           0       30.966185   -1.494010    3.925986
     48          1           0       28.869982   -1.784814   -4.246199
     49          1           0       27.359745    0.593083   -4.499822
     50          1           0       30.310796    0.067379   -4.693360
     51          1           0       30.093263    1.414294   -3.695423
     52          1           0       29.374378    1.353402   -5.380092
     53          1           0       26.070163   -1.298987   -4.000990
     54          1           0       26.684401   -2.634779   -2.934788
     55          1           0       27.810592   -3.351092   -5.105570
     56          1           0       26.738605   -2.223728   -5.924068
     57          1           0       26.006634    4.323701   -2.830677
     58          1           0       26.918579    5.863192   -2.270769
     59          1           0       25.390580    5.371753   -1.620881
     60          1           0       26.762409    7.974142    1.074044
     61          1           0       25.335922    6.964367    0.846592
     62          1           0       26.539513    7.188173   -0.495397
     63          1           0       29.607453    3.086752    4.868398
     64          1           0       31.676242    1.118326    4.648571
     65          1           0       31.955183    3.735176    3.123365
     66          1           0       32.375255    3.384508    4.779139
     67          1           0       31.354228    4.698192    4.441027
     68          1           0       30.237369    1.072340    6.537186
     69          1           0       30.052599   -0.404388    5.658272
     70          1           0       27.688381   -0.063697    5.579548
     71          1           0       28.059165    1.427112    4.646331
     72          1           0       27.867363    1.464567    6.396040
     73          1           0       32.279347   -4.324539    2.115381
     74          1           0       30.674180   -4.823218    2.829919
     75          1           0       31.700515   -3.567901    3.559583
     76          1           0       30.352781   -3.766445   -2.750296
     77          1           0       28.045222   -7.299379   -2.820257
     78          1           0       28.173426   -7.173051   -4.570366
     79          1           0       26.975288   -6.100593   -3.700864
     80         12           0      -29.443837   -0.257316    0.038787
     81          6           0      -26.264725    0.197101   -1.125952
     82          6           0      -28.130619   -2.766139    2.193755
     83          6           0      -32.481508   -0.462065    1.493623
     84          6           0      -30.374314    2.772711   -1.406995
     85          7           0      -27.261420   -0.936270    0.750760
     86          6           0      -26.189794   -0.754957   -0.071104
     87          6           0      -24.999382   -1.495305    0.472728
     88          6           0      -25.605145   -2.451076    1.590359
     89          6           0      -27.120934   -2.078654    1.547039
     90          6           0      -25.068501   -3.834954    1.639523
     91          6           0      -23.691235   -0.684900    0.916999
     92          6           0      -23.867729    0.699719    1.466224
     93          1           0      -23.137749    1.028566    2.760937
     94          7           0      -30.237080   -1.605646    1.443146
     95          6           0      -29.581420   -2.546903    2.174516
     96          6           0      -30.458024   -3.240440    3.071286
     97          6           0      -31.793190   -2.643365    2.788198
     98          6           0      -31.545875   -1.516454    1.862375
     99          6           0      -30.143216   -4.310526    4.003910
    100          6           0      -33.157057   -3.060632    3.319336
    101          8           0      -33.246141   -3.866714    4.176073
    102          6           0      -34.485279   -2.470728    2.933772
    103          7           0      -31.099119    1.026097    0.142676
    104          6           0      -32.267758    0.609453    0.653597
    105          6           0      -33.363209    1.799329    0.619388
    106          6           0      -32.773388    2.624783   -0.625681
    107          6           0      -31.340779    2.149116   -0.581486
    108          6           0      -34.818004    1.361529    0.428102
    109          6           0      -33.041483    4.136953   -0.520312
    110          6           0      -33.599493    4.919764   -1.714744
    111          7           0      -28.493252    1.264179   -0.961088
    112          6           0      -28.975597    2.431070   -1.540728
    113          6           0      -27.992988    3.062212   -2.333020
    114          6           0      -26.896897    2.217556   -2.272188
    115          6           0      -27.238839    1.112928   -1.414175
    116          6           0      -28.127930    4.318837   -3.136243
    117          6           0      -25.596858    1.910726   -2.703042
    118          8           0      -24.888567    2.573228   -3.458484
    119          6           0      -25.056904    0.712155   -1.871937
    120          6           0      -24.519156   -0.231538   -2.937574
    121          8           0      -23.367621   -0.715954   -2.928637
    122          8           0      -25.561081   -0.537919   -3.780847
    123          6           0      -25.465196   -1.620487   -4.790467
    124          1           0      -27.646756   -3.430898    2.912298
    125          1           0      -33.380683   -0.413393    2.111142
    126          1           0      -30.695633    3.684326   -1.914388
    127          1           0      -24.565764   -2.087222   -0.334150
    128          1           0      -25.314884   -2.012753    2.544764
    129          1           0      -25.843791   -4.599525    1.687655
    130          1           0      -24.303927   -3.954051    2.407226
    131          1           0      -24.563717   -4.057477    0.699381
    132          1           0      -22.970839   -0.519440    0.115820
    133          1           0      -23.224008   -1.189850    1.763051
    134          1           0      -24.894450    1.064186    1.465180
    135          1           0      -23.324655    1.372099    0.801271
    136          1           0      -29.316115   -4.893638    3.600163
    137          1           0      -30.977523   -4.979105    4.212751
    138          1           0      -29.834515   -3.832278    4.934171
    139          1           0      -34.194040   -2.243507    1.907994
    140          1           0      -34.721796   -1.560569    3.484042
    141          1           0      -35.356209   -3.123852    2.991055
    142          1           0      -33.191111    2.382479    1.524562
    143          1           0      -33.093415    2.353085   -1.631292
    144          1           0      -35.090370    1.612059   -0.597519
    145          1           0      -35.435871    1.730631    1.246184
    146          1           0      -34.955302    0.283696    0.509593
    147          1           0      -32.095584    4.599442   -0.237131
    148          1           0      -33.661017    4.303661    0.361000
    149          1           0      -34.456686    5.574190   -1.555759
    150          1           0      -33.771906    4.293439   -2.590990
    151          1           0      -32.718541    5.464501   -2.052777
    152          1           0      -27.555034    4.331062   -4.063779
    153          1           0      -27.807614    5.157962   -2.518259
    154          1           0      -29.147673    4.506452   -3.474971
    155          1           0      -24.281358    1.174512   -1.262534
    156          1           0      -26.390866   -2.187835   -4.885592
    157          1           0      -24.662846   -2.293887   -4.488591
    158          1           0      -25.217844   -1.394349   -5.826911
 ---------------------------------------------------------------------

 SCF Done:  E(RCAM-B3LYP) =  -4069.76370955     A.U. after   19 cycles

 Excitation energies and oscillator strengths:

 Excited State   1:      Singlet-A      1.6347 eV  758.43 nm  f=0.3835  <S**2>=0.000
     309 -> 315        0.16910
     311 -> 313        0.68877
     309 <- 315        0.10872
 This state for optimization and/or second-order correction.
 Total Energy, E(TD-HF/TD-DFT) =  -4069.70363401
 Copying the excited state density for this state as the 1-particle RhoCI density.

 Excited State   2:      Singlet-A      1.6607 eV  746.56 nm  f=0.3813  <S**2>=0.000
     310 -> 316        0.16222
     312 -> 314        0.68892
     310 <- 316        0.10409

 Excited State   3:      Singlet-A      2.1489 eV  576.98 nm  f=0.1478  <S**2>=0.000
     309 -> 313        0.65218
     311 -> 315       -0.25539

 Excited State   4:      Singlet-A      2.2190 eV  558.74 nm  f=0.1281  <S**2>=0.000
     310 -> 314        0.64341
     312 -> 316       -0.27233

 Excited State   5:      Singlet-A      2.9659 eV  418.04 nm  f=0.0000  <S**2>=0.000
     312 -> 313        0.70711

 The electronic state is 1-A.
 Alpha  occ. eigenvalues --  -46.89973 -46.88314 -19.26248 -19.24735 -19.20350
 Alpha  occ. eigenvalues --  -19.20002 -19.18728 -19.18503 -19.17647 -19.17263
 Alpha  occ. eigenvalues --  -14.42606 -14.42060 -14.41935 -14.41475 -14.40079
 Alpha  occ. eigenvalues --  -14.39684 -14.39339 -14.38497 -10.40502 -10.40021
 Alpha  occ. eigenvalues --  -10.35278 -10.34302 -10.33629 -10.33600 -10.32847
 Alpha  occ. eigenvalues --  -10.32117 -10.31968 -10.31630 -10.31036 -10.30950
 Alpha  occ. eigenvalues --  -10.30949 -10.30784 -10.30721 -10.30549 -10.30315
 Alpha  occ. eigenvalues --  -10.30233 -10.30218 -10.30201 -10.29414 -10.29302
 Alpha  occ. eigenvalues --  -10.29198 -10.28920 -10.28880 -10.28488 -10.28459
 Alpha  occ. eigenvalues --  -10.28319 -10.28317 -10.28299 -10.28238 -10.28224
 Alpha  occ. eigenvalues --  -10.28208 -10.27994 -10.27985 -10.27902 -10.27874
 Alpha  occ. eigenvalues --  -10.27828 -10.27664 -10.27547 -10.27543 -10.27535
 Alpha  occ. eigenvalues --  -10.27448 -10.27255 -10.27166 -10.27007 -10.27005
 Alpha  occ. eigenvalues --  -10.26815 -10.26802 -10.26756 -10.26724 -10.26716
 Alpha  occ. eigenvalues --  -10.26522 -10.26393 -10.26369 -10.26368 -10.26246
 Alpha  occ. eigenvalues --  -10.26092 -10.25937 -10.25931 -10.25824 -10.25740
 Alpha  occ. eigenvalues --  -10.25733 -10.25562 -10.25539 -10.25188 -10.25105
 Alpha  occ. eigenvalues --  -10.23775  -3.18444  -3.16910  -1.93303  -1.92937
 Alpha  occ. eigenvalues --   -1.92720  -1.91790  -1.91369  -1.91212  -1.15707
 Alpha  occ. eigenvalues --   -1.14409  -1.11440  -1.09467  -1.09383  -1.07939
 Alpha  occ. eigenvalues --   -1.07279  -1.06641  -1.05195  -1.04803  -1.04390
 Alpha  occ. eigenvalues --   -1.03895  -1.03511  -1.02964  -1.02220  -1.02183
 Alpha  occ. eigenvalues --   -0.93720  -0.92525  -0.89869  -0.89085  -0.89044
 Alpha  occ. eigenvalues --   -0.88765  -0.88580  -0.88432  -0.87970  -0.87791
 Alpha  occ. eigenvalues --   -0.87280  -0.87122  -0.86528  -0.85915  -0.84592
 Alpha  occ. eigenvalues --   -0.84580  -0.84025  -0.83499  -0.83129  -0.82206
 Alpha  occ. eigenvalues --   -0.82160  -0.81618  -0.81013  -0.80982  -0.80619
 Alpha  occ. eigenvalues --   -0.80385  -0.78546  -0.78200  -0.77836  -0.77066
 Alpha  occ. eigenvalues --   -0.77023  -0.76927  -0.76726  -0.76026  -0.75507
 Alpha  occ. eigenvalues --   -0.75463  -0.73617  -0.73243  -0.72042  -0.71785
 Alpha  occ. eigenvalues --   -0.70061  -0.69785  -0.69421  -0.68760  -0.68436
 Alpha  occ. eigenvalues --   -0.67528  -0.66599  -0.66525  -0.66303  -0.65524
 Alpha  occ. eigenvalues --   -0.65330  -0.64746  -0.64653  -0.64447  -0.64432
 Alpha  occ. eigenvalues --   -0.64060  -0.63626  -0.61556  -0.60312  -0.59880
 Alpha  occ. eigenvalues --   -0.59777  -0.59426  -0.59133  -0.58919  -0.58428
 Alpha  occ. eigenvalues --   -0.58095  -0.57654  -0.57559  -0.57250  -0.56993
 Alpha  occ. eigenvalues --   -0.56561  -0.55974  -0.55829  -0.55611  -0.55359
 Alpha  occ. eigenvalues --   -0.55322  -0.55143  -0.55071  -0.54757  -0.54496
 Alpha  occ. eigenvalues --   -0.54003  -0.53540  -0.53305  -0.53214  -0.53039
 Alpha  occ. eigenvalues --   -0.52926  -0.52801  -0.52541  -0.52457  -0.52109
 Alpha  occ. eigenvalues --   -0.51926  -0.51877  -0.51835  -0.51663  -0.51451
 Alpha  occ. eigenvalues --   -0.51382  -0.51111  -0.50724  -0.50624  -0.50484
 Alpha  occ. eigenvalues --   -0.50340  -0.50012  -0.49745  -0.49626  -0.49493
 Alpha  occ. eigenvalues --   -0.49380  -0.49215  -0.49189  -0.49028  -0.48907
 Alpha  occ. eigenvalues --   -0.48754  -0.48512  -0.48259  -0.48077  -0.47969
 Alpha  occ. eigenvalues --   -0.47902  -0.47678  -0.47591  -0.47357  -0.47337
 Alpha  occ. eigenvalues --   -0.47254  -0.47114  -0.47025  -0.46931  -0.46606
 Alpha  occ. eigenvalues --   -0.46444  -0.46290  -0.46173  -0.45983  -0.45694
 Alpha  occ. eigenvalues --   -0.45647  -0.45561  -0.45461  -0.45348  -0.45051
 Alpha  occ. eigenvalues --   -0.44915  -0.44601  -0.44481  -0.44185  -0.44173
 Alpha  occ. eigenvalues --   -0.44030  -0.43744  -0.43458  -0.43435  -0.43413
 Alpha  occ. eigenvalues --   -0.43182  -0.43102  -0.43048  -0.42738  -0.42688
 Alpha  occ. eigenvalues --   -0.42667  -0.42405  -0.42359  -0.42106  -0.41974
 Alpha  occ. eigenvalues --   -0.41956  -0.41757  -0.41735  -0.41582  -0.41514
 Alpha  occ. eigenvalues --   -0.41317  -0.41058  -0.40838  -0.40641  -0.40593
 Alpha  occ. eigenvalues --   -0.40289  -0.40259  -0.39948  -0.39153  -0.39062
 Alpha  occ. eigenvalues --   -0.38705  -0.38197  -0.38026  -0.38016  -0.37396
 Alpha  occ. eigenvalues --   -0.37359  -0.36911  -0.36823  -0.36590  -0.36179
 Alpha  occ. eigenvalues --   -0.36068  -0.35633  -0.34813  -0.34177  -0.34082
 Alpha  occ. eigenvalues --   -0.33893  -0.33219  -0.33112  -0.31598  -0.31309
 Alpha  occ. eigenvalues --   -0.30923  -0.30817  -0.30535  -0.30048  -0.29715
 Alpha  occ. eigenvalues --   -0.29574  -0.29394  -0.28378  -0.24489  -0.24234
 Alpha  occ. eigenvalues --   -0.21747  -0.21185
 Alpha virt. eigenvalues --   -0.09693  -0.08997  -0.01986  -0.01505   0.00117
 Alpha virt. eigenvalues --    0.00540   0.00973   0.02203   0.02431   0.02666
 Alpha virt. eigenvalues --    0.04542   0.04886   0.04968   0.05078   0.05884

 Mulliken charges:
               1
     1  Mg   0.820701
     2  C   -0.060311
     3  C   -0.109630
     4  C   -0.010534
     5  C   -0.097859
     6  N   -0.340007
     7  C   -0.020840
     8  C   -0.061543
     9  C   -0.031287
    10  C    0.010374
    11  C    0.081260
    12  C    0.079405
    13  C   -0.068971
    14  H    0.035471
    15  N   -0.383346
    16  C    0.220948
    17  C   -0.158617
    18  C   -0.040014
    19  C    0.171589
    20  C    0.117508
    21  C    0.010822
    22  O   -0.218681
    23  C    0.055161
    24  N   -0.251747
    25  C   -0.075012
    26  C   -0.004100
    27  C   -0.051250
    28  C    0.088326
    29  C    0.063739
    30  C    0.024270
    31  C    0.002173
    32  N   -0.340238
    33  C    0.098586
    34  C   -0.182215
    35  C    0.104030
    36  C    0.159784
    37  C    0.133470
    38  C   -0.059261
    39  O   -0.207744
    40  C    0.035636
    41  C    0.229312
    42  O   -0.241917
    43  O   -0.360285
    44  C    0.180272
    45  H   -0.026167
    46  H   -0.008838
    47  H   -0.021095
    48  H   -0.002248
    49  H   -0.007333
    50  H    0.013753
    51  H    0.031704
    52  H    0.021217
    53  H   -0.004177
    54  H    0.042615
    55  H    0.020609
    56  H    0.016837
    57  H    0.018566
    58  H    0.045545
    59  H    0.019812
    60  H    0.029500
    61  H    0.051913
    62  H    0.006370
    63  H    0.019267
    64  H    0.003019
    65  H    0.017800
    66  H    0.011230
    67  H    0.020584
    68  H    0.005221
    69  H   -0.001528
    70  H    0.023088
    71  H    0.027958
    72  H    0.019146
    73  H    0.034966
    74  H    0.045136
    75  H   -0.002640
    76  H    0.036106
    77  H    0.050381
    78  H    0.051181
    79  H    0.043074
    80  Mg   0.824934
    81  C    0.019336
    82  C   -0.076958
    83  C   -0.075313
    84  C   -0.091267
    85  N   -0.272142
    86  C   -0.046324
    87  C    0.019140
    88  C   -0.037947
    89  C    0.011844
    90  C    0.090876
    91  C    0.034486
    92  C   -0.113656
    93  H    0.011937
    94  N   -0.363509
    95  C    0.155775
    96  C   -0.164917
    97  C   -0.053224
    98  C    0.113987
    99  C    0.136386
   100  C   -0.034856
   101  O   -0.178683
   102  C    0.046381
   103  N   -0.288408
   104  C    0.057813
   105  C   -0.083515
   106  C   -0.035985
   107  C    0.048071
   108  C    0.096419
   109  C    0.030969
   110  C    0.010223
   111  N   -0.351634
   112  C    0.123545
   113  C   -0.172833
   114  C    0.107924
   115  C    0.078504
   116  C    0.118785
   117  C   -0.023674
   118  O   -0.180960
   119  C   -0.040772
   120  C    0.244527
   121  O   -0.225286
   122  O   -0.349239
   123  C    0.180466
   124  H   -0.016070
   125  H   -0.017616
   126  H   -0.037878
   127  H    0.015007
   128  H    0.022355
   129  H    0.014228
   130  H    0.019005
   131  H    0.005479
   132  H    0.034694
   133  H    0.020724
   134  H    0.042996
   135  H    0.033985
   136  H    0.010768
   137  H    0.039552
   138  H    0.029656
   139  H    0.015077
   140  H    0.049020
   141  H    0.031131
   142  H    0.029333
   143  H    0.016141
   144  H    0.016719
   145  H    0.016761
   146  H    0.012751
   147  H    0.006064
   148  H    0.002129
   149  H    0.033181
   150  H    0.005111
   151  H    0.010957
   152  H    0.037300
   153  H    0.037064
   154  H    0.010967
   155  H    0.037014
   156  H    0.035838
   157  H    0.037905
   158  H    0.041423
 Sum of Mulliken charges =  -0.00000

 Dipole moment (field-independent basis, Debye):
    X=             -4.8989    Y=              3.4030    Z=             -3.6494  Tot=              6.9927
 Quadrupole moment (field-independent basis, Debye-Ang):
   XX=           -370.2837   YY=           -526.7365   ZZ=           -490.2239
   XY=             34.4665   XZ=             34.0417   YZ=             11.9871

 Normal termination of Gaussian 16 at Wed Sep 15 08:57:29 2021.
