 Gaussian 16, Revision A.03,
 Gaussian 16:  ES64L-G16RevA.03 25-Dec-2016

 ----------------------------------------------------------
 #p cam-b3lyp/Def2SVP td=(nstates=5) density=(transition=1)
 ----------------------------------------------------------

 --------------------------------
 TDDFT excited states in gaussian
 --------------------------------
 Symbolic Z-matrix:
 Charge =  0 Multiplicity = 1

                         Standard orientation:
 ---------------------------------------------------------------------
 Center     Atomic      Atomic             Coordinates (Angstroms)
 Number     Number       Type             X           Y           Z
 ---------------------------------------------------------------------
      1         12           0       25.987368   -0.301235   -0.543549
      2          6           0       24.637986    2.080988    1.633567
      3          6           0       26.253397   -2.443783    1.927982
      4          6           0       27.973317   -2.280663   -2.528914
      5          6           0       26.173248    2.163552   -3.064617
      6          7           0       25.400350   -0.181231    1.476932
      7          6           0       24.806559    0.833197    2.195311
      8          6           0       24.377339    0.368541    3.580978
      9          6           0       25.119220   -1.001813    3.694458
     10          6           0       25.520889   -1.276878    2.287199
     11          6           0       26.216403   -1.176901    4.722101
     12          6           0       22.832961    0.332674    3.813038
     13          6           0       22.393629   -0.107536    5.213742
     14          1           0       21.420040    0.817309    5.929482
     15          7           0       27.077176   -2.177215   -0.289708
     16          6           0       26.916693   -2.966756    0.792691
     17          6           0       27.575928   -4.222502    0.563622
     18          6           0       28.180042   -4.144733   -0.703075
     19          6           0       27.758617   -2.815224   -1.222370
     20          6           0       27.627298   -5.345906    1.577473
     21          6           0       28.967166   -5.169823   -1.451798
     22          8           0       29.601405   -4.984451   -2.524755
     23          6           0       29.019615   -6.608527   -0.952443
     24          7           0       26.939413   -0.072849   -2.466048
     25          6           0       27.751227   -1.004936   -3.017244
     26          6           0       28.092924   -0.590463   -4.548511
     27          6           0       27.101114    0.600970   -4.790971
     28          6           0       26.638493    0.903929   -3.401954
     29          6           0       29.624833   -0.223423   -4.652763
     30          6           0       25.838235    0.122030   -5.596123
     31          6           0       25.061443   -1.091878   -5.110553
     32          7           0       25.448246    1.762592   -0.754522
     33          6           0       25.597568    2.576094   -1.844014
     34          6           0       25.090212    3.820942   -1.494416
     35          6           0       24.695868    3.763066   -0.126696
     36          6           0       24.936512    2.478367    0.284218
     37          6           0       25.048474    5.073982   -2.295964
     38          6           0       24.151615    4.484176    1.046238
     39          8           0       23.826879    5.649246    1.245005
     40          6           0       24.002007    3.365360    2.216875
     41          6           0       24.526226    3.886767    3.507266
     42          8           0       25.525840    4.656206    3.624197
     43          8           0       23.658161    3.535635    4.446395
     44          6           0       23.746852    4.326248    5.659134
     45          1           0       26.262536   -3.234693    2.681025
     46          1           0       28.574309   -2.913051   -3.186698
     47          1           0       26.127980    2.858431   -3.904629
     48          1           0       24.724976    1.161588    4.243313
     49          1           0       24.449413   -1.829327    3.930807
     50          1           0       26.230925   -0.470323    5.551919
     51          1           0       27.181973   -1.173373    4.215659
     52          1           0       26.208528   -2.226479    5.016751
     53          1           0       22.364100   -0.299146    3.058232
     54          1           0       22.424454    1.325778    3.628919
     55          1           0       23.181661    0.060673    5.947566
     56          1           0       22.054876   -1.143979    5.215619
     57          1           0       27.230374   -5.094183    2.560858
     58          1           0       28.623181   -5.649415    1.899351
     59          1           0       27.111867   -6.249551    1.250662
     60          1           0       29.599103   -6.619809   -0.029732
     61          1           0       29.672539   -7.229555   -1.565305
     62          1           0       28.038622   -7.082014   -0.898837
     63          1           0       27.929257   -1.446404   -5.203266
     64          1           0       27.720269    1.401559   -5.195649
     65          1           0       30.207535   -0.537590   -3.786641
     66          1           0       29.822559    0.844853   -4.742521
     67          1           0       30.137016   -0.720716   -5.475202
     68          1           0       26.315138   -0.067726   -6.557768
     69          1           0       25.081939    0.889918   -5.755978
     70          1           0       25.627472   -1.615657   -4.339951
     71          1           0       24.696265   -1.773238   -5.878222
     72          1           0       24.141026   -0.642756   -4.737344
     73          1           0       24.562907    4.970452   -3.266653
     74          1           0       26.092842    5.319228   -2.486794
     75          1           0       24.601665    5.904975   -1.751115
     76          1           0       22.923771    3.243370    2.316673
     77          1           0       22.747044    4.585920    6.009308
     78          1           0       24.266039    5.280814    5.576802
     79          1           0       24.228767    3.684769    6.397666
     80         12           0      -26.241521    0.656301    0.359261
     81          6           0      -24.988458   -2.662610   -0.015375
     82          6           0      -23.471036    1.655388   -1.169867
     83          6           0      -27.725126    3.630111   -0.254640
     84          6           0      -29.382222   -0.882925    1.042616
     85          7           0      -24.453701   -0.336219   -0.355056
     86          6           0      -24.084609   -1.698791   -0.341541
     87          6           0      -22.668969   -1.957076   -0.947021
     88          6           0      -22.202913   -0.505683   -1.254027
     89          6           0      -23.408106    0.356317   -0.822254
     90          6           0      -20.878859   -0.278458   -0.505718
     91          6           0      -22.573037   -2.901664   -2.221930
     92          6           0      -21.840226   -4.225918   -2.040659
     93          1           0      -20.656738   -4.517760   -2.985674
     94          7           0      -25.686733    2.407538   -0.472350
     95          6           0      -24.448156    2.618626   -1.077849
     96          6           0      -24.300867    3.969564   -1.442432
     97          6           0      -25.449213    4.642189   -1.067355
     98          6           0      -26.353963    3.614340   -0.593728
     99          6           0      -23.069052    4.680667   -2.116115
    100          6           0      -25.616634    6.135620   -1.222043
    101          8           0      -24.745298    6.877669   -1.565979
    102          6           0      -27.036400    6.723789   -0.750868
    103          7           0      -28.270771    1.285803    0.314616
    104          6           0      -28.603145    2.589956    0.068093
    105          6           0      -30.184380    2.662906    0.027144
    106          6           0      -30.720452    1.318869    0.547733
    107          6           0      -29.380604    0.492865    0.632101
    108          6           0      -30.777371    3.894426    0.650609
    109          6           0      -31.631984    0.694833   -0.501619
    110          6           0      -32.645142   -0.312124   -0.025667
    111          7           0      -27.004313   -1.352668    0.739244
    112          6           0      -28.274557   -1.793337    1.024734
    113          6           0      -28.271075   -3.194873    1.238721
    114          6           0      -26.969822   -3.649262    0.918584
    115          6           0      -26.287596   -2.470306    0.505053
    116          6           0      -29.424033   -4.059434    1.558059
    117          6           0      -26.030239   -4.768007    0.763655
    118          8           0      -26.202768   -5.964107    1.034026
    119          6           0      -24.686958   -4.189275    0.174319
    120          6           0      -23.658151   -4.271520    1.176545
    121          8           0      -23.635749   -3.480179    2.148785
    122          8           0      -22.871096   -5.318084    0.858604
    123          6           0      -21.608158   -5.517066    1.621107
    124          1           0      -22.554973    2.024394   -1.636570
    125          1           0      -28.154400    4.623450   -0.401900
    126          1           0      -30.288261   -1.396240    1.370340
    127          1           0      -22.017615   -2.388188   -0.186833
    128          1           0      -22.048754   -0.313233   -2.315336
    129          1           0      -20.647959    0.782921   -0.591880
    130          1           0      -20.020698   -0.840465   -0.873998
    131          1           0      -20.953365   -0.524871    0.554042
    132          1           0      -21.926972   -2.349819   -2.904729
    133          1           0      -23.561961   -3.043538   -2.657957
    134          1           0      -22.582211   -5.020205   -2.129209
    135          1           0      -21.410043   -4.261805   -1.039161
    136          1           0      -23.468975    5.188401   -2.994059
    137          1           0      -22.306046    3.967356   -2.427354
    138          1           0      -22.488944    5.340280   -1.470810
    139          1           0      -26.941040    7.807028   -0.819475
    140          1           0      -27.135411    6.335647    0.263139
    141          1           0      -27.716930    6.265218   -1.468225
    142          1           0      -30.399321    2.741177   -1.039167
    143          1           0      -31.259197    1.337233    1.495056
    144          1           0      -31.763168    3.639723    1.038797
    145          1           0      -30.832642    4.634630   -0.147851
    146          1           0      -30.142649    4.373477    1.395174
    147          1           0      -31.084613    0.229590   -1.321910
    148          1           0      -32.187101    1.446275   -1.063080
    149          1           0      -32.741284   -0.337400    1.059638
    150          1           0      -32.323976   -1.294674   -0.372023
    151          1           0      -33.591235   -0.185861   -0.551946
    152          1           0      -30.193672   -3.517939    2.109008
    153          1           0      -29.019773   -4.869807    2.165150
    154          1           0      -29.831263   -4.364760    0.593919
    155          1           0      -24.396905   -4.601683   -0.792072
    156          1           0      -21.553338   -6.606638    1.613598
    157          1           0      -21.617647   -5.077967    2.618272
    158          1           0      -20.735113   -5.248769    1.025249
 ---------------------------------------------------------------------

 SCF Done:  E(RCAM-B3LYP) =  -4069.82047209     A.U. after   19 cycles

 Excitation energies and oscillator strengths:

 Excited State   1:      Singlet-A      1.7144 eV  723.18 nm  f=0.3720  <S**2>=0.000
     310 -> 316        0.16586
     311 -> 313        0.68861
     310 <- 316        0.10303
 This state for optimization and/or second-order correction.
 Total Energy, E(TD-HF/TD-DFT) =  -4069.75746799
 Copying the excited state density for this state as the 1-particle RhoCI density.

 Excited State   2:      Singlet-A      1.7225 eV  719.77 nm  f=0.4064  <S**2>=0.000
     309 -> 315        0.17099
     312 -> 314        0.68705
     309 <- 315        0.10380

 Excited State   3:      Singlet-A      2.1453 eV  577.93 nm  f=0.1694  <S**2>=0.000
     310 -> 313        0.66339
     311 -> 316       -0.22679

 Excited State   4:      Singlet-A      2.2584 eV  548.99 nm  f=0.1173  <S**2>=0.000
     309 -> 314        0.63725
     312 -> 315       -0.28974

 Excited State   5:      Singlet-A      3.0536 eV  406.02 nm  f=0.0000  <S**2>=0.000
     312 -> 313        0.70710

 The electronic state is 1-A.
 Alpha  occ. eigenvalues --  -46.89402 -46.88524 -19.26682 -19.26523 -19.19676
 Alpha  occ. eigenvalues --  -19.19655 -19.19131 -19.19070 -19.18748 -19.18474
 Alpha  occ. eigenvalues --  -14.42923 -14.42546 -14.42195 -14.41846 -14.39784
 Alpha  occ. eigenvalues --  -14.39518 -14.38481 -14.38046 -10.39522 -10.39259
 Alpha  occ. eigenvalues --  -10.35778 -10.35489 -10.35404 -10.34847 -10.32858
 Alpha  occ. eigenvalues --  -10.32140 -10.32039 -10.31650 -10.31507 -10.31111
 Alpha  occ. eigenvalues --  -10.31037 -10.31002 -10.30803 -10.30649 -10.30613
 Alpha  occ. eigenvalues --  -10.30490 -10.30118 -10.29786 -10.29630 -10.29275
 Alpha  occ. eigenvalues --  -10.29025 -10.28699 -10.28546 -10.28353 -10.28334
 Alpha  occ. eigenvalues --  -10.28326 -10.28271 -10.28239 -10.28225 -10.28193
 Alpha  occ. eigenvalues --  -10.28151 -10.28036 -10.27970 -10.27903 -10.27886
 Alpha  occ. eigenvalues --  -10.27810 -10.27790 -10.27786 -10.27725 -10.27632
 Alpha  occ. eigenvalues --  -10.27325 -10.27198 -10.27123 -10.27101 -10.27092
 Alpha  occ. eigenvalues --  -10.26934 -10.26850 -10.26522 -10.26508 -10.26500
 Alpha  occ. eigenvalues --  -10.26493 -10.26455 -10.26370 -10.26269 -10.26167
 Alpha  occ. eigenvalues --  -10.26146 -10.26012 -10.25855 -10.25766 -10.25688
 Alpha  occ. eigenvalues --  -10.25450 -10.25440 -10.25178 -10.24907 -10.24849
 Alpha  occ. eigenvalues --  -10.24295  -3.17790  -3.17121  -1.92699  -1.92215
 Alpha  occ. eigenvalues --   -1.92105  -1.91999  -1.91557  -1.91448  -1.18118
 Alpha  occ. eigenvalues --   -1.16659  -1.11993  -1.08817  -1.08680  -1.08392
 Alpha  occ. eigenvalues --   -1.07412  -1.05942  -1.05433  -1.04384  -1.04131
 Alpha  occ. eigenvalues --   -1.03359  -1.03193  -1.02848  -1.02481  -1.01758
 Alpha  occ. eigenvalues --   -0.92226  -0.91877  -0.89678  -0.89621  -0.89361
 Alpha  occ. eigenvalues --   -0.89306  -0.88723  -0.88427  -0.88008  -0.87345
 Alpha  occ. eigenvalues --   -0.87161  -0.86657  -0.86519  -0.85703  -0.84830
 Alpha  occ. eigenvalues --   -0.84825  -0.84252  -0.83784  -0.83310  -0.82932
 Alpha  occ. eigenvalues --   -0.81924  -0.81880  -0.81358  -0.81148  -0.80692
 Alpha  occ. eigenvalues --   -0.80325  -0.78904  -0.77742  -0.77607  -0.77391
 Alpha  occ. eigenvalues --   -0.77379  -0.76697  -0.76271  -0.76146  -0.75257
 Alpha  occ. eigenvalues --   -0.75143  -0.72772  -0.72766  -0.71770  -0.71736
 Alpha  occ. eigenvalues --   -0.69932  -0.69271  -0.69203  -0.68629  -0.68373
 Alpha  occ. eigenvalues --   -0.67769  -0.67706  -0.67256  -0.65712  -0.65616
 Alpha  occ. eigenvalues --   -0.65554  -0.65223  -0.65011  -0.64700  -0.64585
 Alpha  occ. eigenvalues --   -0.64574  -0.62762  -0.62253  -0.61039  -0.60159
 Alpha  occ. eigenvalues --   -0.59800  -0.59647  -0.59445  -0.59270  -0.58555
 Alpha  occ. eigenvalues --   -0.58533  -0.58226  -0.57633  -0.57250  -0.57159
 Alpha  occ. eigenvalues --   -0.56424  -0.56230  -0.56058  -0.56056  -0.55822
 Alpha  occ. eigenvalues --   -0.55486  -0.55340  -0.54988  -0.54706  -0.54418
 Alpha  occ. eigenvalues --   -0.54292  -0.53828  -0.53296  -0.53181  -0.53161
 Alpha  occ. eigenvalues --   -0.52949  -0.52888  -0.52558  -0.52490  -0.52417
 Alpha  occ. eigenvalues --   -0.51740  -0.51694  -0.51597  -0.51491  -0.51249
 Alpha  occ. eigenvalues --   -0.51000  -0.50590  -0.50587  -0.50472  -0.50362
 Alpha  occ. eigenvalues --   -0.50170  -0.50134  -0.49978  -0.49878  -0.49547
 Alpha  occ. eigenvalues --   -0.49187  -0.49130  -0.48935  -0.48877  -0.48602
 Alpha  occ. eigenvalues --   -0.48512  -0.48440  -0.48381  -0.48270  -0.48126
 Alpha  occ. eigenvalues --   -0.48075  -0.47530  -0.47495  -0.47263  -0.47222
 Alpha  occ. eigenvalues --   -0.46970  -0.46787  -0.46517  -0.46431  -0.46406
 Alpha  occ. eigenvalues --   -0.46308  -0.46100  -0.45983  -0.45877  -0.45626
 Alpha  occ. eigenvalues --   -0.45464  -0.45318  -0.45203  -0.45166  -0.44936
 Alpha  occ. eigenvalues --   -0.44754  -0.44746  -0.44478  -0.44330  -0.44304
 Alpha  occ. eigenvalues --   -0.44136  -0.43883  -0.43747  -0.43725  -0.43479
 Alpha  occ. eigenvalues --   -0.43440  -0.43300  -0.43228  -0.43095  -0.42899
 Alpha  occ. eigenvalues --   -0.42810  -0.42606  -0.42573  -0.42376  -0.42319
 Alpha  occ. eigenvalues --   -0.42095  -0.41947  -0.41791  -0.41672  -0.41651
 Alpha  occ. eigenvalues --   -0.41460  -0.41258  -0.40888  -0.40599  -0.40521
 Alpha  occ. eigenvalues --   -0.40225  -0.40124  -0.39632  -0.39274  -0.39171
 Alpha  occ. eigenvalues --   -0.38693  -0.38400  -0.38236  -0.37920  -0.37619
 Alpha  occ. eigenvalues --   -0.37330  -0.37231  -0.36942  -0.36716  -0.36599
 Alpha  occ. eigenvalues --   -0.36320  -0.36014  -0.34353  -0.34178  -0.34102
 Alpha  occ. eigenvalues --   -0.33973  -0.32945  -0.32927  -0.31972  -0.31802
 Alpha  occ. eigenvalues --   -0.31176  -0.30905  -0.30814  -0.30770  -0.30565
 Alpha  occ. eigenvalues --   -0.30126  -0.28942  -0.28531  -0.24284  -0.24090
 Alpha  occ. eigenvalues --   -0.21794  -0.21264
 Alpha virt. eigenvalues --   -0.09395  -0.08766  -0.01711  -0.01311  -0.00051
 Alpha virt. eigenvalues --    0.00556   0.01773   0.02171   0.02480   0.02725
 Alpha virt. eigenvalues --    0.04420   0.04541   0.04634   0.04736   0.05624

 Mulliken charges:
               1
     1  Mg  12.006216
     2  C    5.973099
     3  C    6.011076
     4  C    6.028245
     5  C    5.994682
     6  N    6.982048
     7  C    6.038435
     8  C    5.990540
     9  C    6.009486
    10  C    5.962720
    11  C    6.001743
    12  C    5.997025
    13  C    6.002783
    14  H    0.997138
    15  N    7.010404
    16  C    5.956737
    17  C    5.983186
    18  C    5.979022
    19  C    5.963921
    20  C    6.006440
    21  C    5.989736
    22  O    7.965956
    23  C    6.006673
    24  N    7.007901
    25  C    5.968152
    26  C    6.004585
    27  C    5.987312
    28  C    6.029899
    29  C    6.002084
    30  C    5.989339
    31  C    5.997418
    32  N    6.995058
    33  C    6.036094
    34  C    6.031517
    35  C    5.999726
    36  C    6.039084
    37  C    5.997409
    38  C    6.013131
    39  O    8.026692
    40  C    6.005898
    41  C    6.005950
    42  O    8.001373
    43  O    8.002202
    44  C    5.997861
    45  H    0.989762
    46  H    0.998278
    47  H    1.014939
    48  H    0.997853
    49  H    0.997106
    50  H    0.984495
    51  H    1.000288
    52  H    1.000863
    53  H    1.006227
    54  H    0.992624
    55  H    1.003008
    56  H    1.005705
    57  H    0.981957
    58  H    0.980225
    59  H    0.980347
    60  H    0.992470
    61  H    0.984673
    62  H    0.991112
    63  H    1.001978
    64  H    1.003068
    65  H    1.006621
    66  H    0.988980
    67  H    0.999937
    68  H    1.012067
    69  H    0.997631
    70  H    1.016402
    71  H    1.005825
    72  H    0.994705
    73  H    1.021594
    74  H    1.021734
    75  H    1.016337
    76  H    1.004674
    77  H    1.003255
    78  H    1.000618
    79  H    1.006644
    80  Mg  11.999987
    81  C    5.999093
    82  C    6.000264
    83  C    6.000921
    84  C    5.999589
    85  N    6.999420
    86  C    6.001175
    87  C    5.999488
    88  C    6.000558
    89  C    5.998867
    90  C    6.000131
    91  C    5.999925
    92  C    5.999915
    93  H    1.000248
    94  N    7.000262
    95  C    5.998633
    96  C    5.999200
    97  C    5.999653
    98  C    5.998563
    99  C    6.000120
   100  C    5.999711
   101  O    7.999377
   102  C    5.999894
   103  N    7.000146
   104  C    5.998859
   105  C    6.000172
   106  C    5.999721
   107  C    6.001172
   108  C    6.000018
   109  C    5.999711
   110  C    5.999984
   111  N    6.999965
   112  C    6.001363
   113  C    6.000922
   114  C    6.000278
   115  C    6.001232
   116  C    5.999896
   117  C    6.000610
   118  O    8.001111
   119  C    6.000149
   120  C    6.000062
   121  O    8.000187
   122  O    8.000045
   123  C    5.999906
   124  H    0.999475
   125  H    0.999788
   126  H    1.000340
   127  H    1.000062
   128  H    0.999878
   129  H    1.000169
   130  H    0.999553
   131  H    0.999622
   132  H    1.000326
   133  H    0.999930
   134  H    0.999844
   135  H    0.999967
   136  H    0.999399
   137  H    0.999325
   138  H    0.999261
   139  H    0.999547
   140  H    0.999744
   141  H    0.999722
   142  H    0.999984
   143  H    1.000135
   144  H    0.999687
   145  H    1.000145
   146  H    1.000070
   147  H    1.000084
   148  H    1.000472
   149  H    1.000004
   150  H    0.999806
   151  H    1.000221
   152  H    1.000686
   153  H    1.000580
   154  H    1.000811
   155  H    1.000393
   156  H    1.000101
   157  H    1.000110
   158  H    1.000254
 Sum of Mulliken charges = 624.00000

 Dipole moment (field-independent basis, Debye):
    X=             -3.8754    Y=              9.7862    Z=             -1.9107  Tot=             10.6977
 Quadrupole moment (field-independent basis, Debye-Ang):
   XX=           -189.9148   YY=             -5.3293   ZZ=              4.7444
   XY=            278.0631   XZ=            -53.5753   YZ=             -3.3145

 Normal termination of Gaussian 16 at Wed Sep 22 04:57:14 2021.
