 Gaussian 16, Revision A.03,
 Gaussian 16:  ES64L-G16RevA.03 25-Dec-2016

 ----------------------------------------------------------
 #p cam-b3lyp/Def2SVP td=(nstates=5) density=(transition=1)
 ----------------------------------------------------------

 --------------------------------
 TDDFT excited states in gaussian
 --------------------------------
 Symbolic Z-matrix:
 Charge =  0 Multiplicity = 1

                         Standard orientation:
 ---------------------------------------------------------------------
 Center     Atomic      Atomic             Coordinates (Angstroms)
 Number     Number       Type             X           Y           Z
 ---------------------------------------------------------------------
      1         12           0      -28.125584    0.203110    0.027539
      2          6           0      -25.255222   -1.690046   -0.076616
      3          6           0      -26.342904    3.113741   -0.251172
      4          6           0      -31.073569    2.093339   -0.060934
      5          6           0      -30.032625   -2.618738   -0.543934
      6          7           0      -26.023124    0.565497   -0.359270
      7          6           0      -24.954804   -0.319352   -0.189496
      8          6           0      -23.609956    0.378265   -0.408558
      9          6           0      -24.064498    1.853468   -0.270053
     10          6           0      -25.602417    1.890287   -0.382193
     11          6           0      -23.472881    2.555931    0.971567
     12          6           0      -22.992652    0.038839   -1.779721
     13          6           0      -21.449391   -0.235050   -1.812462
     14          1           0      -20.746174    0.140058   -3.058136
     15          7           0      -28.605444    2.267455   -0.076921
     16          6           0      -27.739928    3.306889   -0.093672
     17          6           0      -28.379603    4.570312    0.120778
     18          6           0      -29.743961    4.300696    0.317372
     19          6           0      -29.869195    2.802281    0.084993
     20          6           0      -27.638030    5.899895    0.273430
     21          6           0      -30.880936    5.339821    0.630032
     22          8           0      -30.587803    6.562830    0.634796
     23          6           0      -32.365476    4.932095    1.024406
     24          7           0      -30.231765   -0.175923   -0.561634
     25          6           0      -31.227265    0.722778   -0.366630
     26          6           0      -32.600244    0.107969   -0.458737
     27          6           0      -32.299108   -1.392582   -0.662312
     28          6           0      -30.773013   -1.424756   -0.546620
     29          6           0      -33.547455    0.440830    0.741444
     30          6           0      -32.936645   -1.989871   -2.005986
     31          6           0      -34.170094   -2.874492   -1.790630
     32          7           0      -27.771056   -1.769404   -0.200909
     33          6           0      -28.639111   -2.865207   -0.401552
     34          6           0      -27.885259   -4.115581   -0.240883
     35          6           0      -26.584344   -3.675742   -0.039629
     36          6           0      -26.579766   -2.275788   -0.153614
     37          6           0      -28.345657   -5.527929   -0.303710
     38          6           0      -25.206768   -4.140656    0.176307
     39          8           0      -24.748216   -5.251634    0.489529
     40          6           0      -24.283205   -2.857446    0.206278
     41          6           0      -23.579253   -2.711418    1.548676
     42          8           0      -24.069721   -2.837062    2.675193
     43          8           0      -22.280728   -2.482163    1.202613
     44          6           0      -21.312556   -2.471635    2.286436
     45          1           0      -25.785425    4.048993   -0.333598
     46          1           0      -32.059438    2.560344   -0.010589
     47          1           0      -30.576876   -3.550262   -0.711763
     48          1           0      -22.904049    0.059441    0.359069
     49          1           0      -23.632801    2.329981   -1.150155
     50          1           0      -22.572151    2.155750    1.436966
     51          1           0      -24.234343    2.465995    1.746139
     52          1           0      -23.250622    3.606145    0.783945
     53          1           0      -23.240898    0.770045   -2.548534
     54          1           0      -23.568858   -0.813184   -2.141282
     55          1           0      -21.275042   -1.295164   -1.628652
     56          1           0      -20.976563    0.368334   -1.036307
     57          1           0      -27.940165    6.292224    1.244193
     58          1           0      -27.768268    6.498796   -0.628016
     59          1           0      -26.591314    5.613820    0.376239
     60          1           0      -32.894640    4.778898    0.084596
     61          1           0      -32.784243    5.789379    1.550957
     62          1           0      -32.275777    4.142938    1.771411
     63          1           0      -33.087282    0.508996   -1.347690
     64          1           0      -32.552415   -2.054596    0.165413
     65          1           0      -34.062658   -0.448147    1.104256
     66          1           0      -34.305856    1.180216    0.484726
     67          1           0      -32.969458    0.930362    1.524180
     68          1           0      -32.246276   -2.642439   -2.540290
     69          1           0      -33.143750   -1.184401   -2.710476
     70          1           0      -34.899299   -2.685499   -2.578637
     71          1           0      -34.621405   -2.647125   -0.825094
     72          1           0      -33.953085   -3.942501   -1.785571
     73          1           0      -29.431921   -5.512354   -0.392755
     74          1           0      -27.863865   -6.111487    0.481038
     75          1           0      -28.015650   -5.905013   -1.272294
     76          1           0      -23.554210   -2.850898   -0.604482
     77          1           0      -21.637014   -1.910888    3.163935
     78          1           0      -20.307961   -2.120456    2.050797
     79          1           0      -21.122816   -3.492799    2.618066
     80         12           0       28.277927    0.053557    0.242204
     81          6           0       24.769533   -0.204359    0.023718
     82          6           0       28.397223   -3.274176   -0.153527
     83          6           0       31.505388    0.476775   -0.049338
     84          6           0       27.813346    3.582867   -0.071810
     85          7           0       26.736004   -1.533678   -0.077814
     86          6           0       25.383836   -1.463103   -0.057772
     87          6           0       24.702202   -2.810739   -0.181263
     88          6           0       25.940842   -3.767277    0.046187
     89          6           0       27.134459   -2.842745   -0.075242
     90          6           0       25.937148   -4.547731    1.425034
     91          6           0       23.872015   -3.215493   -1.476583
     92          6           0       23.999477   -2.420754   -2.803329
     93          1           0       23.858577   -3.215029   -4.155380
     94          7           0       29.756229   -1.306472    0.067912
     95          6           0       29.627250   -2.601207   -0.189075
     96          6           0       30.976519   -3.181989   -0.428510
     97          6           0       31.928984   -2.054181   -0.223536
     98          6           0       31.056484   -0.889569   -0.070721
     99          6           0       31.241337   -4.652374   -0.609436
    100          6           0       33.430042   -2.141911   -0.313916
    101          8           0       33.946043   -3.241649   -0.497302
    102          6           0       34.420772   -0.921133   -0.256581
    103          7           0       29.543527    1.840566   -0.145055
    104          6           0       30.812002    1.645114   -0.036015
    105          6           0       31.516969    3.074107   -0.047667
    106          6           0       30.313299    3.983652   -0.302771
    107          6           0       29.105192    3.074457   -0.185444
    108          6           0       32.367738    3.499665    1.160581
    109          6           0       30.254263    4.574495   -1.805478
    110          6           0       30.446887    6.094947   -1.953043
    111          7           0       26.697262    1.444746   -0.041304
    112          6           0       26.637838    2.813231   -0.025661
    113          6           0       25.233027    3.274873    0.120786
    114          6           0       24.420680    2.110371    0.017216
    115          6           0       25.408534    1.032969    0.033840
    116          6           0       24.727406    4.734725    0.138050
    117          6           0       23.106706    1.562543   -0.042644
    118          8           0       21.969665    2.046843   -0.174959
    119          6           0       23.266046    0.022861    0.036208
    120          6           0       22.497691   -0.438633    1.277968
    121          8           0       21.452277   -1.014504    1.423261
    122          8           0       23.336237   -0.264186    2.384280
    123          6           0       22.847016   -0.755446    3.709866
    124          1           0       28.406146   -4.357519   -0.291818
    125          1           0       32.592984    0.563858   -0.108973
    126          1           0       27.698207    4.655367    0.096173
    127          1           0       24.069309   -2.878468    0.703402
    128          1           0       25.947866   -4.535008   -0.727669
    129          1           0       25.086257   -4.251729    2.037688
    130          1           0       26.803142   -4.110813    1.921076
    131          1           0       25.995903   -5.620395    1.239619
    132          1           0       22.822176   -3.225806   -1.183322
    133          1           0       24.083522   -4.257965   -1.716929
    134          1           0       24.989320   -1.965074   -2.776537
    135          1           0       23.189722   -1.711315   -2.971109
    136          1           0       32.293250   -4.916591   -0.502989
    137          1           0       30.767737   -4.934120   -1.550620
    138          1           0       30.605845   -5.120827    0.142820
    139          1           0       34.379102   -0.199353    0.560009
    140          1           0       34.231913   -0.295026   -1.128610
    141          1           0       35.462878   -1.239388   -0.255129
    142          1           0       32.250446    3.149151   -0.849753
    143          1           0       30.183450    4.871747    0.316697
    144          1           0       32.412967    2.719155    1.920261
    145          1           0       32.022588    4.443263    1.584514
    146          1           0       33.416663    3.666749    0.915736
    147          1           0       29.294317    4.374979   -2.279742
    148          1           0       31.028620    4.040670   -2.356814
    149          1           0       29.895060    6.561484   -2.769465
    150          1           0       31.502651    6.225195   -2.190578
    151          1           0       30.117395    6.482000   -0.988744
    152          1           0       25.457267    5.479920   -0.176619
    153          1           0       24.472959    4.911338    1.182830
    154          1           0       23.794173    4.776586   -0.423033
    155          1           0       22.828791   -0.430683   -0.852676
    156          1           0       21.774598   -0.752291    3.903593
    157          1           0       23.265802   -0.032652    4.409819
    158          1           0       23.207215   -1.718113    4.073244
 ---------------------------------------------------------------------

 SCF Done:  E(RCAM-B3LYP) =  -4069.81133634     A.U. after   19 cycles

 Excitation energies and oscillator strengths:

 Excited State   1:      Singlet-A      1.7088 eV  725.56 nm  f=0.3622  <S**2>=0.000
     310 -> 316       -0.17446
     312 -> 314        0.68610
     310 <- 316       -0.10518
 This state for optimization and/or second-order correction.
 Total Energy, E(TD-HF/TD-DFT) =  -4069.74853900
 Copying the excited state density for this state as the 1-particle RhoCI density.

 Excited State   2:      Singlet-A      1.7690 eV  700.88 nm  f=0.4111  <S**2>=0.000
     309 -> 315       -0.18509
     311 -> 313        0.68379
     309 <- 315       -0.10633

 Excited State   3:      Singlet-A      2.2475 eV  551.64 nm  f=0.0935  <S**2>=0.000
     310 -> 314        0.62548
     312 -> 316        0.31549

 Excited State   4:      Singlet-A      2.2833 eV  542.99 nm  f=0.0988  <S**2>=0.000
     309 -> 313        0.63711
     311 -> 315        0.29627

 Excited State   5:      Singlet-A      3.1376 eV  395.16 nm  f=0.0000  <S**2>=0.000
     312 -> 313        0.70710

 The electronic state is 1-A.
 Alpha  occ. eigenvalues --  -46.90083 -46.89166 -19.26351 -19.24612 -19.20429
 Alpha  occ. eigenvalues --  -19.20255 -19.19678 -19.19480 -19.18614 -19.18438
 Alpha  occ. eigenvalues --  -14.42399 -14.42330 -14.42165 -14.41855 -14.40450
 Alpha  occ. eigenvalues --  -14.40220 -14.40178 -14.39101 -10.39946 -10.39893
 Alpha  occ. eigenvalues --  -10.36669 -10.35704 -10.35620 -10.34743 -10.32191
 Alpha  occ. eigenvalues --  -10.32039 -10.31881 -10.31585 -10.31536 -10.31177
 Alpha  occ. eigenvalues --  -10.31137 -10.31085 -10.31041 -10.30785 -10.30744
 Alpha  occ. eigenvalues --  -10.30472 -10.30392 -10.30190 -10.30123 -10.30115
 Alpha  occ. eigenvalues --  -10.29881 -10.29667 -10.29419 -10.28983 -10.28811
 Alpha  occ. eigenvalues --  -10.28802 -10.28769 -10.28485 -10.28470 -10.28342
 Alpha  occ. eigenvalues --  -10.28151 -10.28033 -10.28013 -10.28007 -10.27963
 Alpha  occ. eigenvalues --  -10.27924 -10.27905 -10.27835 -10.27735 -10.27702
 Alpha  occ. eigenvalues --  -10.27638 -10.27603 -10.27577 -10.27465 -10.27388
 Alpha  occ. eigenvalues --  -10.27287 -10.27260 -10.27198 -10.27103 -10.26981
 Alpha  occ. eigenvalues --  -10.26908 -10.26849 -10.26729 -10.26599 -10.26582
 Alpha  occ. eigenvalues --  -10.26560 -10.26393 -10.26358 -10.26272 -10.26192
 Alpha  occ. eigenvalues --  -10.26044 -10.25965 -10.25804 -10.25756 -10.25393
 Alpha  occ. eigenvalues --  -10.24579  -3.18561  -3.17699  -1.93449  -1.93015
 Alpha  occ. eigenvalues --   -1.92864  -1.92565  -1.92141  -1.92029  -1.16827
 Alpha  occ. eigenvalues --   -1.16072  -1.09584  -1.09343  -1.08611  -1.08350
 Alpha  occ. eigenvalues --   -1.07742  -1.07293  -1.06760  -1.04840  -1.04667
 Alpha  occ. eigenvalues --   -1.04027  -1.03995  -1.03512  -1.03318  -1.02142
 Alpha  occ. eigenvalues --   -0.93599  -0.91411  -0.89822  -0.88869  -0.88839
 Alpha  occ. eigenvalues --   -0.88829  -0.88685  -0.88630  -0.88317  -0.87271
 Alpha  occ. eigenvalues --   -0.86979  -0.86918  -0.86384  -0.85426  -0.84907
 Alpha  occ. eigenvalues --   -0.84305  -0.83973  -0.83888  -0.82918  -0.82498
 Alpha  occ. eigenvalues --   -0.81809  -0.81630  -0.81113  -0.80825  -0.80561
 Alpha  occ. eigenvalues --   -0.80182  -0.78534  -0.77930  -0.77726  -0.77469
 Alpha  occ. eigenvalues --   -0.77045  -0.76735  -0.76706  -0.75879  -0.75386
 Alpha  occ. eigenvalues --   -0.75285  -0.73336  -0.72698  -0.72414  -0.71716
 Alpha  occ. eigenvalues --   -0.69583  -0.69284  -0.69189  -0.68960  -0.68708
 Alpha  occ. eigenvalues --   -0.67875  -0.67544  -0.67243  -0.66873  -0.66122
 Alpha  occ. eigenvalues --   -0.65712  -0.65529  -0.65069  -0.64984  -0.64891
 Alpha  occ. eigenvalues --   -0.64548  -0.63179  -0.62678  -0.60620  -0.60217
 Alpha  occ. eigenvalues --   -0.59938  -0.59587  -0.59482  -0.58914  -0.58598
 Alpha  occ. eigenvalues --   -0.58569  -0.58104  -0.57720  -0.57328  -0.57226
 Alpha  occ. eigenvalues --   -0.56388  -0.55958  -0.55892  -0.55748  -0.55712
 Alpha  occ. eigenvalues --   -0.55335  -0.55090  -0.55008  -0.54547  -0.53964
 Alpha  occ. eigenvalues --   -0.53758  -0.53628  -0.53361  -0.53131  -0.53026
 Alpha  occ. eigenvalues --   -0.52841  -0.52787  -0.52589  -0.52035  -0.52006
 Alpha  occ. eigenvalues --   -0.51783  -0.51577  -0.51552  -0.51347  -0.51264
 Alpha  occ. eigenvalues --   -0.51173  -0.51128  -0.51090  -0.50862  -0.50634
 Alpha  occ. eigenvalues --   -0.50033  -0.49936  -0.49816  -0.49505  -0.49453
 Alpha  occ. eigenvalues --   -0.49319  -0.49047  -0.49044  -0.48892  -0.48571
 Alpha  occ. eigenvalues --   -0.48531  -0.48502  -0.48309  -0.48258  -0.48136
 Alpha  occ. eigenvalues --   -0.47916  -0.47837  -0.47675  -0.47649  -0.47467
 Alpha  occ. eigenvalues --   -0.47452  -0.47253  -0.47171  -0.46950  -0.46854
 Alpha  occ. eigenvalues --   -0.46663  -0.46568  -0.46376  -0.46295  -0.46104
 Alpha  occ. eigenvalues --   -0.45996  -0.45918  -0.45559  -0.45545  -0.45375
 Alpha  occ. eigenvalues --   -0.45243  -0.44886  -0.44766  -0.44424  -0.44225
 Alpha  occ. eigenvalues --   -0.44111  -0.43934  -0.43782  -0.43761  -0.43597
 Alpha  occ. eigenvalues --   -0.43472  -0.43311  -0.43271  -0.43141  -0.42935
 Alpha  occ. eigenvalues --   -0.42695  -0.42463  -0.42445  -0.42270  -0.42111
 Alpha  occ. eigenvalues --   -0.42089  -0.42027  -0.41949  -0.41570  -0.41482
 Alpha  occ. eigenvalues --   -0.41264  -0.41140  -0.40938  -0.40789  -0.40700
 Alpha  occ. eigenvalues --   -0.40596  -0.39985  -0.39706  -0.39352  -0.39253
 Alpha  occ. eigenvalues --   -0.38869  -0.38670  -0.38375  -0.38224  -0.38146
 Alpha  occ. eigenvalues --   -0.37674  -0.37371  -0.36911  -0.36844  -0.36678
 Alpha  occ. eigenvalues --   -0.36407  -0.36336  -0.35029  -0.34860  -0.34785
 Alpha  occ. eigenvalues --   -0.34280  -0.33661  -0.33024  -0.31925  -0.31574
 Alpha  occ. eigenvalues --   -0.31429  -0.31191  -0.31062  -0.30980  -0.30485
 Alpha  occ. eigenvalues --   -0.30443  -0.29827  -0.29285  -0.24508  -0.24191
 Alpha  occ. eigenvalues --   -0.21548  -0.21074
 Alpha virt. eigenvalues --   -0.08928  -0.08573  -0.02047  -0.02014  -0.00633
 Alpha virt. eigenvalues --    0.00180   0.01172   0.01647   0.01854   0.01988
 Alpha virt. eigenvalues --    0.04290   0.04954   0.04997   0.05057   0.05425

 Mulliken charges:
               1
     1  Mg  11.997963
     2  C    6.032746
     3  C    5.981581
     4  C    5.967797
     5  C    6.005063
     6  N    7.016211
     7  C    5.961323
     8  C    6.007708
     9  C    5.990501
    10  C    6.034343
    11  C    5.996822
    12  C    5.999681
    13  C    6.001436
    14  H    0.995878
    15  N    6.990225
    16  C    6.041811
    17  C    6.019388
    18  C    6.013287
    19  C    6.048013
    20  C    5.996746
    21  C    6.009779
    22  O    8.020453
    23  C    6.001320
    24  N    6.992139
    25  C    6.040879
    26  C    5.986498
    27  C    6.008856
    28  C    5.967405
    29  C    5.999388
    30  C    6.003459
    31  C    6.000875
    32  N    7.002380
    33  C    5.956436
    34  C    5.976493
    35  C    5.994463
    36  C    5.968852
    37  C    6.003709
    38  C    5.984078
    39  O    7.968015
    40  C    5.998442
    41  C    5.994718
    42  O    7.997860
    43  O    7.998297
    44  C    6.002122
    45  H    1.010179
    46  H    1.005403
    47  H    0.986082
    48  H    1.001732
    49  H    1.005959
    50  H    1.014007
    51  H    1.000896
    52  H    0.999435
    53  H    0.990573
    54  H    1.007878
    55  H    1.004987
    56  H    0.995663
    57  H    1.015516
    58  H    1.017986
    59  H    1.016792
    60  H    1.010252
    61  H    1.011335
    62  H    1.008351
    63  H    1.002186
    64  H    1.003233
    65  H    1.011097
    66  H    0.998258
    67  H    0.996858
    68  H    1.003699
    69  H    0.987888
    70  H    0.994370
    71  H    0.994201
    72  H    1.002408
    73  H    0.983339
    74  H    0.983018
    75  H    0.979603
    76  H    0.992370
    77  H    0.994877
    78  H    0.994547
    79  H    0.999584
    80  Mg  12.000007
    81  C    6.000088
    82  C    6.000055
    83  C    5.999885
    84  C    5.999921
    85  N    6.999991
    86  C    5.999923
    87  C    6.000018
    88  C    5.999995
    89  C    5.999995
    90  C    5.999992
    91  C    5.999995
    92  C    6.000003
    93  H    1.000011
    94  N    7.000010
    95  C    6.000001
    96  C    6.000073
    97  C    5.999967
    98  C    6.000117
    99  C    5.999989
   100  C    6.000002
   101  O    8.000034
   102  C    6.000004
   103  N    7.000008
   104  C    6.000074
   105  C    5.999980
   106  C    5.999999
   107  C    6.000009
   108  C    6.000007
   109  C    6.000024
   110  C    5.999996
   111  N    6.999988
   112  C    6.000018
   113  C    5.999908
   114  C    6.000020
   115  C    5.999919
   116  C    6.000000
   117  C    6.000006
   118  O    7.999951
   119  C    5.999993
   120  C    5.999991
   121  O    8.000006
   122  O    7.999996
   123  C    6.000013
   124  H    1.000023
   125  H    1.000008
   126  H    0.999979
   127  H    1.000012
   128  H    1.000017
   129  H    1.000029
   130  H    0.999984
   131  H    1.000028
   132  H    1.000019
   133  H    1.000010
   134  H    0.999980
   135  H    1.000002
   136  H    1.000023
   137  H    1.000040
   138  H    1.000040
   139  H    1.000005
   140  H    1.000007
   141  H    1.000010
   142  H    0.999993
   143  H    0.999985
   144  H    0.999998
   145  H    0.999996
   146  H    0.999991
   147  H    1.000006
   148  H    0.999981
   149  H    0.999987
   150  H    0.999985
   151  H    0.999994
   152  H    0.999961
   153  H    0.999965
   154  H    0.999973
   155  H    1.000002
   156  H    1.000004
   157  H    0.999982
   158  H    1.000003
 Sum of Mulliken charges = 624.00000

 Dipole moment (field-independent basis, Debye):
    X=             -1.5313    Y=             10.4465    Z=              0.5646  Tot=             10.5733
 Quadrupole moment (field-independent basis, Debye-Ang):
   XX=             85.3302   YY=              4.7283   ZZ=             -0.5738
   XY=           -295.5527   XZ=            -18.6467   YZ=              0.7397

 Normal termination of Gaussian 16 at Thu Sep 23 12:35:06 2021.
