 Gaussian 16, Revision A.03,
 Gaussian 16:  ES64L-G16RevA.03 25-Dec-2016

 ----------------------------------------------------------
 #p cam-b3lyp/Def2SVP td=(nstates=5) density=(transition=1)
 ----------------------------------------------------------

 --------------------------------
 TDDFT excited states in gaussian
 --------------------------------
 Symbolic Z-matrix:
 Charge =  0 Multiplicity = 1

                         Standard orientation:
 ---------------------------------------------------------------------
 Center     Atomic      Atomic             Coordinates (Angstroms)
 Number     Number       Type             X           Y           Z
 ---------------------------------------------------------------------
      1         12           0       28.695810   -0.021292   -0.150889
      2          6           0       25.376233   -0.775257   -0.194895
      3          6           0       28.064960    2.275436   -2.672061
      4          6           0       31.883470    0.985800    0.160864
      5          6           0       29.091322   -1.862387    2.822276
      6          7           0       26.852295    0.847855   -1.119396
      7          6           0       25.625410    0.308851   -0.972407
      8          6           0       24.583445    1.050502   -1.727152
      9          6           0       25.556520    1.802785   -2.831551
     10          6           0       26.949310    1.647945   -2.185264
     11          6           0       25.422529    1.203738   -4.262698
     12          6           0       23.883272    2.034634   -0.803571
     13          6           0       24.754961    3.103961    0.004164
     14          1           0       24.258776    4.534752    0.171606
     15          7           0       29.820739    1.418029   -1.107123
     16          6           0       29.420711    2.184064   -2.231155
     17          6           0       30.587400    2.831082   -2.731508
     18          6           0       31.688677    2.540574   -1.935807
     19          6           0       31.209380    1.586580   -0.921535
     20          6           0       30.446008    3.698373   -3.965852
     21          6           0       33.074990    3.131631   -2.030757
     22          8           0       33.245137    3.973696   -2.947378
     23          6           0       34.118226    2.982377   -1.072416
     24          7           0       30.192473   -0.232153    1.429868
     25          6           0       31.462119    0.238198    1.265320
     26          6           0       32.363249   -0.148544    2.462440
     27          6           0       31.424301   -1.072702    3.308782
     28          6           0       30.126707   -1.001988    2.521604
     29          6           0       33.667873   -0.797390    2.051942
     30          6           0       31.300199   -0.542242    4.835461
     31          6           0       31.339505   -1.655184    5.888931
     32          7           0       27.503413   -1.159178    1.150232
     33          6           0       27.806937   -1.999215    2.173390
     34          6           0       26.640137   -2.804068    2.413526
     35          6           0       25.610931   -2.422539    1.484727
     36          6           0       26.195551   -1.396043    0.761558
     37          6           0       26.429267   -3.681444    3.599701
     38          6           0       24.259359   -2.559465    1.045926
     39          8           0       23.457380   -3.387540    1.495905
     40          6           0       24.078005   -1.539063   -0.062568
     41          6           0       23.681215   -2.252684   -1.300752
     42          8           0       22.684837   -2.948457   -1.290770
     43          8           0       24.454743   -1.977923   -2.386909
     44          6           0       24.058649   -2.658831   -3.621166
     45          1           0       27.927575    2.781547   -3.629766
     46          1           0       32.962766    1.139677    0.101235
     47          1           0       29.179236   -2.592825    3.629634
     48          1           0       23.785494    0.478679   -2.200960
     49          1           0       25.217418    2.822850   -3.016681
     50          1           0       25.113433    1.978797   -4.963062
     51          1           0       24.626792    0.459631   -4.218951
     52          1           0       26.319396    0.706711   -4.634699
     53          1           0       23.240968    1.449780   -0.144848
     54          1           0       23.129734    2.466452   -1.462106
     55          1           0       25.761758    3.277668   -0.375915
     56          1           0       24.750489    2.675217    1.005868
     57          1           0       30.125420    4.673254   -3.598043
     58          1           0       29.651108    3.294117   -4.591353
     59          1           0       31.335939    3.807415   -4.586444
     60          1           0       34.773534    3.853617   -1.047703
     61          1           0       34.652388    2.034698   -1.152032
     62          1           0       33.615768    3.046090   -0.108187
     63          1           0       32.525594    0.805696    2.964827
     64          1           0       31.763132   -2.105220    3.226138
     65          1           0       33.839288   -0.807168    0.975879
     66          1           0       33.966979   -1.767293    2.448423
     67          1           0       34.403805   -0.050895    2.352117
     68          1           0       30.390045    0.024014    5.033414
     69          1           0       32.066067    0.194869    5.076082
     70          1           0       32.302194   -1.603942    6.396836
     71          1           0       31.331118   -2.614113    5.370339
     72          1           0       30.535718   -1.577150    6.621174
     73          1           0       27.025448   -4.590726    3.666224
     74          1           0       25.366307   -3.925292    3.586443
     75          1           0       26.653475   -3.168081    4.534798
     76          1           0       23.261516   -0.889986    0.255237
     77          1           0       23.024724   -2.385590   -3.833921
     78          1           0       24.208026   -3.738174   -3.588573
     79          1           0       24.742428   -2.410829   -4.432848
     80         12           0      -28.927938    0.215989    0.246395
     81          6           0      -25.815137   -1.462979    0.323447
     82          6           0      -29.711995   -1.650332   -2.337263
     83          6           0      -31.250695    2.485905   -0.373527
     84          6           0      -27.479766    2.487052    2.564464
     85          7           0      -27.848645   -1.520741   -0.728474
     86          6           0      -26.710005   -2.073679   -0.518585
     87          6           0      -26.590443   -3.399813   -1.297407
     88          6           0      -27.636167   -3.202656   -2.509480
     89          6           0      -28.435862   -1.988606   -1.877223
     90          6           0      -27.021670   -2.868637   -3.926170
     91          6           0      -27.057102   -4.647274   -0.380370
     92          6           0      -26.391157   -6.050820   -0.552728
     93          1           0      -25.842833   -6.388089   -1.988152
     94          7           0      -30.430172    0.290440   -1.038394
     95          6           0      -30.609256   -0.661204   -2.031093
     96          6           0      -31.851444   -0.307383   -2.804418
     97          6           0      -32.322502    0.920341   -2.176196
     98          6           0      -31.376722    1.352401   -1.143593
     99          6           0      -32.309192   -1.144579   -3.983820
    100          6           0      -33.589723    1.680101   -2.501256
    101          8           0      -33.928120    2.745803   -1.967808
    102          6           0      -34.520774    1.111873   -3.494102
    103          7           0      -29.383325    2.231967    1.095277
    104          6           0      -30.382387    2.935838    0.594448
    105          6           0      -30.711169    4.170734    1.545967
    106          6           0      -29.400015    4.144736    2.503716
    107          6           0      -28.726082    2.851428    2.053340
    108          6           0      -30.967033    5.510647    0.779967
    109          6           0      -29.620440    4.170758    4.051871
    110          6           0      -29.194601    5.418038    4.782890
    111          7           0      -27.111068    0.397095    1.445446
    112          6           0      -26.718485    1.389088    2.321927
    113          6           0      -25.397481    1.166793    2.739904
    114          6           0      -24.993278    0.077812    1.944586
    115          6           0      -26.021797   -0.358831    1.143587
    116          6           0      -24.615507    1.931175    3.685122
    117          6           0      -23.889160   -0.783077    1.765797
    118          8           0      -22.763281   -0.936361    2.312682
    119          6           0      -24.291003   -1.659269    0.495429
    120          6           0      -23.879555   -3.072087    0.692922
    121          8           0      -24.277512   -3.862316    1.546322
    122          8           0      -22.996387   -3.406312   -0.381737
    123          6           0      -22.443884   -4.766801   -0.395586
    124          1           0      -29.984190   -2.383580   -3.099866
    125          1           0      -32.060676    3.195776   -0.550101
    126          1           0      -27.073444    3.145973    3.335509
    127          1           0      -25.625926   -3.384542   -1.804260
    128          1           0      -28.140042   -4.153261   -2.680897
    129          1           0      -25.969266   -2.593689   -3.859178
    130          1           0      -27.503560   -2.002271   -4.378923
    131          1           0      -27.139421   -3.775230   -4.519635
    132          1           0      -28.137329   -4.784358   -0.431958
    133          1           0      -26.938403   -4.357313    0.663817
    134          1           0      -27.049428   -6.882837   -0.300616
    135          1           0      -25.451794   -6.017707    0.000578
    136          1           0      -33.382797   -1.334935   -3.960768
    137          1           0      -31.793167   -2.101957   -4.056584
    138          1           0      -31.956985   -0.686439   -4.907697
    139          1           0      -34.029699    0.968332   -4.456982
    140          1           0      -35.379243    1.772516   -3.615644
    141          1           0      -34.972109    0.156910   -3.224938
    142          1           0      -31.560930    3.981296    2.201702
    143          1           0      -28.654088    4.880053    2.198468
    144          1           0      -30.773098    5.381920   -0.285041
    145          1           0      -30.330932    6.190358    1.347311
    146          1           0      -31.982847    5.820112    1.022410
    147          1           0      -29.042841    3.347998    4.473811
    148          1           0      -30.668382    3.965862    4.271728
    149          1           0      -28.962090    6.111685    3.975960
    150          1           0      -28.267865    5.191851    5.311516
    151          1           0      -29.984939    5.854926    5.392039
    152          1           0      -25.217353    2.019969    4.589161
    153          1           0      -24.500568    2.992150    3.463072
    154          1           0      -23.690359    1.399956    3.909521
    155          1           0      -23.786634   -1.241364   -0.376401
    156          1           0      -21.719846   -4.881103   -1.202735
    157          1           0      -23.233627   -5.456344   -0.694390
    158          1           0      -21.921983   -4.950231    0.543008
 ---------------------------------------------------------------------

 SCF Done:  E(RCAM-B3LYP) =  -4069.77765689     A.U. after   19 cycles

 Excitation energies and oscillator strengths:

 Excited State   1:      Singlet-A      1.7418 eV  711.83 nm  f=0.3930  <S**2>=0.000
     309 -> 316       -0.17693
     312 -> 313        0.68527
     309 <- 316       -0.10391
 This state for optimization and/or second-order correction.
 Total Energy, E(TD-HF/TD-DFT) =  -4069.71364769
 Copying the excited state density for this state as the 1-particle RhoCI density.

 Excited State   2:      Singlet-A      1.7997 eV  688.91 nm  f=0.3655  <S**2>=0.000
     310 -> 315       -0.21209
     311 -> 314        0.67498
     310 <- 315       -0.10952

 Excited State   3:      Singlet-A      2.2175 eV  559.10 nm  f=0.1299  <S**2>=0.000
     309 -> 313        0.65046
     312 -> 316        0.25333

 Excited State   4:      Singlet-A      2.2245 eV  557.36 nm  f=0.0804  <S**2>=0.000
     310 -> 314        0.62932
     311 -> 315        0.30795

 Excited State   5:      Singlet-A      3.2471 eV  381.83 nm  f=0.0000  <S**2>=0.000
     311 -> 313        0.70711

 The electronic state is 1-A.
 Alpha  occ. eigenvalues --  -46.89394 -46.89106 -19.26390 -19.23942 -19.20219
 Alpha  occ. eigenvalues --  -19.19474 -19.19000 -19.18453 -19.18275 -19.18160
 Alpha  occ. eigenvalues --  -14.42153 -14.42077 -14.42058 -14.41724 -14.39974
 Alpha  occ. eigenvalues --  -14.39787 -14.38603 -14.38568 -10.39464 -10.39292
 Alpha  occ. eigenvalues --  -10.35127 -10.34835 -10.34489 -10.34445 -10.32740
 Alpha  occ. eigenvalues --  -10.31676 -10.31524 -10.31215 -10.31184 -10.31087
 Alpha  occ. eigenvalues --  -10.30966 -10.30753 -10.30709 -10.30621 -10.30517
 Alpha  occ. eigenvalues --  -10.30385 -10.30311 -10.30250 -10.30209 -10.29331
 Alpha  occ. eigenvalues --  -10.29198 -10.29042 -10.28663 -10.28646 -10.28573
 Alpha  occ. eigenvalues --  -10.28557 -10.28456 -10.28394 -10.28387 -10.28373
 Alpha  occ. eigenvalues --  -10.28339 -10.28309 -10.28276 -10.28205 -10.28019
 Alpha  occ. eigenvalues --  -10.28013 -10.27838 -10.27729 -10.27598 -10.27541
 Alpha  occ. eigenvalues --  -10.27491 -10.27469 -10.27397 -10.27358 -10.27290
 Alpha  occ. eigenvalues --  -10.27226 -10.27172 -10.26992 -10.26976 -10.26769
 Alpha  occ. eigenvalues --  -10.26543 -10.26466 -10.26383 -10.26376 -10.26338
 Alpha  occ. eigenvalues --  -10.26231 -10.26028 -10.25909 -10.25829 -10.25814
 Alpha  occ. eigenvalues --  -10.25614 -10.25553 -10.25407 -10.24968 -10.24642
 Alpha  occ. eigenvalues --  -10.24549  -3.17847  -3.17559  -1.92751  -1.92435
 Alpha  occ. eigenvalues --   -1.92313  -1.92133  -1.92034  -1.91841  -1.17414
 Alpha  occ. eigenvalues --   -1.13966  -1.09423  -1.09049  -1.08396  -1.07990
 Alpha  occ. eigenvalues --   -1.07288  -1.06726  -1.05784  -1.05213  -1.04982
 Alpha  occ. eigenvalues --   -1.04540  -1.03490  -1.02729  -1.01513  -1.01471
 Alpha  occ. eigenvalues --   -0.94069  -0.92958  -0.89500  -0.89280  -0.89044
 Alpha  occ. eigenvalues --   -0.88748  -0.88612  -0.87899  -0.87789  -0.87554
 Alpha  occ. eigenvalues --   -0.87377  -0.86911  -0.86325  -0.85844  -0.85098
 Alpha  occ. eigenvalues --   -0.84275  -0.84127  -0.83975  -0.83351  -0.82801
 Alpha  occ. eigenvalues --   -0.82726  -0.82060  -0.81512  -0.81456  -0.80897
 Alpha  occ. eigenvalues --   -0.80669  -0.78970  -0.78623  -0.77991  -0.77715
 Alpha  occ. eigenvalues --   -0.77058  -0.76970  -0.76162  -0.75890  -0.75238
 Alpha  occ. eigenvalues --   -0.74957  -0.73225  -0.72512  -0.72257  -0.72124
 Alpha  occ. eigenvalues --   -0.70147  -0.69121  -0.68932  -0.68843  -0.68598
 Alpha  occ. eigenvalues --   -0.67927  -0.67228  -0.67129  -0.66559  -0.65926
 Alpha  occ. eigenvalues --   -0.65662  -0.65596  -0.65336  -0.65214  -0.64601
 Alpha  occ. eigenvalues --   -0.64389  -0.63825  -0.61256  -0.60538  -0.60241
 Alpha  occ. eigenvalues --   -0.60147  -0.59733  -0.59339  -0.59289  -0.58825
 Alpha  occ. eigenvalues --   -0.58385  -0.58348  -0.58021  -0.57743  -0.57339
 Alpha  occ. eigenvalues --   -0.56996  -0.56841  -0.56586  -0.55804  -0.55768
 Alpha  occ. eigenvalues --   -0.55480  -0.55158  -0.54518  -0.54448  -0.54251
 Alpha  occ. eigenvalues --   -0.53796  -0.53753  -0.53532  -0.53484  -0.53221
 Alpha  occ. eigenvalues --   -0.53073  -0.52967  -0.52608  -0.52484  -0.52474
 Alpha  occ. eigenvalues --   -0.52243  -0.51887  -0.51824  -0.51555  -0.51431
 Alpha  occ. eigenvalues --   -0.51111  -0.51079  -0.50919  -0.50919  -0.50551
 Alpha  occ. eigenvalues --   -0.50349  -0.50331  -0.49868  -0.49599  -0.49561
 Alpha  occ. eigenvalues --   -0.49468  -0.49201  -0.49116  -0.48788  -0.48752
 Alpha  occ. eigenvalues --   -0.48684  -0.48667  -0.48474  -0.48383  -0.48158
 Alpha  occ. eigenvalues --   -0.48045  -0.47812  -0.47627  -0.47616  -0.47314
 Alpha  occ. eigenvalues --   -0.47095  -0.47033  -0.46794  -0.46723  -0.46428
 Alpha  occ. eigenvalues --   -0.46406  -0.46302  -0.46105  -0.46052  -0.45735
 Alpha  occ. eigenvalues --   -0.45640  -0.45587  -0.45342  -0.45231  -0.44914
 Alpha  occ. eigenvalues --   -0.44858  -0.44656  -0.44618  -0.44538  -0.44228
 Alpha  occ. eigenvalues --   -0.43930  -0.43913  -0.43732  -0.43559  -0.43546
 Alpha  occ. eigenvalues --   -0.43338  -0.42990  -0.42811  -0.42607  -0.42438
 Alpha  occ. eigenvalues --   -0.42303  -0.42244  -0.41937  -0.41904  -0.41782
 Alpha  occ. eigenvalues --   -0.41689  -0.41582  -0.41273  -0.41173  -0.41149
 Alpha  occ. eigenvalues --   -0.41059  -0.40958  -0.40757  -0.40648  -0.40480
 Alpha  occ. eigenvalues --   -0.40291  -0.40055  -0.39526  -0.39193  -0.39030
 Alpha  occ. eigenvalues --   -0.38677  -0.38490  -0.37831  -0.37828  -0.37691
 Alpha  occ. eigenvalues --   -0.37517  -0.37400  -0.36886  -0.36449  -0.36106
 Alpha  occ. eigenvalues --   -0.35966  -0.35638  -0.34692  -0.34477  -0.33991
 Alpha  occ. eigenvalues --   -0.33903  -0.33550  -0.33103  -0.31796  -0.31778
 Alpha  occ. eigenvalues --   -0.31296  -0.30877  -0.30504  -0.30440  -0.30247
 Alpha  occ. eigenvalues --   -0.30098  -0.29295  -0.28985  -0.24295  -0.24161
 Alpha  occ. eigenvalues --   -0.21673  -0.21664
 Alpha virt. eigenvalues --   -0.09138  -0.08614  -0.02650  -0.01880  -0.00237
 Alpha virt. eigenvalues --    0.00152   0.01348   0.02017   0.02258   0.02324
 Alpha virt. eigenvalues --    0.04581   0.04991   0.05509   0.05514   0.05607

 Mulliken charges:
               1
     1  Mg  11.998003
     2  C    6.013413
     3  C    5.978547
     4  C    5.982150
     5  C    6.019784
     6  N    7.001597
     7  C    5.969399
     8  C    6.014910
     9  C    5.985883
    10  C    6.030609
    11  C    5.996927
    12  C    6.006641
    13  C    6.002227
    14  H    0.992750
    15  N    6.988771
    16  C    6.051266
    17  C    6.018438
    18  C    6.009216
    19  C    6.045625
    20  C    5.995858
    21  C    6.013694
    22  O    8.021880
    23  C    5.994116
    24  N    7.005000
    25  C    6.030693
    26  C    5.990336
    27  C    6.011681
    28  C    5.967019
    29  C    5.999517
    30  C    6.003234
    31  C    6.001215
    32  N    7.002917
    33  C    5.960554
    34  C    5.965850
    35  C    5.997421
    36  C    5.968385
    37  C    6.004039
    38  C    5.983515
    39  O    7.970709
    40  C    5.998213
    41  C    5.994798
    42  O    7.995945
    43  O    7.999968
    44  C    6.002328
    45  H    1.009028
    46  H    1.008394
    47  H    0.995731
    48  H    0.999073
    49  H    1.003625
    50  H    1.001119
    51  H    1.014385
    52  H    0.997073
    53  H    1.006387
    54  H    0.991251
    55  H    0.984535
    56  H    1.008190
    57  H    1.021291
    58  H    1.019159
    59  H    1.016474
    60  H    1.013299
    61  H    1.012046
    62  H    1.007426
    63  H    1.000838
    64  H    0.999927
    65  H    0.995999
    66  H    1.010291
    67  H    1.000561
    68  H    1.000994
    69  H    0.989666
    70  H    0.994728
    71  H    1.002251
    72  H    1.002399
    73  H    0.974237
    74  H    0.985889
    75  H    0.974628
    76  H    0.990583
    77  H    0.995439
    78  H    0.998038
    79  H    0.990004
    80  Mg  11.999999
    81  C    5.999923
    82  C    5.999999
    83  C    6.000063
    84  C    6.000022
    85  N    6.999999
    86  C    6.000096
    87  C    5.999982
    88  C    6.000043
    89  C    5.999904
    90  C    6.000019
    91  C    5.999999
    92  C    5.999994
    93  H    1.000032
    94  N    7.000036
    95  C    5.999880
    96  C    5.999862
    97  C    6.000004
    98  C    5.999824
    99  C    6.000047
   100  C    5.999924
   101  O    7.999888
   102  C    6.000037
   103  N    6.999977
   104  C    5.999901
   105  C    6.000040
   106  C    5.999976
   107  C    6.000082
   108  C    6.000013
   109  C    5.999977
   110  C    6.000005
   111  N    7.000006
   112  C    6.000112
   113  C    6.000152
   114  C    5.999961
   115  C    6.000142
   116  C    5.999959
   117  C    6.000089
   118  O    8.000168
   119  C    5.999995
   120  C    6.000024
   121  O    8.000034
   122  O    8.000005
   123  C    5.999972
   124  H    0.999973
   125  H    0.999963
   126  H    1.000018
   127  H    1.000004
   128  H    0.999971
   129  H    0.999961
   130  H    0.999998
   131  H    0.999978
   132  H    1.000032
   133  H    0.999977
   134  H    1.000009
   135  H    1.000007
   136  H    0.999910
   137  H    0.999929
   138  H    0.999896
   139  H    0.999968
   140  H    0.999918
   141  H    0.999960
   142  H    0.999971
   143  H    0.999992
   144  H    1.000011
   145  H    0.999955
   146  H    0.999980
   147  H    0.999992
   148  H    1.000032
   149  H    1.000008
   150  H    1.000000
   151  H    1.000006
   152  H    1.000081
   153  H    1.000108
   154  H    1.000090
   155  H    1.000036
   156  H    1.000046
   157  H    1.000015
   158  H    1.000038
 Sum of Mulliken charges = 624.00000

 Dipole moment (field-independent basis, Debye):
    X=              6.8187    Y=              6.6367    Z=             -5.3346  Tot=             10.9086
 Quadrupole moment (field-independent basis, Debye-Ang):
   XX=            385.3558   YY=             -0.5287   ZZ=              0.4390
   XY=            189.9816   XZ=           -155.9302   YZ=             -1.9193

 Normal termination of Gaussian 16 at Wed Sep 22 17:37:01 2021.
