 Gaussian 16, Revision A.03,
 Gaussian 16:  ES64L-G16RevA.03 25-Dec-2016

 -----------------------------------------------------------
 #p cam-b3lyp/Def2SVP td=(nstates=5, root=1) density=current
 -----------------------------------------------------------

 --------------------------------
 TDDFT excited states in gaussian
 --------------------------------
 Symbolic Z-matrix:
 Charge =  0 Multiplicity = 1

                         Standard orientation:
 ---------------------------------------------------------------------
 Center     Atomic      Atomic             Coordinates (Angstroms)
 Number     Number       Type             X           Y           Z
 ---------------------------------------------------------------------
      1         12           0       -0.790861    0.178080    0.371520
      2          6           0        2.741111    0.079272    0.228832
      3          6           0       -0.790797   -3.246633    0.350984
      4          6           0       -4.059577    0.275986   -0.151673
      5          6           0       -0.615039    3.641798   -0.100915
      6          7           0        0.800876   -1.402373    0.133418
      7          6           0        2.177743   -1.176161    0.209631
      8          6           0        2.919561   -2.514570    0.447561
      9          6           0        1.756835   -3.573001    0.462724
     10          6           0        0.463222   -2.719810    0.348196
     11          6           0        1.907486   -4.781228   -0.445019
     12          6           0        3.816318   -2.589970    1.693109
     13          6           0        5.282458   -3.004164    1.389860
     14          1           0        5.785202   -4.215534    2.143389
     15          7           0       -2.225092   -1.313339    0.220296
     16          6           0       -2.056985   -2.666720    0.197454
     17          6           0       -3.367038   -3.271833    0.234588
     18          6           0       -4.352832   -2.236942   -0.065175
     19          6           0       -3.519955   -1.044760   -0.024557
     20          6           0       -3.583005   -4.872409    0.279806
     21          6           0       -5.723104   -2.311879   -0.586679
     22          8           0       -6.472700   -1.402139   -0.800528
     23          6           0       -6.239539   -3.712298   -0.903129
     24          7           0       -2.116820    1.756473   -0.278129
     25          6           0       -3.443199    1.533458   -0.356750
     26          6           0       -4.209258    2.854614   -0.456848
     27          6           0       -3.142709    3.895108   -0.079258
     28          6           0       -1.872721    3.074363   -0.108810
     29          6           0       -4.786239    3.084441   -1.928549
     30          6           0       -3.439683    4.410461    1.419991
     31          6           0       -3.125288    3.398235    2.555237
     32          7           0        0.701177    1.672206    0.225100
     33          6           0        0.609596    3.000744    0.052462
     34          6           0        1.941738    3.542040    0.022064
     35          6           0        2.786954    2.454319    0.136528
     36          6           0        2.002225    1.299346    0.195082
     37          6           0        2.385982    4.984036   -0.133100
     38          6           0        4.216587    2.132693    0.134616
     39          8           0        5.263142    2.694226   -0.027767
     40          6           0        4.252255    0.587781    0.273791
     41          6           0        4.993749    0.098452   -0.914952
     42          8           0        4.655524    0.395266   -2.033191
     43          8           0        6.126832   -0.633112   -0.597367
     44          6           0        7.082679   -0.903487   -1.722978
     45          1           0       -0.773875   -4.319508    0.554333
     46          1           0       -5.145897    0.375247   -0.209042
     47          1           0       -0.464028    4.721170   -0.032600
     48          1           0        3.509756   -2.747516   -0.438971
     49          1           0        1.767895   -4.066862    1.434558
     50          1           0        2.671244   -4.611925   -1.202598
     51          1           0        0.978787   -5.086773   -0.927614
     52          1           0        2.299568   -5.578263    0.186227
     53          1           0        3.545150   -3.296971    2.477167
     54          1           0        3.837604   -1.631456    2.211169
     55          1           0        5.961574   -2.155175    1.467399
     56          1           0        5.325394   -3.310994    0.345594
     57          1           0       -4.316394   -5.086672    1.057115
     58          1           0       -2.712520   -5.469153    0.549668
     59          1           0       -3.876850   -5.387420   -0.634778
     60          1           0       -6.221327   -4.209806    0.066822
     61          1           0       -5.508666   -4.125614   -1.597460
     62          1           0       -7.269088   -3.748789   -1.260564
     63          1           0       -5.008964    2.951713    0.278185
     64          1           0       -2.953601    4.750766   -0.727858
     65          1           0       -5.685508    3.691823   -1.822731
     66          1           0       -5.084032    2.214282   -2.514542
     67          1           0       -4.009134    3.663149   -2.427612
     68          1           0       -4.463207    4.761184    1.550796
     69          1           0       -2.732554    5.198347    1.679787
     70          1           0       -3.483772    3.678560    3.545129
     71          1           0       -2.040892    3.308307    2.621221
     72          1           0       -3.539441    2.434161    2.258247
     73          1           0        2.068194    5.641856    0.675522
     74          1           0        1.896063    5.303517   -1.052519
     75          1           0        3.456089    5.077407   -0.318089
     76          1           0        4.856396    0.433696    1.167689
     77          1           0        7.288223   -1.953442   -1.514544
     78          1           0        8.004591   -0.327053   -1.648409
     79          1           0        6.767801   -0.765599   -2.757055
 ---------------------------------------------------------------------

 SCF Done:  E(RCAM-B3LYP) =  -2034.91463164     A.U. after   19 cycles

 Excitation energies and oscillator strengths:

 Excited State   1:      Singlet-A      1.7037 eV  727.75 nm  f=0.4024  <S**2>=0.000
     155 ->158         0.17564
     156 ->157         0.68731
     155 <-158         0.10765
 This state for optimization and/or second-order correction.
 Total Energy, E(TD-HF/TD-DFT) =  -2034.85202308
 Copying the excited state density for this state as the 1-particle RhoCI density.

 Excited State   2:      Singlet-A      2.1918 eV  565.68 nm  f=0.1392  <S**2>=0.000
     155 ->157         0.65685
     156 ->158        -0.24833

 Excited State   3:      Singlet-A      3.3781 eV  367.03 nm  f=0.0018  <S**2>=0.000
     152 ->157        -0.10189
     153 ->157        -0.13923
     154 ->157         0.66844

 Excited State   4:      Singlet-A      3.4413 eV  360.28 nm  f=0.0106  <S**2>=0.000
     153 ->157         0.58403
     153 ->159         0.15646
     153 ->161        -0.12845
     156 ->158         0.21400

 Excited State   5:      Singlet-A      3.4919 eV  355.06 nm  f=0.0029  <S**2>=0.000
     152 ->157         0.63402
     153 ->159        -0.10967
     154 ->157         0.10186
     156 ->158         0.19314

 The electronic state is 1-A.
 Alpha  occ. eigenvalues --  -46.89561 -19.25160 -19.19623 -19.19296 -19.18417
 Alpha  occ. eigenvalues --  -14.42129 -14.41939 -14.39790 -14.39248 -10.38810
 Alpha  occ. eigenvalues --  -10.35172 -10.34392 -10.31824 -10.31545 -10.30792
 Alpha  occ. eigenvalues --  -10.30776 -10.30772 -10.30258 -10.29980 -10.29645
 Alpha  occ. eigenvalues --  -10.29370 -10.29178 -10.28694 -10.28204 -10.28048
 Alpha  occ. eigenvalues --  -10.28044 -10.28014 -10.27909 -10.27783 -10.27526
 Alpha  occ. eigenvalues --  -10.27411 -10.27048 -10.27006 -10.26665 -10.26571
 Alpha  occ. eigenvalues --  -10.26527 -10.26291 -10.26191 -10.25981 -10.25973
 Alpha  occ. eigenvalues --  -10.25627 -10.25080 -10.25059  -3.17964  -1.92847
 Alpha  occ. eigenvalues --   -1.92433  -1.92257  -1.15706  -1.11687  -1.11085
 Alpha  occ. eigenvalues --   -1.07639  -1.05205  -1.04308  -1.03852  -1.02016
 Alpha  occ. eigenvalues --   -0.92378  -0.88897  -0.88830  -0.88237  -0.87759
 Alpha  occ. eigenvalues --   -0.86562  -0.86348  -0.84429  -0.83515  -0.82525
 Alpha  occ. eigenvalues --   -0.81228  -0.80881  -0.80184  -0.78397  -0.77439
 Alpha  occ. eigenvalues --   -0.76780  -0.76183  -0.75242  -0.73121  -0.71783
 Alpha  occ. eigenvalues --   -0.69385  -0.69215  -0.68095  -0.67318  -0.65502
 Alpha  occ. eigenvalues --   -0.65340  -0.65175  -0.64458  -0.62296  -0.60430
 Alpha  occ. eigenvalues --   -0.59737  -0.59302  -0.58769  -0.58143  -0.57554
 Alpha  occ. eigenvalues --   -0.56005  -0.55387  -0.55241  -0.54595  -0.54215
 Alpha  occ. eigenvalues --   -0.53444  -0.52960  -0.52689  -0.52457  -0.52146
 Alpha  occ. eigenvalues --   -0.51903  -0.51511  -0.51279  -0.50781  -0.50049
 Alpha  occ. eigenvalues --   -0.49816  -0.49525  -0.49400  -0.49337  -0.49052
 Alpha  occ. eigenvalues --   -0.48424  -0.48306  -0.47958  -0.47593  -0.47488
 Alpha  occ. eigenvalues --   -0.47025  -0.46449  -0.46150  -0.46117  -0.45915
 Alpha  occ. eigenvalues --   -0.45612  -0.45325  -0.45121  -0.44535  -0.44073
 Alpha  occ. eigenvalues --   -0.43704  -0.43403  -0.43348  -0.43073  -0.42917
 Alpha  occ. eigenvalues --   -0.42454  -0.42327  -0.42090  -0.42004  -0.41481
 Alpha  occ. eigenvalues --   -0.41386  -0.40940  -0.40333  -0.39751  -0.39100
 Alpha  occ. eigenvalues --   -0.38344  -0.38083  -0.37856  -0.37041  -0.36380
 Alpha  occ. eigenvalues --   -0.36252  -0.34420  -0.34099  -0.33414  -0.31635
 Alpha  occ. eigenvalues --   -0.31238  -0.30408  -0.30318  -0.30169  -0.24195
 Alpha  occ. eigenvalues --   -0.21598
 Alpha virt. eigenvalues --   -0.09190  -0.01447   0.00540   0.01667   0.02493
 Alpha virt. eigenvalues --    0.05291   0.05655   0.06372   0.07638   0.08276
 Alpha virt. eigenvalues --    0.08839   0.09235   0.09518   0.10098   0.10767

 Mulliken charges:
               1
     1  Mg   0.802296
     2  C   -0.032593
     3  C   -0.085600
     4  C   -0.075419
     5  C   -0.071881
     6  N   -0.316010
     7  C   -0.021774
     8  C    0.003574
     9  C   -0.062124
    10  C    0.065211
    11  C    0.068866
    12  C    0.056880
    13  C   -0.088902
    14  H    0.008687
    15  N   -0.366231
    16  C    0.169097
    17  C   -0.119011
    18  C   -0.039917
    19  C    0.139873
    20  C    0.062837
    21  C   -0.025295
    22  O   -0.178162
    23  C    0.055163
    24  N   -0.275490
    25  C    0.045015
    26  C   -0.037717
    27  C   -0.018305
    28  C    0.045919
    29  C    0.067384
    30  C    0.004334
    31  C   -0.015027
    32  N   -0.321676
    33  C    0.068655
    34  C   -0.163168
    35  C   -0.034067
    36  C    0.145393
    37  C    0.117511
    38  C    0.064078
    39  O   -0.140890
    40  C    0.005640
    41  C    0.179383
    42  O   -0.202283
    43  O   -0.351627
    44  C    0.165511
    45  H   -0.035501
    46  H   -0.003400
    47  H   -0.032535
    48  H    0.022420
    49  H    0.012076
    50  H    0.010162
    51  H    0.024271
    52  H    0.010335
    53  H    0.019777
    54  H    0.011227
    55  H    0.047279
    56  H    0.015673
    57  H    0.027117
    58  H    0.003188
    59  H    0.032770
    60  H    0.021154
    61  H    0.035934
    62  H    0.021635
    63  H    0.020262
    64  H    0.016444
    65  H    0.019121
    66  H    0.038599
    67  H    0.017352
    68  H    0.021546
    69  H    0.005056
    70  H    0.024916
    71  H    0.022737
    72  H    0.021701
    73  H    0.027859
    74  H    0.018676
    75  H    0.036413
    76  H    0.032594
    77  H    0.035025
    78  H    0.043882
    79  H    0.056097
 Sum of Mulliken charges =  -0.00000

 Dipole moment (field-independent basis, Debye):
    X=             -0.9393    Y=             -2.0876    Z=              2.4349  Tot=              3.3421
 Quadrupole moment (field-independent basis, Debye-Ang):
   XX=           -277.1086   YY=           -227.0023   ZZ=           -257.6922
   XY=            -21.6893   XZ=             -5.4948   YZ=              3.3384

 Normal termination of Gaussian 16 at Tue Oct 12 14:58:37 2021.
