 Gaussian 16, Revision A.03,
 Gaussian 16:  ES64L-G16RevA.03 25-Dec-2016

 -----------------------------------
 #p cam-b3lyp/Def2SVP td=(nstates=5)
 -----------------------------------

 --------------------------------
 TDDFT excited states in gaussian
 --------------------------------
 Symbolic Z-matrix:
 Charge =  0 Multiplicity = 1

                         Standard orientation:
 ---------------------------------------------------------------------
 Center     Atomic      Atomic             Coordinates (Angstroms)
 Number     Number       Type             X           Y           Z
 ---------------------------------------------------------------------
      1         12           0       -9.106600   -0.151194   -0.058679
      2          6           0       -6.941846    2.230925    1.029828
      3          6           0      -11.007424    2.091885   -1.863820
      4          6           0      -11.265862   -2.684315   -0.861331
      5          6           0       -7.464898   -2.511341    2.138001
      6          7           0       -9.090313    1.937964   -0.194330
      7          6           0       -7.935273    2.724777    0.132311
      8          6           0       -7.994612    4.046767   -0.522336
      9          6           0       -9.490912    4.056648   -1.072967
     10          6           0       -9.939798    2.612379   -1.059562
     11          6           0      -10.483151    4.971433   -0.195004
     12          6           0       -6.829866    4.335571   -1.518596
     13          6           0       -6.212149    5.691772   -1.401919
     14          1           0       -7.208449    6.888632   -1.137725
     15          7           0      -10.854006   -0.291313   -1.266781
     16          6           0      -11.435368    0.776645   -1.883098
     17          6           0      -12.563925    0.293253   -2.602075
     18          6           0      -12.644368   -1.142254   -2.417501
     19          6           0      -11.493660   -1.488910   -1.517745
     20          6           0      -13.537106    1.239868   -3.338182
     21          6           0      -13.560337   -2.194300   -2.960222
     22          8           0      -13.617091   -3.392467   -2.661501
     23          6           0      -14.540791   -1.707525   -4.093442
     24          7           0       -9.416029   -2.325923    0.639293
     25          6           0      -10.288762   -3.125549    0.078540
     26          6           0      -10.050014   -4.591167    0.435752
     27          6           0       -8.829032   -4.513993    1.396294
     28          6           0       -8.546877   -3.013016    1.417903
     29          6           0      -11.326142   -5.308575    1.112286
     30          6           0       -7.630099   -5.352883    0.768565
     31          6           0       -6.932122   -4.895192   -0.535990
     32          7           0       -7.624915   -0.125302    1.436360
     33          6           0       -7.058378   -1.151552    2.168521
     34          6           0       -5.888614   -0.572261    2.859798
     35          6           0       -5.745288    0.728011    2.478628
     36          6           0       -6.859607    0.951245    1.590872
     37          6           0       -5.114838   -1.274094    3.922100
     38          6           0       -4.966269    1.959483    2.605564
     39          8           0       -3.975487    2.218816    3.267780
     40          6           0       -5.746505    2.974670    1.660058
     41          6           0       -6.254779    4.064459    2.517776
     42          8           0       -6.983253    3.972634    3.521202
     43          8           0       -5.725705    5.208141    1.954815
     44          6           0       -6.240270    6.459879    2.525448
     45          1           0      -11.603557    2.759590   -2.489083
     46          1           0      -11.922151   -3.465952   -1.251323
     47          1           0       -6.909163   -3.227105    2.746314
     48          1           0       -7.883795    4.757583    0.297523
     49          1           0       -9.465395    4.414373   -2.101830
     50          1           0       -9.966265    5.646782    0.486782
     51          1           0      -10.999245    4.289905    0.481065
     52          1           0      -11.144652    5.411061   -0.940338
     53          1           0       -7.189758    4.235293   -2.542609
     54          1           0       -6.096736    3.573941   -1.253377
     55          1           0       -5.719947    6.016321   -2.317867
     56          1           0       -5.405615    5.893241   -0.696793
     57          1           0      -13.185545    1.635126   -4.291147
     58          1           0      -13.728342    2.004411   -2.585369
     59          1           0      -14.445460    0.739508   -3.673104
     60          1           0      -15.322691   -1.095028   -3.644393
     61          1           0      -14.817140   -2.574666   -4.692994
     62          1           0      -14.051710   -1.121987   -4.872201
     63          1           0       -9.760297   -5.123962   -0.469636
     64          1           0       -9.028369   -4.916358    2.389548
     65          1           0      -11.736307   -5.968187    0.346738
     66          1           0      -12.078643   -4.564957    1.376714
     67          1           0      -11.186938   -5.952866    1.979457
     68          1           0       -7.837745   -6.412134    0.617878
     69          1           0       -6.872238   -5.237396    1.544110
     70          1           0       -5.921701   -4.670077   -0.194429
     71          1           0       -7.431959   -4.049321   -1.006304
     72          1           0       -6.891909   -5.663022   -1.308561
     73          1           0       -4.110777   -0.873308    3.786505
     74          1           0       -5.141390   -2.359145    3.820080
     75          1           0       -5.399891   -0.829901    4.874901
     76          1           0       -4.907147    3.341513    1.069883
     77          1           0       -5.618089    7.206568    2.031193
     78          1           0       -5.971071    6.437468    3.581449
     79          1           0       -7.321601    6.591778    2.482423
     80         12           0        8.428557   -1.004956   -0.471329
     81          6           0       10.577477    1.711253   -0.808309
     82          6           0        5.810777    1.087621   -0.125243
     83          6           0        6.510684   -3.681466    0.292568
     84          6           0       11.205377   -3.045258   -0.343970
     85          7           0        8.255605    1.204383   -0.454982
     86          6           0        9.235917    2.091401   -0.820688
     87          6           0        8.684193    3.463575   -0.906995
     88          6           0        7.178417    3.344585   -0.644610
     89          6           0        7.002317    1.783951   -0.400985
     90          6           0        6.546419    4.217432    0.428528
     91          6           0        9.058598    4.168926   -2.331215
     92          6           0        9.924035    5.450263   -2.293050
     93          1           0        9.638668    6.604860   -3.221690
     94          7           0        6.424423   -1.279132   -0.104568
     95          6           0        5.477252   -0.273570    0.017719
     96          6           0        4.220383   -0.841797    0.345191
     97          6           0        4.393495   -2.246031    0.479953
     98          6           0        5.817295   -2.458014    0.199802
     99          6           0        2.954844    0.101806    0.366732
    100          6           0        3.307646   -3.231410    0.908708
    101          8           0        3.475233   -4.445001    1.102419
    102          6           0        1.922636   -2.770833    1.039638
    103          7           0        8.777778   -3.060059    0.172373
    104          6           0        7.848442   -3.982421    0.313896
    105          6           0        8.471091   -5.339165    0.713496
    106          6           0        9.869024   -5.142601    0.004997
    107          6           0        9.969847   -3.623910   -0.096329
    108          6           0        8.666850   -5.718997    2.227985
    109          6           0       10.067558   -5.847555   -1.421555
    110          6           0        9.153007   -5.474306   -2.515334
    111          7           0       10.566869   -0.800582   -0.508236
    112          6           0       11.600861   -1.756034   -0.459583
    113          6           0       12.862214   -1.093096   -0.555887
    114          6           0       12.543029    0.248309   -0.626477
    115          6           0       11.116390    0.365189   -0.701603
    116          6           0       14.165733   -1.682683   -0.319418
    117          6           0       13.076339    1.501682   -0.887350
    118          8           0       14.242304    1.887683   -1.019889
    119          6           0       11.870168    2.547002   -0.925089
    120          6           0       12.026901    3.377138    0.305912
    121          8           0       12.042621    3.083169    1.482804
    122          8           0       12.196189    4.623566   -0.138864
    123          6           0       12.349367    5.681822    0.912574
    124          1           0        5.030227    1.840223   -0.254610
    125          1           0        5.830339   -4.529620    0.386459
    126          1           0       12.070519   -3.710826   -0.368129
    127          1           0        9.172748    4.009172   -0.100646
    128          1           0        6.642167    3.552693   -1.570212
    129          1           0        6.607425    3.481218    1.229140
    130          1           0        5.552838    4.603799    0.200638
    131          1           0        7.065029    5.111701    0.773039
    132          1           0        8.134962    4.372024   -2.872393
    133          1           0        9.687041    3.551226   -2.973274
    134          1           0       10.925597    5.142540   -2.594908
    135          1           0       10.056038    5.824919   -1.278880
    136          1           0        2.440930   -0.034372    1.318095
    137          1           0        2.398356   -0.413682   -0.416110
    138          1           0        3.110230    1.179433    0.314056
    139          1           0        1.848183   -1.951873    1.753741
    140          1           0        1.408854   -3.551605    1.599961
    141          1           0        1.402640   -2.584533    0.099607
    142          1           0        8.004391   -6.117553    0.109673
    143          1           0       10.571413   -5.604139    0.698658
    144          1           0        8.994747   -4.910497    2.880264
    145          1           0        9.396101   -6.527829    2.169837
    146          1           0        7.736206   -6.093861    2.654811
    147          1           0        9.974933   -6.933189   -1.382550
    148          1           0       10.985170   -5.509750   -1.903107
    149          1           0        9.580408   -4.543343   -2.885164
    150          1           0        8.106552   -5.267504   -2.289072
    151          1           0        9.090100   -6.126644   -3.385689
    152          1           0       14.257251   -1.669945    0.767313
    153          1           0       15.009177   -1.146139   -0.752996
    154          1           0       14.283243   -2.669799   -0.767853
    155          1           0       11.819094    3.115849   -1.853540
    156          1           0       11.396192    6.210904    0.901086
    157          1           0       13.202483    6.316249    0.673232
    158          1           0       12.479741    5.350087    1.943034
 ---------------------------------------------------------------------

 SCF Done:  E(RCAM-B3LYP) =  -4069.78258318     A.U. after   19 cycles

 Excitation energies and oscillator strengths:

 Excited State   1:      Singlet-A      1.6902 eV  733.54 nm  f=0.6823  <S**2>=0.000
     309 -> 315        0.14415
     310 -> 316       -0.10630
     311 -> 313       -0.42546
     312 -> 314        0.53759
 This state for optimization and/or second-order correction.
 Total Energy, E(TD-HF/TD-DFT) =  -4069.72046906
 Copying the excited state density for this state as the 1-particle RhoCI density.

 Excited State   2:      Singlet-A      1.7133 eV  723.67 nm  f=0.1071  <S**2>=0.000
     309 -> 315        0.11751
     310 -> 316        0.13915
     311 -> 313        0.53821
     312 -> 314        0.42315

 Excited State   3:      Singlet-A      2.1774 eV  569.42 nm  f=0.1316  <S**2>=0.000
     310 -> 313        0.65132
     311 -> 316       -0.26340

 Excited State   4:      Singlet-A      2.2671 eV  546.89 nm  f=0.0455  <S**2>=0.000
     309 -> 314        0.60930
     312 -> 315       -0.34908

 Excited State   5:      Singlet-A      2.7728 eV  447.14 nm  f=0.0000  <S**2>=0.000
     312 -> 313        0.70679

 The electronic state is 1-A.
 Alpha  occ. eigenvalues --  -46.89409 -46.89277 -19.25852 -19.24995 -19.20448
 Alpha  occ. eigenvalues --  -19.19763 -19.19637 -19.19018 -19.18586 -19.18150
 Alpha  occ. eigenvalues --  -14.42453 -14.42343 -14.41939 -14.41762 -14.39666
 Alpha  occ. eigenvalues --  -14.39638 -14.39632 -14.38923 -10.39714 -10.38558
 Alpha  occ. eigenvalues --  -10.35842 -10.35615 -10.34988 -10.34097 -10.32149
 Alpha  occ. eigenvalues --  -10.32029 -10.31938 -10.31652 -10.31361 -10.31138
 Alpha  occ. eigenvalues --  -10.31023 -10.30558 -10.30493 -10.30317 -10.30221
 Alpha  occ. eigenvalues --  -10.30059 -10.30049 -10.29741 -10.29722 -10.29392
 Alpha  occ. eigenvalues --  -10.29297 -10.29034 -10.28982 -10.28917 -10.28587
 Alpha  occ. eigenvalues --  -10.28504 -10.28501 -10.28492 -10.28473 -10.28335
 Alpha  occ. eigenvalues --  -10.28250 -10.28084 -10.28066 -10.27995 -10.27879
 Alpha  occ. eigenvalues --  -10.27830 -10.27805 -10.27758 -10.27751 -10.27748
 Alpha  occ. eigenvalues --  -10.27612 -10.27554 -10.27535 -10.27496 -10.27439
 Alpha  occ. eigenvalues --  -10.27425 -10.27425 -10.27361 -10.27087 -10.26746
 Alpha  occ. eigenvalues --  -10.26595 -10.26433 -10.26415 -10.26381 -10.26344
 Alpha  occ. eigenvalues --  -10.26172 -10.25983 -10.25972 -10.25951 -10.25743
 Alpha  occ. eigenvalues --  -10.25742 -10.25603 -10.25461 -10.24904 -10.24707
 Alpha  occ. eigenvalues --  -10.24590  -3.17813  -3.17686  -1.92716  -1.92588
 Alpha  occ. eigenvalues --   -1.92258  -1.92120  -1.92114  -1.92003  -1.16955
 Alpha  occ. eigenvalues --   -1.16161  -1.10412  -1.09741  -1.09044  -1.08503
 Alpha  occ. eigenvalues --   -1.07666  -1.07305  -1.05361  -1.05274  -1.04193
 Alpha  occ. eigenvalues --   -1.03940  -1.03318  -1.03052  -1.02564  -1.01878
 Alpha  occ. eigenvalues --   -0.92558  -0.92152  -0.89260  -0.89165  -0.88961
 Alpha  occ. eigenvalues --   -0.88688  -0.88312  -0.88144  -0.87901  -0.87534
 Alpha  occ. eigenvalues --   -0.87445  -0.87058  -0.86773  -0.86402  -0.84820
 Alpha  occ. eigenvalues --   -0.84576  -0.84244  -0.83536  -0.83016  -0.82561
 Alpha  occ. eigenvalues --   -0.81921  -0.81706  -0.81496  -0.81364  -0.80673
 Alpha  occ. eigenvalues --   -0.80114  -0.78672  -0.78236  -0.77576  -0.77530
 Alpha  occ. eigenvalues --   -0.77353  -0.77326  -0.75973  -0.75877  -0.75311
 Alpha  occ. eigenvalues --   -0.75119  -0.73413  -0.72628  -0.72338  -0.71614
 Alpha  occ. eigenvalues --   -0.70000  -0.69424  -0.69332  -0.69039  -0.68538
 Alpha  occ. eigenvalues --   -0.67720  -0.67594  -0.67149  -0.65689  -0.65393
 Alpha  occ. eigenvalues --   -0.65329  -0.65176  -0.64851  -0.64763  -0.64546
 Alpha  occ. eigenvalues --   -0.63918  -0.62720  -0.62005  -0.60458  -0.60358
 Alpha  occ. eigenvalues --   -0.59863  -0.59591  -0.59246  -0.59083  -0.58936
 Alpha  occ. eigenvalues --   -0.58559  -0.58200  -0.58158  -0.57862  -0.57640
 Alpha  occ. eigenvalues --   -0.56359  -0.56078  -0.55723  -0.55711  -0.55395
 Alpha  occ. eigenvalues --   -0.55246  -0.55032  -0.54993  -0.54774  -0.54652
 Alpha  occ. eigenvalues --   -0.54578  -0.53722  -0.53360  -0.53343  -0.53321
 Alpha  occ. eigenvalues --   -0.53167  -0.52910  -0.52624  -0.52544  -0.52427
 Alpha  occ. eigenvalues --   -0.52270  -0.52118  -0.52096  -0.51844  -0.51672
 Alpha  occ. eigenvalues --   -0.51219  -0.51108  -0.51048  -0.51039  -0.50256
 Alpha  occ. eigenvalues --   -0.50035  -0.49827  -0.49741  -0.49667  -0.49518
 Alpha  occ. eigenvalues --   -0.49390  -0.49128  -0.49075  -0.48930  -0.48717
 Alpha  occ. eigenvalues --   -0.48673  -0.48637  -0.48441  -0.48289  -0.48276
 Alpha  occ. eigenvalues --   -0.47995  -0.47838  -0.47545  -0.47398  -0.47284
 Alpha  occ. eigenvalues --   -0.47037  -0.46995  -0.46896  -0.46771  -0.46612
 Alpha  occ. eigenvalues --   -0.46280  -0.46183  -0.46056  -0.45927  -0.45771
 Alpha  occ. eigenvalues --   -0.45756  -0.45350  -0.45174  -0.44927  -0.44715
 Alpha  occ. eigenvalues --   -0.44572  -0.44419  -0.44089  -0.44062  -0.44003
 Alpha  occ. eigenvalues --   -0.43664  -0.43631  -0.43369  -0.43297  -0.43144
 Alpha  occ. eigenvalues --   -0.43123  -0.43076  -0.42930  -0.42884  -0.42448
 Alpha  occ. eigenvalues --   -0.42447  -0.42307  -0.42238  -0.42138  -0.42089
 Alpha  occ. eigenvalues --   -0.42044  -0.41821  -0.41757  -0.41714  -0.41529
 Alpha  occ. eigenvalues --   -0.41013  -0.40916  -0.40895  -0.40690  -0.40668
 Alpha  occ. eigenvalues --   -0.40109  -0.39931  -0.39676  -0.39481  -0.38885
 Alpha  occ. eigenvalues --   -0.38017  -0.38008  -0.37974  -0.37662  -0.37634
 Alpha  occ. eigenvalues --   -0.37313  -0.36965  -0.36896  -0.36568  -0.36423
 Alpha  occ. eigenvalues --   -0.36319  -0.36065  -0.34855  -0.34415  -0.34362
 Alpha  occ. eigenvalues --   -0.34250  -0.33638  -0.33413  -0.31413  -0.31401
 Alpha  occ. eigenvalues --   -0.31296  -0.31119  -0.30956  -0.30551  -0.30455
 Alpha  occ. eigenvalues --   -0.30398  -0.30037  -0.29921  -0.24569  -0.23953
 Alpha  occ. eigenvalues --   -0.21375  -0.21114
 Alpha virt. eigenvalues --   -0.08911  -0.08643  -0.02512  -0.01555  -0.00407
 Alpha virt. eigenvalues --    0.00351   0.01782   0.02001   0.02066   0.02527
 Alpha virt. eigenvalues --    0.04544   0.04743   0.05280   0.05402   0.06145

 Mulliken charges:
               1
     1  Mg   0.798294
     2  C    0.018556
     3  C   -0.098358
     4  C   -0.026303
     5  C   -0.072620
     6  N   -0.371540
     7  C   -0.042187
     8  C   -0.004755
     9  C   -0.083406
    10  C    0.109841
    11  C    0.079473
    12  C    0.115928
    13  C   -0.087259
    14  H   -0.012247
    15  N   -0.377641
    16  C    0.154520
    17  C   -0.132948
    18  C   -0.037991
    19  C    0.104499
    20  C    0.104439
    21  C    0.019177
    22  O   -0.205290
    23  C    0.005608
    24  N   -0.193017
    25  C   -0.005728
    26  C   -0.021648
    27  C    0.004405
    28  C    0.005341
    29  C    0.043565
    30  C   -0.020051
    31  C   -0.000328
    32  N   -0.317095
    33  C    0.124211
    34  C   -0.223384
    35  C    0.035098
    36  C    0.083060
    37  C    0.128137
    38  C    0.059268
    39  O   -0.158071
    40  C   -0.043512
    41  C    0.209641
    42  O   -0.229881
    43  O   -0.341999
    44  C    0.182837
    45  H   -0.025248
    46  H   -0.002376
    47  H   -0.020869
    48  H    0.011581
    49  H    0.000569
    50  H    0.022064
    51  H    0.024109
    52  H    0.028583
    53  H    0.014491
    54  H    0.016553
    55  H    0.020005
    56  H    0.039657
    57  H    0.031644
    58  H    0.040714
    59  H   -0.005912
    60  H    0.059250
    61  H    0.026123
    62  H    0.020814
    63  H    0.023944
    64  H    0.011650
    65  H    0.021606
    66  H    0.027462
    67  H    0.019427
    68  H    0.016851
    69  H   -0.002811
    70  H    0.022354
    71  H    0.020078
    72  H    0.016113
    73  H    0.022044
    74  H    0.019435
    75  H    0.042925
    76  H    0.037974
    77  H    0.040580
    78  H    0.037838
    79  H    0.042134
    80  Mg   0.804129
    81  C   -0.001736
    82  C   -0.056177
    83  C   -0.056679
    84  C   -0.102736
    85  N   -0.309779
    86  C   -0.028316
    87  C   -0.016206
    88  C   -0.002759
    89  C   -0.048611
    90  C    0.052525
    91  C    0.041385
    92  C   -0.079652
    93  H    0.019469
    94  N   -0.378264
    95  C    0.181484
    96  C   -0.165541
    97  C   -0.026942
    98  C    0.105923
    99  C    0.127937
   100  C    0.003960
   101  O   -0.217427
   102  C    0.053902
   103  N   -0.227563
   104  C    0.004416
   105  C    0.006895
   106  C   -0.066110
   107  C    0.078549
   108  C    0.091342
   109  C    0.063909
   110  C   -0.038594
   111  N   -0.322678
   112  C    0.102135
   113  C   -0.119119
   114  C    0.060234
   115  C    0.066328
   116  C    0.105530
   117  C    0.014012
   118  O   -0.191678
   119  C   -0.025005
   120  C    0.199682
   121  O   -0.212930
   122  O   -0.318215
   123  C    0.160218
   124  H   -0.030603
   125  H   -0.013200
   126  H   -0.028128
   127  H    0.022382
   128  H    0.006966
   129  H    0.028045
   130  H    0.020242
   131  H    0.018022
   132  H    0.017478
   133  H    0.019029
   134  H    0.036208
   135  H    0.017910
   136  H    0.019337
   137  H    0.038394
   138  H    0.030969
   139  H    0.020534
   140  H    0.018863
   141  H    0.052224
   142  H   -0.008771
   143  H   -0.003829
   144  H    0.027987
   145  H    0.020051
   146  H    0.028546
   147  H    0.010558
   148  H    0.003779
   149  H    0.002588
   150  H    0.016224
   151  H    0.014982
   152  H    0.051047
   153  H    0.031276
   154  H    0.014269
   155  H    0.028724
   156  H    0.030177
   157  H    0.050138
   158  H    0.056333
 Sum of Mulliken charges =  -0.00000

 Dipole moment (field-independent basis, Debye):
    X=             -4.5869    Y=              2.0904    Z=             -5.5960  Tot=              7.5316
 Quadrupole moment (field-independent basis, Debye-Ang):
   XX=           -583.9131   YY=           -470.6052   ZZ=           -521.2959
   XY=            -49.9696   XZ=             22.1232   YZ=            -14.5566

 Normal termination of Gaussian 16 at Tue Sep 14 15:08:54 2021.
