 Gaussian 16, Revision A.03,
 Gaussian 16:  ES64L-G16RevA.03 25-Dec-2016

 -----------------------------------
 #p cam-b3lyp/Def2SVP td=(nstates=5)
 -----------------------------------

 --------------------------------
 TDDFT excited states in gaussian
 --------------------------------
 Symbolic Z-matrix:
 Charge =  0 Multiplicity = 1

                         Standard orientation:
 ---------------------------------------------------------------------
 Center     Atomic      Atomic             Coordinates (Angstroms)
 Number     Number       Type             X           Y           Z
 ---------------------------------------------------------------------
      1         12           0       -9.006727    0.173437    0.162024
      2          6           0       -6.237557   -2.116640    0.238134
      3          6           0       -6.837210    2.391545   -1.553807
      4          6           0      -11.517255    2.600140    0.093649
      5          6           0      -10.827462   -1.830364    2.119065
      6          7           0       -6.649450    0.158750   -0.388813
      7          6           0       -5.830175   -0.913990   -0.352440
      8          6           0       -4.407350   -0.519202   -0.888998
      9          6           0       -4.643225    0.994337   -1.235709
     10          6           0       -6.170821    1.208689   -1.133522
     11          6           0       -3.809906    1.953722   -0.316073
     12          6           0       -3.965280   -1.342094   -2.098829
     13          6           0       -2.553140   -1.828210   -2.086323
     14          1           0       -2.076376   -2.743265   -3.223542
     15          7           0       -9.254500    2.086468   -0.766992
     16          6           0       -8.241652    2.798973   -1.400323
     17          6           0       -8.804200    4.042334   -1.888772
     18          6           0      -10.142414    4.098387   -1.536052
     19          6           0      -10.349322    2.923076   -0.624340
     20          6           0       -8.012817    5.145137   -2.531148
     21          6           0      -11.239184    5.214342   -1.779264
     22          8           0      -12.396517    5.197334   -1.438084
     23          6           0      -10.893856    6.383600   -2.675830
     24          7           0      -10.794093    0.453904    1.071270
     25          6           0      -11.691791    1.481209    0.940220
     26          6           0      -12.872236    1.355966    1.931540
     27          6           0      -12.779646   -0.161850    2.388742
     28          6           0      -11.375163   -0.550241    1.787712
     29          6           0      -12.817359    2.409968    3.083332
     30          6           0      -13.933501   -1.068276    1.861829
     31          6           0      -13.944250   -1.317453    0.355309
     32          7           0       -8.677968   -1.561527    1.044497
     33          6           0       -9.570313   -2.362609    1.810188
     34          6           0       -8.919892   -3.604145    2.223423
     35          6           0       -7.664397   -3.559607    1.591085
     36          6           0       -7.551043   -2.333806    0.883210
     37          6           0       -9.512121   -4.652857    3.045298
     38          6           0       -6.440356   -4.339663    1.439645
     39          8           0       -6.179645   -5.460426    1.843875
     40          6           0       -5.405565   -3.396887    0.619319
     41          6           0       -5.033057   -4.354340   -0.515235
     42          8           0       -5.727925   -4.713953   -1.482688
     43          8           0       -3.821074   -4.830372   -0.288776
     44          6           0       -3.096498   -5.575584   -1.396735
     45          1           0       -6.183575    3.035142   -2.145746
     46          1           0      -12.355806    3.299813    0.132319
     47          1           0      -11.503197   -2.467299    2.693137
     48          1           0       -3.734992   -0.771621   -0.069737
     49          1           0       -4.391587    1.213568   -2.274226
     50          1           0       -3.160286    2.662624   -0.829442
     51          1           0       -3.299833    1.449958    0.505210
     52          1           0       -4.377324    2.707292    0.230530
     53          1           0       -3.828084   -0.556926   -2.842538
     54          1           0       -4.711840   -2.069055   -2.420535
     55          1           0       -2.148178   -2.302976   -1.191151
     56          1           0       -1.979595   -0.908022   -2.198229
     57          1           0       -6.994109    4.826925   -2.751181
     58          1           0       -7.944010    6.066240   -1.950321
     59          1           0       -8.376998    5.482939   -3.501525
     60          1           0      -10.625347    6.068737   -3.684168
     61          1           0      -10.088593    6.855639   -2.112865
     62          1           0      -11.756724    7.040745   -2.567416
     63          1           0      -13.738507    1.645432    1.335615
     64          1           0      -12.529649   -0.357265    3.431768
     65          1           0      -13.611154    3.153386    3.010862
     66          1           0      -11.871786    2.916790    3.272799
     67          1           0      -12.960510    1.768973    3.953425
     68          1           0      -14.851492   -0.744706    2.352638
     69          1           0      -13.788121   -2.058313    2.293690
     70          1           0      -13.216177   -0.752979   -0.226117
     71          1           0      -14.931424   -1.003794    0.016798
     72          1           0      -13.667123   -2.322440    0.039112
     73          1           0       -8.859566   -5.501641    3.250837
     74          1           0      -10.393048   -4.978868    2.492461
     75          1           0       -9.850718   -4.189469    3.973058
     76          1           0       -4.469873   -3.243318    1.156874
     77          1           0       -2.045014   -5.579542   -1.108716
     78          1           0       -3.133881   -5.054880   -2.353108
     79          1           0       -3.492567   -6.575131   -1.579729
     80         12           0        8.765239    0.634023    0.351007
     81          6           0        7.426776   -1.514574   -2.101572
     82          6           0        7.782616    3.198174   -1.573629
     83          6           0        9.574536    2.506546    2.904301
     84          6           0        9.020031   -2.262663    2.428208
     85          7           0        7.680100    0.793253   -1.597421
     86          6           0        7.294527   -0.167403   -2.470470
     87          6           0        6.705142    0.378790   -3.755109
     88          6           0        7.112570    1.900789   -3.619277
     89          6           0        7.549505    2.027088   -2.174506
     90          6           0        8.241934    2.381431   -4.621206
     91          6           0        5.163775    0.208258   -4.110065
     92          6           0        4.123959   -0.203417   -3.034231
     93          1           0        2.666667    0.379978   -3.155549
     94          7           0        8.793916    2.641927    0.532470
     95          6           0        8.261503    3.528861   -0.297530
     96          6           0        8.342156    4.879166    0.323227
     97          6           0        9.048085    4.671500    1.619257
     98          6           0        9.148468    3.215793    1.727736
     99          6           0        7.967903    6.154871   -0.382043
    100          6           0        9.410871    5.749472    2.606883
    101          8           0        9.184517    6.920160    2.310972
    102          6           0       10.009422    5.508805    4.041787
    103          7           0        9.145811    0.189689    2.496431
    104          6           0        9.601204    1.177685    3.186071
    105          6           0       10.087951    0.596203    4.587531
    106          6           0        9.656402   -0.865763    4.454890
    107          6           0        9.214171   -1.012831    3.011724
    108          6           0       11.558719    0.771067    5.001095
    109          6           0        8.355267   -1.240100    5.336723
    110          6           0        8.575028   -2.223669    6.500747
    111          7           0        8.284958   -1.434624    0.285277
    112          6           0        8.548947   -2.486106    1.122665
    113          6           0        8.341268   -3.779410    0.421032
    114          6           0        7.765850   -3.457496   -0.840700
    115          6           0        7.875886   -2.000249   -0.876082
    116          6           0        8.486701   -5.197831    1.016051
    117          6           0        7.196707   -3.930466   -2.058321
    118          8           0        6.816813   -5.042008   -2.464612
    119          6           0        7.018048   -2.691915   -2.972815
    120          6           0        7.845846   -2.950563   -4.235022
    121          8           0        7.545169   -3.236513   -5.363496
    122          8           0        9.168827   -2.591576   -3.955080
    123          6           0       10.155110   -2.646634   -5.078497
    124          1           0        7.444670    4.013502   -2.216954
    125          1           0        9.872319    3.175951    3.714996
    126          1           0        9.350650   -3.143254    2.982268
    127          1           0        7.319544   -0.055611   -4.543512
    128          1           0        6.244307    2.524743   -3.831678
    129          1           0        8.606969    1.550563   -5.224019
    130          1           0        9.056812    2.606263   -3.933947
    131          1           0        7.877628    3.225492   -5.207107
    132          1           0        5.110113   -0.508299   -4.929782
    133          1           0        4.801479    1.136221   -4.553773
    134          1           0        4.544086    0.122372   -2.082650
    135          1           0        3.856301   -1.259235   -3.061894
    136          1           0        8.340472    7.048526    0.118189
    137          1           0        6.890428    6.108804   -0.544622
    138          1           0        8.379855    6.023590   -1.383167
    139          1           0       10.897753    4.892650    4.185817
    140          1           0        9.261998    4.978694    4.632086
    141          1           0       10.270671    6.442883    4.538294
    142          1           0        9.582931    1.087103    5.418755
    143          1           0       10.366565   -1.650567    4.717691
    144          1           0       12.126964    1.326427    4.254752
    145          1           0       12.031205   -0.185955    5.224907
    146          1           0       11.687835    1.367971    5.903948
    147          1           0        7.578068   -1.704747    4.731501
    148          1           0        7.977096   -0.289103    5.712438
    149          1           0        7.735913   -2.883223    6.723437
    150          1           0        8.705853   -1.595470    7.381812
    151          1           0        9.446339   -2.795732    6.181670
    152          1           0        8.565324   -5.237178    2.102007
    153          1           0        9.414930   -5.569586    0.582821
    154          1           0        7.684197   -5.816933    0.615810
    155          1           0        5.966864   -2.590269   -3.240563
    156          1           0       10.004473   -3.381557   -5.868951
    157          1           0       11.077444   -2.946727   -4.581516
    158          1           0       10.416263   -1.718654   -5.587582
 ---------------------------------------------------------------------

 SCF Done:  E(RCAM-B3LYP) =  -4069.77937033     A.U. after   19 cycles

 Excitation energies and oscillator strengths:

 Excited State   1:      Singlet-A      1.6506 eV  751.13 nm  f=0.3301  <S**2>=0.000
     310 -> 316       -0.18367
     312 -> 314        0.68445
     310 <- 316       -0.11238
 This state for optimization and/or second-order correction.
 Total Energy, E(TD-HF/TD-DFT) =  -4069.71871081
 Copying the excited state density for this state as the 1-particle RhoCI density.

 Excited State   2:      Singlet-A      1.7693 eV  700.77 nm  f=0.4259  <S**2>=0.000
     309 -> 315       -0.18500
     311 -> 313        0.68305
     309 <- 315       -0.10626

 Excited State   3:      Singlet-A      2.2168 eV  559.29 nm  f=0.0952  <S**2>=0.000
     310 -> 314        0.62581
     312 -> 316        0.32005

 Excited State   4:      Singlet-A      2.2837 eV  542.92 nm  f=0.0978  <S**2>=0.000
     309 -> 313        0.63697
     311 -> 315        0.29636

 Excited State   5:      Singlet-A      2.6879 eV  461.27 nm  f=0.0000  <S**2>=0.000
     312 -> 313        0.70699

 The electronic state is 1-A.
 Alpha  occ. eigenvalues --  -46.90201 -46.88204 -19.24769 -19.24717 -19.20540
 Alpha  occ. eigenvalues --  -19.19596 -19.19439 -19.19260 -19.18727 -19.17850
 Alpha  occ. eigenvalues --  -14.42455 -14.42373 -14.41968 -14.41456 -14.40568
 Alpha  occ. eigenvalues --  -14.40297 -14.40016 -14.39588 -10.40006 -10.38316
 Alpha  occ. eigenvalues --  -10.35821 -10.35732 -10.35514 -10.35286 -10.31989
 Alpha  occ. eigenvalues --  -10.31974 -10.31667 -10.31307 -10.31289 -10.31247
 Alpha  occ. eigenvalues --  -10.31156 -10.31138 -10.31001 -10.30948 -10.30899
 Alpha  occ. eigenvalues --  -10.30851 -10.30540 -10.30304 -10.30250 -10.30236
 Alpha  occ. eigenvalues --  -10.30000 -10.29916 -10.29820 -10.29653 -10.29109
 Alpha  occ. eigenvalues --  -10.28964 -10.28885 -10.28749 -10.28644 -10.28593
 Alpha  occ. eigenvalues --  -10.28489 -10.28337 -10.28293 -10.28293 -10.28273
 Alpha  occ. eigenvalues --  -10.28200 -10.28179 -10.28048 -10.28017 -10.27957
 Alpha  occ. eigenvalues --  -10.27765 -10.27728 -10.27499 -10.27448 -10.27378
 Alpha  occ. eigenvalues --  -10.27285 -10.27216 -10.27201 -10.26964 -10.26812
 Alpha  occ. eigenvalues --  -10.26764 -10.26731 -10.26685 -10.26529 -10.26484
 Alpha  occ. eigenvalues --  -10.26476 -10.26274 -10.26118 -10.26002 -10.25951
 Alpha  occ. eigenvalues --  -10.25938 -10.25867 -10.25639 -10.25524 -10.25330
 Alpha  occ. eigenvalues --  -10.25329  -3.18679  -3.16895  -1.93567  -1.93133
 Alpha  occ. eigenvalues --   -1.92982  -1.91780  -1.91367  -1.91200  -1.16181
 Alpha  occ. eigenvalues --   -1.15778  -1.11379  -1.09930  -1.09697  -1.09460
 Alpha  occ. eigenvalues --   -1.07401  -1.06869  -1.05130  -1.04965  -1.04145
 Alpha  occ. eigenvalues --   -1.03703  -1.03439  -1.03031  -1.02128  -1.01612
 Alpha  occ. eigenvalues --   -0.93720  -0.90761  -0.89930  -0.89124  -0.88949
 Alpha  occ. eigenvalues --   -0.88785  -0.88672  -0.88425  -0.87912  -0.87266
 Alpha  occ. eigenvalues --   -0.87029  -0.86871  -0.86357  -0.85547  -0.85032
 Alpha  occ. eigenvalues --   -0.84066  -0.84015  -0.83492  -0.83053  -0.82249
 Alpha  occ. eigenvalues --   -0.81932  -0.81427  -0.80934  -0.80903  -0.80677
 Alpha  occ. eigenvalues --   -0.80067  -0.78643  -0.78049  -0.77829  -0.77213
 Alpha  occ. eigenvalues --   -0.77186  -0.76838  -0.76811  -0.75856  -0.75503
 Alpha  occ. eigenvalues --   -0.75036  -0.73453  -0.72531  -0.72504  -0.71553
 Alpha  occ. eigenvalues --   -0.69988  -0.69701  -0.69451  -0.68793  -0.68647
 Alpha  occ. eigenvalues --   -0.67671  -0.67414  -0.66975  -0.66173  -0.65849
 Alpha  occ. eigenvalues --   -0.65643  -0.65375  -0.65036  -0.65010  -0.64469
 Alpha  occ. eigenvalues --   -0.63952  -0.63288  -0.61633  -0.60730  -0.60335
 Alpha  occ. eigenvalues --   -0.59594  -0.59512  -0.59186  -0.58838  -0.58697
 Alpha  occ. eigenvalues --   -0.58225  -0.57606  -0.57442  -0.57273  -0.56502
 Alpha  occ. eigenvalues --   -0.56112  -0.56011  -0.55839  -0.55554  -0.55369
 Alpha  occ. eigenvalues --   -0.55231  -0.54931  -0.54656  -0.54583  -0.54064
 Alpha  occ. eigenvalues --   -0.53844  -0.53736  -0.53246  -0.53121  -0.53099
 Alpha  occ. eigenvalues --   -0.52949  -0.52760  -0.52588  -0.52336  -0.52157
 Alpha  occ. eigenvalues --   -0.52037  -0.51927  -0.51660  -0.51407  -0.51374
 Alpha  occ. eigenvalues --   -0.51245  -0.50874  -0.50795  -0.50731  -0.50172
 Alpha  occ. eigenvalues --   -0.50026  -0.49933  -0.49721  -0.49621  -0.49516
 Alpha  occ. eigenvalues --   -0.49192  -0.49159  -0.49124  -0.49017  -0.48850
 Alpha  occ. eigenvalues --   -0.48666  -0.48639  -0.48522  -0.48421  -0.48334
 Alpha  occ. eigenvalues --   -0.48047  -0.48022  -0.47754  -0.47561  -0.47410
 Alpha  occ. eigenvalues --   -0.47370  -0.47361  -0.47062  -0.46777  -0.46634
 Alpha  occ. eigenvalues --   -0.46568  -0.46413  -0.46237  -0.46228  -0.46094
 Alpha  occ. eigenvalues --   -0.46088  -0.45728  -0.45663  -0.45486  -0.45413
 Alpha  occ. eigenvalues --   -0.45113  -0.45013  -0.44805  -0.44336  -0.44324
 Alpha  occ. eigenvalues --   -0.44079  -0.44069  -0.43872  -0.43712  -0.43544
 Alpha  occ. eigenvalues --   -0.43425  -0.43420  -0.43252  -0.43037  -0.42890
 Alpha  occ. eigenvalues --   -0.42859  -0.42813  -0.42420  -0.42381  -0.42202
 Alpha  occ. eigenvalues --   -0.42152  -0.42039  -0.41722  -0.41606  -0.41355
 Alpha  occ. eigenvalues --   -0.41290  -0.41075  -0.40803  -0.40786  -0.40294
 Alpha  occ. eigenvalues --   -0.40090  -0.40082  -0.39484  -0.39369  -0.39071
 Alpha  occ. eigenvalues --   -0.38999  -0.38550  -0.38340  -0.37959  -0.37806
 Alpha  occ. eigenvalues --   -0.37372  -0.37056  -0.36785  -0.36527  -0.36513
 Alpha  occ. eigenvalues --   -0.35939  -0.35507  -0.35143  -0.34391  -0.33804
 Alpha  occ. eigenvalues --   -0.33778  -0.33023  -0.32598  -0.32043  -0.31546
 Alpha  occ. eigenvalues --   -0.31349  -0.31176  -0.31092  -0.30901  -0.30697
 Alpha  occ. eigenvalues --   -0.30269  -0.29892  -0.29404  -0.24626  -0.24016
 Alpha  occ. eigenvalues --   -0.21666  -0.20869
 Alpha virt. eigenvalues --   -0.09045  -0.08610  -0.02164  -0.01944  -0.00752
 Alpha virt. eigenvalues --    0.00749   0.01064   0.01737   0.02479   0.03503
 Alpha virt. eigenvalues --    0.04051   0.04820   0.05257   0.05286   0.05455

 Mulliken charges:
               1
     1  Mg   0.847154
     2  C    0.045429
     3  C   -0.060515
     4  C   -0.047824
     5  C   -0.098917
     6  N   -0.248861
     7  C   -0.052954
     8  C   -0.041030
     9  C   -0.032654
    10  C    0.025036
    11  C    0.062030
    12  C    0.091650
    13  C   -0.097821
    14  H    0.017433
    15  N   -0.370667
    16  C    0.163294
    17  C   -0.136155
    18  C   -0.047689
    19  C    0.113875
    20  C    0.101040
    21  C    0.008259
    22  O   -0.184882
    23  C    0.055734
    24  N   -0.324663
    25  C    0.018106
    26  C   -0.032805
    27  C   -0.028947
    28  C    0.038297
    29  C    0.074332
    30  C    0.042246
    31  C    0.003871
    32  N   -0.436335
    33  C    0.150881
    34  C   -0.153057
    35  C    0.006829
    36  C    0.125925
    37  C    0.128445
    38  C    0.055297
    39  O   -0.163210
    40  C   -0.066519
    41  C    0.185998
    42  O   -0.258990
    43  O   -0.310250
    44  C    0.186384
    45  H   -0.026705
    46  H   -0.004692
    47  H   -0.031421
    48  H    0.015223
    49  H    0.010078
    50  H    0.010993
    51  H    0.016606
    52  H    0.004396
    53  H   -0.000628
    54  H    0.045796
    55  H    0.027337
    56  H    0.015682
    57  H   -0.001731
    58  H    0.033465
    59  H    0.015739
    60  H    0.054882
    61  H    0.014207
    62  H    0.026369
    63  H    0.013811
    64  H    0.016966
    65  H    0.025914
    66  H    0.025144
    67  H    0.002732
    68  H    0.013402
    69  H   -0.002178
    70  H    0.021678
    71  H    0.022651
    72  H    0.019923
    73  H    0.040171
    74  H    0.029307
    75  H    0.021787
    76  H    0.037402
    77  H    0.040678
    78  H    0.037929
    79  H    0.054272
    80  Mg   0.823331
    81  C   -0.025009
    82  C   -0.082280
    83  C   -0.031213
    84  C   -0.095330
    85  N   -0.272489
    86  C   -0.081039
    87  C    0.045157
    88  C   -0.108009
    89  C    0.036400
    90  C    0.079858
    91  C    0.047722
    92  C   -0.093695
    93  H    0.007542
    94  N   -0.388543
    95  C    0.149181
    96  C   -0.158243
    97  C   -0.043674
    98  C    0.147648
    99  C    0.134820
   100  C    0.013385
   101  O   -0.209485
   102  C    0.034082
   103  N   -0.199545
   104  C    0.025696
   105  C   -0.006843
   106  C   -0.076326
   107  C    0.051468
   108  C    0.059847
   109  C   -0.001757
   110  C    0.015433
   111  N   -0.315939
   112  C    0.113980
   113  C   -0.179361
   114  C    0.031469
   115  C    0.134960
   116  C    0.119671
   117  C    0.021362
   118  O   -0.182501
   119  C   -0.017460
   120  C    0.214429
   121  O   -0.175833
   122  O   -0.370379
   123  C    0.173344
   124  H   -0.036984
   125  H   -0.077568
   126  H   -0.023808
   127  H    0.013274
   128  H    0.010454
   129  H    0.014121
   130  H    0.017192
   131  H    0.032755
   132  H    0.020262
   133  H    0.020810
   134  H    0.051657
   135  H    0.052576
   136  H    0.053502
   137  H    0.016817
   138  H    0.015983
   139  H    0.036960
   140  H    0.036731
   141  H    0.025393
   142  H    0.009893
   143  H    0.001299
   144  H    0.012026
   145  H    0.015002
   146  H    0.005446
   147  H    0.019487
   148  H    0.001030
   149  H    0.021347
   150  H    0.016010
   151  H    0.009427
   152  H    0.021520
   153  H    0.031615
   154  H    0.046477
   155  H    0.037928
   156  H    0.048915
   157  H    0.026655
   158  H    0.029980
 Sum of Mulliken charges =  -0.00000

 Dipole moment (field-independent basis, Debye):
    X=              4.9323    Y=              3.8955    Z=              2.8293  Tot=              6.8926
 Quadrupole moment (field-independent basis, Debye-Ang):
   XX=           -452.2288   YY=           -579.2334   ZZ=           -491.1783
   XY=            -28.4731   XZ=             -3.4219   YZ=            -32.7894

 Normal termination of Gaussian 16 at Wed Sep 15 10:18:14 2021.
