 Gaussian 16, Revision A.03,
 Gaussian 16:  ES64L-G16RevA.03 25-Dec-2016

 -----------------------------------
 #p cam-b3lyp/Def2SVP td=(nstates=5)
 -----------------------------------

 --------------------------------
 TDDFT excited states in gaussian
 --------------------------------
 Symbolic Z-matrix:
 Charge =  0 Multiplicity = 1

                         Standard orientation:
 ---------------------------------------------------------------------
 Center     Atomic      Atomic             Coordinates (Angstroms)
 Number     Number       Type             X           Y           Z
 ---------------------------------------------------------------------
      1         12           0       24.523741   -0.938194    0.154058
      2          6           0       24.429338    2.446303   -1.250816
      3          6           0       23.812948    0.553078    3.243850
      4          6           0       24.938913   -3.858768    1.541667
      5          6           0       25.032101   -2.193690   -2.996692
      6          7           0       24.372739    1.232543    0.934254
      7          6           0       24.233730    2.468947    0.174725
      8          6           0       24.001049    3.716842    1.053266
      9          6           0       24.023035    3.007562    2.528712
     10          6           0       24.087458    1.489828    2.268145
     11          6           0       25.137741    3.503404    3.429201
     12          6           0       22.693456    4.451311    0.628671
     13          6           0       22.203300    5.495360    1.586373
     14          1           0       21.718906    6.828384    1.060941
     15          7           0       24.421521   -1.603872    2.148477
     16          6           0       24.108005   -0.850845    3.285686
     17          6           0       24.082087   -1.720701    4.460150
     18          6           0       24.409747   -3.054743    3.980666
     19          6           0       24.614121   -2.918810    2.491083
     20          6           0       23.674279   -1.266731    5.909664
     21          6           0       24.593256   -4.341584    4.701326
     22          8           0       24.841421   -5.415024    4.168513
     23          6           0       24.360946   -4.412807    6.153679
     24          7           0       24.825830   -2.728875   -0.597756
     25          6           0       25.091494   -3.789505    0.166957
     26          6           0       25.378705   -5.065020   -0.659415
     27          6           0       24.968062   -4.610845   -2.044745
     28          6           0       24.998797   -3.038954   -1.911171
     29          6           0       26.832961   -5.515776   -0.585320
     30          6           0       23.688688   -5.053972   -2.706005
     31          6           0       22.431152   -4.609551   -1.990033
     32          7           0       24.798713   -0.095268   -1.730516
     33          6           0       24.898921   -0.777553   -2.956444
     34          6           0       24.988287    0.189770   -4.022351
     35          6           0       24.730005    1.412149   -3.350308
     36          6           0       24.634519    1.206413   -1.960776
     37          6           0       25.097166   -0.050701   -5.499803
     38          6           0       24.508297    2.861376   -3.646440
     39          8           0       24.394036    3.466393   -4.733841
     40          6           0       24.345873    3.539886   -2.288070
     41          6           0       25.371312    4.665766   -2.139125
     42          8           0       26.636091    4.619425   -2.093681
     43          8           0       24.669461    5.810618   -1.902313
     44          6           0       25.482271    7.020471   -1.642595
     45          1           0       23.395869    0.988920    4.153021
     46          1           0       25.144881   -4.832344    1.991206
     47          1           0       25.217223   -2.519050   -4.022634
     48          1           0       24.821454    4.391282    0.808153
     49          1           0       23.043487    3.129331    2.991095
     50          1           0       24.692490    3.914615    4.335610
     51          1           0       25.640157    4.300596    2.882480
     52          1           0       26.003000    2.854852    3.564630
     53          1           0       21.982980    3.660881    0.384237
     54          1           0       22.870004    4.944446   -0.327310
     55          1           0       22.912104    5.855085    2.331870
     56          1           0       21.309284    5.127016    2.088699
     57          1           0       22.780571   -1.848022    6.138408
     58          1           0       23.429021   -0.207125    5.980046
     59          1           0       24.514301   -1.525200    6.554505
     60          1           0       24.790045   -3.579483    6.710429
     61          1           0       24.854877   -5.339350    6.444224
     62          1           0       23.284054   -4.277239    6.249086
     63          1           0       24.753134   -5.857214   -0.247934
     64          1           0       25.689027   -4.912391   -2.805121
     65          1           0       26.853340   -6.602526   -0.512323
     66          1           0       27.330939   -5.101010    0.290437
     67          1           0       27.336929   -5.318905   -1.532238
     68          1           0       23.746138   -6.132617   -2.854607
     69          1           0       23.556881   -4.561975   -3.669536
     70          1           0       21.709129   -5.419354   -1.891762
     71          1           0       21.887034   -3.837201   -2.534104
     72          1           0       22.596539   -4.241902   -0.977244
     73          1           0       24.315084    0.503148   -6.018551
     74          1           0       25.052742   -1.061716   -5.904666
     75          1           0       26.065265    0.341798   -5.811681
     76          1           0       23.374381    4.034705   -2.271612
     77          1           0       25.522641    7.213339   -0.570754
     78          1           0       24.923874    7.728183   -2.255340
     79          1           0       26.468444    6.967525   -2.105635
     80         12           0      -24.940649   -0.508779   -0.278936
     81          6           0      -22.717526    2.222269   -0.424939
     82          6           0      -26.766417    1.322035    2.014384
     83          6           0      -27.112683   -3.121085    0.056795
     84          6           0      -22.896004   -2.300494   -2.248315
     85          7           0      -24.775293    1.580160    0.668614
     86          6           0      -23.865494    2.586190    0.366342
     87          6           0      -24.312240    3.902527    0.970032
     88          6           0      -25.397340    3.475211    2.024123
     89          6           0      -25.664224    2.070836    1.530929
     90          6           0      -24.968526    3.600278    3.538629
     91          6           0      -24.933862    4.859968   -0.057611
     92          6           0      -24.623200    6.345417    0.155225
     93          1           0      -25.251702    7.065931    1.380344
     94          7           0      -26.733830   -0.828295    0.794401
     95          6           0      -27.237532    0.055785    1.686130
     96          6           0      -28.363935   -0.538996    2.329053
     97          6           0      -28.633268   -1.807354    1.707955
     98          6           0      -27.462007   -1.979584    0.866788
     99          6           0      -29.118371    0.157571    3.427328
    100          6           0      -29.732983   -2.843832    1.939383
    101          8           0      -29.889445   -3.819235    1.172142
    102          6           0      -30.655073   -2.805409    3.152784
    103          7           0      -25.038602   -2.378647   -1.058045
    104          6           0      -25.988289   -3.344753   -0.739712
    105          6           0      -25.627402   -4.624640   -1.421234
    106          6           0      -24.307052   -4.421084   -2.247976
    107          6           0      -24.052739   -2.946658   -1.895014
    108          6           0      -25.652190   -5.882045   -0.501001
    109          6           0      -24.433291   -4.642830   -3.770817
    110          6           0      -24.006470   -6.052266   -4.224436
    111          7           0      -23.181529   -0.198558   -1.127587
    112          6           0      -22.428464   -0.989708   -1.994013
    113          6           0      -21.199845   -0.279862   -2.510148
    114          6           0      -21.314485    0.958821   -1.858489
    115          6           0      -22.525101    0.988194   -1.094298
    116          6           0      -20.164540   -0.832876   -3.472496
    117          6           0      -20.629786    2.235919   -1.725911
    118          8           0      -19.563750    2.633989   -2.197245
    119          6           0      -21.614736    3.139065   -0.868819
    120          6           0      -20.750181    3.709523    0.272631
    121          8           0      -19.896213    3.114837    0.897345
    122          8           0      -20.987167    5.079622    0.365898
    123          6           0      -20.205899    5.723741    1.421916
    124          1           0      -27.361526    1.957041    2.673692
    125          1           0      -27.742743   -4.012355    0.082574
    126          1           0      -22.231856   -2.986885   -2.777027
    127          1           0      -23.531973    4.446076    1.502230
    128          1           0      -26.316743    4.059954    1.993355
    129          1           0      -24.001776    4.072278    3.716227
    130          1           0      -24.874221    2.669426    4.097333
    131          1           0      -25.663703    4.238424    4.084182
    132          1           0      -26.018215    4.756667   -0.090457
    133          1           0      -24.549601    4.654964   -1.057019
    134          1           0      -24.834957    6.936922   -0.735386
    135          1           0      -23.550834    6.514932    0.249919
    136          1           0      -28.308781    0.471129    4.086547
    137          1           0      -29.793284   -0.441433    4.038538
    138          1           0      -29.665162    1.046734    3.114299
    139          1           0      -30.081448   -2.693923    4.073055
    140          1           0      -31.160241   -3.768492    3.080920
    141          1           0      -31.339043   -1.958374    3.099847
    142          1           0      -26.478400   -4.891482   -2.048627
    143          1           0      -23.443131   -4.980684   -1.887071
    144          1           0      -25.876121   -5.546218    0.511742
    145          1           0      -24.662286   -6.337536   -0.502751
    146          1           0      -26.454676   -6.493695   -0.914668
    147          1           0      -23.918278   -3.817005   -4.261108
    148          1           0      -25.478775   -4.627142   -4.079516
    149          1           0      -24.097322   -6.750680   -3.392300
    150          1           0      -22.965113   -6.175118   -4.522647
    151          1           0      -24.701768   -6.379805   -4.997909
    152          1           0      -20.628847   -0.867835   -4.458197
    153          1           0      -19.817722   -1.844316   -3.261747
    154          1           0      -19.339701   -0.120671   -3.456585
    155          1           0      -22.082980    3.965477   -1.403175
    156          1           0      -20.690446    5.750133    2.398404
    157          1           0      -20.023352    6.725257    1.032626
    158          1           0      -19.234113    5.310468    1.691939
 ---------------------------------------------------------------------

 SCF Done:  E(RCAM-B3LYP) =  -4069.85189000     A.U. after   19 cycles

 Excitation energies and oscillator strengths:

 Excited State   1:      Singlet-A      1.6630 eV  745.55 nm  f=0.3975  <S**2>=0.000
     309 -> 316       -0.16582
     311 -> 313        0.68885
     309 <- 316       -0.10534
 This state for optimization and/or second-order correction.
 Total Energy, E(TD-HF/TD-DFT) =  -4069.79077657
 Copying the excited state density for this state as the 1-particle RhoCI density.

 Excited State   2:      Singlet-A      1.7014 eV  728.70 nm  f=0.3775  <S**2>=0.000
     310 -> 315        0.18653
     312 -> 314        0.68386
     310 <- 315        0.10956

 Excited State   3:      Singlet-A      2.1713 eV  571.02 nm  f=0.1374  <S**2>=0.000
     309 -> 313        0.65261
     311 -> 316        0.25467

 Excited State   4:      Singlet-A      2.2323 eV  555.40 nm  f=0.0994  <S**2>=0.000
     310 -> 314        0.63577
     312 -> 315       -0.29946

 Excited State   5:      Singlet-A      3.0213 eV  410.37 nm  f=0.0000  <S**2>=0.000
     312 -> 313        0.70711

 The electronic state is 1-A.
 Alpha  occ. eigenvalues --  -46.87746 -46.87656 -19.25772 -19.25748 -19.20420
 Alpha  occ. eigenvalues --  -19.19623 -19.19213 -19.19105 -19.18756 -19.18457
 Alpha  occ. eigenvalues --  -14.42682 -14.42490 -14.42155 -14.41284 -14.39948
 Alpha  occ. eigenvalues --  -14.39902 -14.39489 -14.38852 -10.39944 -10.39694
 Alpha  occ. eigenvalues --  -10.35853 -10.35088 -10.34729 -10.34639 -10.31964
 Alpha  occ. eigenvalues --  -10.31899 -10.31491 -10.31488 -10.31447 -10.31361
 Alpha  occ. eigenvalues --  -10.31085 -10.30882 -10.30752 -10.30735 -10.30683
 Alpha  occ. eigenvalues --  -10.30607 -10.30460 -10.30333 -10.30284 -10.29593
 Alpha  occ. eigenvalues --  -10.29254 -10.29228 -10.29112 -10.28953 -10.28943
 Alpha  occ. eigenvalues --  -10.28869 -10.28810 -10.28751 -10.28746 -10.28720
 Alpha  occ. eigenvalues --  -10.28644 -10.28636 -10.28589 -10.28581 -10.28567
 Alpha  occ. eigenvalues --  -10.28386 -10.28242 -10.27862 -10.27554 -10.27523
 Alpha  occ. eigenvalues --  -10.27499 -10.27379 -10.27377 -10.27210 -10.27074
 Alpha  occ. eigenvalues --  -10.27053 -10.26998 -10.26960 -10.26827 -10.26611
 Alpha  occ. eigenvalues --  -10.26432 -10.26412 -10.26342 -10.26274 -10.26016
 Alpha  occ. eigenvalues --  -10.25997 -10.25888 -10.25818 -10.25723 -10.25712
 Alpha  occ. eigenvalues --  -10.25701 -10.25669 -10.25621 -10.25568 -10.24694
 Alpha  occ. eigenvalues --  -10.24550  -3.16487  -3.16439  -1.91392  -1.91337
 Alpha  occ. eigenvalues --   -1.90953  -1.90870  -1.90789  -1.90783  -1.16311
 Alpha  occ. eigenvalues --   -1.15991  -1.10376  -1.09240  -1.08936  -1.08184
 Alpha  occ. eigenvalues --   -1.07793  -1.05752  -1.05042  -1.04723  -1.03675
 Alpha  occ. eigenvalues --   -1.03082  -1.02815  -1.02261  -1.01465  -1.00597
 Alpha  occ. eigenvalues --   -0.92582  -0.92297  -0.89685  -0.89443  -0.89029
 Alpha  occ. eigenvalues --   -0.88852  -0.88688  -0.88305  -0.87492  -0.87314
 Alpha  occ. eigenvalues --   -0.87023  -0.86992  -0.86155  -0.85872  -0.84762
 Alpha  occ. eigenvalues --   -0.84424  -0.84044  -0.83557  -0.82932  -0.82309
 Alpha  occ. eigenvalues --   -0.82293  -0.81738  -0.81412  -0.80997  -0.80095
 Alpha  occ. eigenvalues --   -0.80068  -0.78513  -0.78464  -0.77476  -0.77297
 Alpha  occ. eigenvalues --   -0.77264  -0.76802  -0.76163  -0.75957  -0.75490
 Alpha  occ. eigenvalues --   -0.75069  -0.72754  -0.72691  -0.71944  -0.71672
 Alpha  occ. eigenvalues --   -0.70289  -0.69439  -0.69394  -0.68825  -0.68196
 Alpha  occ. eigenvalues --   -0.67626  -0.67326  -0.67134  -0.65797  -0.65514
 Alpha  occ. eigenvalues --   -0.65055  -0.64654  -0.64501  -0.64319  -0.64173
 Alpha  occ. eigenvalues --   -0.63814  -0.62587  -0.61932  -0.60384  -0.60221
 Alpha  occ. eigenvalues --   -0.60162  -0.59155  -0.59073  -0.58945  -0.58509
 Alpha  occ. eigenvalues --   -0.58314  -0.57760  -0.57711  -0.57509  -0.57393
 Alpha  occ. eigenvalues --   -0.56273  -0.56031  -0.55981  -0.55474  -0.55461
 Alpha  occ. eigenvalues --   -0.55292  -0.55125  -0.54796  -0.54704  -0.54282
 Alpha  occ. eigenvalues --   -0.53814  -0.53507  -0.53454  -0.53146  -0.53066
 Alpha  occ. eigenvalues --   -0.52889  -0.52720  -0.52577  -0.52489  -0.52161
 Alpha  occ. eigenvalues --   -0.52121  -0.51865  -0.51761  -0.51235  -0.51138
 Alpha  occ. eigenvalues --   -0.50825  -0.50725  -0.50495  -0.50378  -0.50225
 Alpha  occ. eigenvalues --   -0.50179  -0.50053  -0.49805  -0.49784  -0.49514
 Alpha  occ. eigenvalues --   -0.49378  -0.49080  -0.48913  -0.48833  -0.48803
 Alpha  occ. eigenvalues --   -0.48537  -0.48505  -0.48441  -0.48252  -0.48097
 Alpha  occ. eigenvalues --   -0.48069  -0.47710  -0.47630  -0.47558  -0.47412
 Alpha  occ. eigenvalues --   -0.47010  -0.46865  -0.46749  -0.46671  -0.46537
 Alpha  occ. eigenvalues --   -0.46513  -0.46286  -0.46145  -0.45992  -0.45916
 Alpha  occ. eigenvalues --   -0.45694  -0.45526  -0.45433  -0.44935  -0.44932
 Alpha  occ. eigenvalues --   -0.44635  -0.44542  -0.44526  -0.44365  -0.44354
 Alpha  occ. eigenvalues --   -0.44346  -0.44173  -0.43967  -0.43601  -0.43506
 Alpha  occ. eigenvalues --   -0.43481  -0.43199  -0.43175  -0.43024  -0.42696
 Alpha  occ. eigenvalues --   -0.42625  -0.42496  -0.42368  -0.42193  -0.41948
 Alpha  occ. eigenvalues --   -0.41842  -0.41761  -0.41748  -0.41619  -0.41240
 Alpha  occ. eigenvalues --   -0.41196  -0.41062  -0.40948  -0.40459  -0.40453
 Alpha  occ. eigenvalues --   -0.40254  -0.39944  -0.39700  -0.39221  -0.39097
 Alpha  occ. eigenvalues --   -0.38885  -0.38720  -0.38322  -0.37944  -0.37323
 Alpha  occ. eigenvalues --   -0.37276  -0.37120  -0.36885  -0.36757  -0.36648
 Alpha  occ. eigenvalues --   -0.36513  -0.36101  -0.35168  -0.34966  -0.34296
 Alpha  occ. eigenvalues --   -0.34088  -0.33061  -0.32864  -0.31530  -0.31505
 Alpha  occ. eigenvalues --   -0.31262  -0.30985  -0.30951  -0.30566  -0.30392
 Alpha  occ. eigenvalues --   -0.30308  -0.30008  -0.29164  -0.24242  -0.23961
 Alpha  occ. eigenvalues --   -0.21469  -0.21087
 Alpha virt. eigenvalues --   -0.09285  -0.08583  -0.01791  -0.01653  -0.00013
 Alpha virt. eigenvalues --    0.00339   0.01737   0.02198   0.03378   0.03729
 Alpha virt. eigenvalues --    0.04518   0.04744   0.05018   0.05168   0.05595

 Mulliken charges:
               1
     1  Mg   0.833764
     2  C   -0.021263
     3  C   -0.080139
     4  C   -0.082744
     5  C   -0.070306
     6  N   -0.301408
     7  C   -0.047353
     8  C   -0.021597
     9  C   -0.058523
    10  C    0.064035
    11  C    0.100738
    12  C    0.032554
    13  C   -0.071177
    14  H    0.011819
    15  N   -0.386335
    16  C    0.146980
    17  C   -0.156153
    18  C   -0.010724
    19  C    0.125017
    20  C    0.113797
    21  C   -0.027313
    22  O   -0.211697
    23  C    0.063958
    24  N   -0.345414
    25  C    0.087673
    26  C   -0.030097
    27  C   -0.026330
    28  C    0.096084
    29  C    0.087967
    30  C    0.059793
    31  C   -0.013228
    32  N   -0.360298
    33  C    0.064904
    34  C   -0.139136
    35  C   -0.053517
    36  C    0.135988
    37  C    0.107476
    38  C    0.083463
    39  O   -0.200388
    40  C    0.008582
    41  C    0.216119
    42  O   -0.257663
    43  O   -0.336353
    44  C    0.163760
    45  H   -0.033243
    46  H   -0.005325
    47  H   -0.025203
    48  H    0.025807
    49  H    0.008756
    50  H    0.023470
    51  H    0.000234
    52  H    0.025540
    53  H    0.009600
    54  H    0.036936
    55  H    0.030356
    56  H    0.032723
    57  H    0.039159
    58  H    0.020305
    59  H    0.045763
    60  H    0.005825
    61  H    0.040860
    62  H    0.037726
    63  H    0.013767
    64  H   -0.013287
    65  H    0.012808
    66  H    0.026519
    67  H    0.015528
    68  H    0.009178
    69  H    0.004012
    70  H    0.005205
    71  H    0.012513
    72  H    0.021969
    73  H    0.039128
    74  H    0.005112
    75  H    0.032598
    76  H    0.049817
    77  H    0.048525
    78  H    0.042682
    79  H    0.059324
    80  Mg   0.856954
    81  C   -0.058739
    82  C   -0.109486
    83  C   -0.071382
    84  C   -0.087069
    85  N   -0.241838
    86  C   -0.014026
    87  C    0.014344
    88  C   -0.051402
    89  C   -0.006700
    90  C    0.052939
    91  C    0.064878
    92  C   -0.070545
    93  H    0.002370
    94  N   -0.342961
    95  C    0.211726
    96  C   -0.159433
    97  C   -0.006374
    98  C    0.104288
    99  C    0.108378
   100  C    0.005855
   101  O   -0.228226
   102  C    0.038017
   103  N   -0.379034
   104  C    0.084260
   105  C   -0.051035
   106  C   -0.001760
   107  C    0.029956
   108  C    0.063124
   109  C    0.045012
   110  C   -0.000569
   111  N   -0.392719
   112  C    0.133032
   113  C   -0.159680
   114  C   -0.023303
   115  C    0.156275
   116  C    0.124933
   117  C    0.083850
   118  O   -0.172891
   119  C   -0.034175
   120  C    0.197908
   121  O   -0.193143
   122  O   -0.339670
   123  C    0.167157
   124  H   -0.033791
   125  H   -0.010970
   126  H   -0.037299
   127  H    0.007779
   128  H    0.014692
   129  H    0.013043
   130  H    0.020439
   131  H    0.012819
   132  H    0.016744
   133  H    0.012003
   134  H    0.024806
   135  H    0.028565
   136  H    0.024977
   137  H    0.003816
   138  H    0.034963
   139  H    0.040280
   140  H    0.037965
   141  H    0.041730
   142  H    0.016586
   143  H    0.017677
   144  H    0.022105
   145  H    0.012468
   146  H    0.021717
   147  H    0.012891
   148  H    0.003413
   149  H    0.004430
   150  H    0.019154
   151  H    0.018478
   152  H    0.027691
   153  H    0.026008
   154  H    0.042289
   155  H    0.042762
   156  H    0.025727
   157  H    0.037244
   158  H    0.047705
 Sum of Mulliken charges =  -0.00000

 Dipole moment (field-independent basis, Debye):
    X=             -5.6335    Y=              0.7487    Z=              6.8645  Tot=              8.9117
 Quadrupole moment (field-independent basis, Debye-Ang):
   XX=           -487.1602   YY=           -488.3711   ZZ=           -491.6444
   XY=            -52.1869   XZ=             60.8472   YZ=             54.6113

 Normal termination of Gaussian 16 at Wed Sep  1 07:32:08 2021.
