 Gaussian 16, Revision A.03,
 Gaussian 16:  ES64L-G16RevA.03 25-Dec-2016

 -----------------------------------
 #p cam-b3lyp/Def2SVP td=(nstates=5)
 -----------------------------------

 --------------------------------
 TDDFT excited states in gaussian
 --------------------------------
 Symbolic Z-matrix:
 Charge =  0 Multiplicity = 1

                         Standard orientation:
 ---------------------------------------------------------------------
 Center     Atomic      Atomic             Coordinates (Angstroms)
 Number     Number       Type             X           Y           Z
 ---------------------------------------------------------------------
      1         12           0      -23.569867   -0.730328   -0.035903
      2          6           0      -22.543505    2.287921   -1.348425
      3          6           0      -23.307433    0.817325    3.183381
      4          6           0      -24.201331   -3.609922    1.364938
      5          6           0      -23.455345   -2.187048   -3.171195
      6          7           0      -22.765748    1.321686    0.804992
      7          6           0      -22.641667    2.398179    0.046925
      8          6           0      -22.734084    3.694405    0.900652
      9          6           0      -22.406584    3.104076    2.316704
     10          6           0      -22.842913    1.639512    2.151521
     11          6           0      -20.885803    3.237203    2.683769
     12          6           0      -24.183747    4.205876    0.746763
     13          6           0      -24.500918    5.567219    1.380466
     14          1           0      -23.506379    6.221984    2.318005
     15          7           0      -23.851406   -1.367200    1.922936
     16          6           0      -23.729097   -0.549246    3.098493
     17          6           0      -24.210833   -1.365262    4.204614
     18          6           0      -24.580093   -2.632892    3.655513
     19          6           0      -24.183887   -2.609929    2.248203
     20          6           0      -24.337853   -0.873677    5.694711
     21          6           0      -25.294950   -3.809979    4.397803
     22          8           0      -25.422524   -4.850742    3.813202
     23          6           0      -25.765985   -3.646276    5.806378
     24          7           0      -23.889077   -2.633580   -0.818573
     25          6           0      -24.145557   -3.705589   -0.035458
     26          6           0      -24.253164   -5.013309   -0.818899
     27          6           0      -24.150114   -4.518135   -2.280140
     28          6           0      -23.802283   -2.987489   -2.077242
     29          6           0      -23.183165   -6.110060   -0.463666
     30          6           0      -25.296521   -4.840927   -3.204214
     31          6           0      -26.765489   -4.610257   -2.774687
     32          7           0      -23.097018   -0.163381   -1.913946
     33          6           0      -23.099124   -0.836877   -3.101840
     34          6           0      -22.816490    0.130745   -4.140914
     35          6           0      -22.610669    1.418285   -3.536098
     36          6           0      -22.787201    1.152377   -2.150589
     37          6           0      -22.746877   -0.202111   -5.598650
     38          6           0      -22.255905    2.783065   -3.736648
     39          8           0      -21.960405    3.445102   -4.755331
     40          6           0      -21.942280    3.306414   -2.230717
     41          6           0      -22.439329    4.751356   -2.162319
     42          8           0      -23.516184    5.116318   -2.444189
     43          8           0      -21.395827    5.535770   -1.760548
     44          6           0      -21.693643    6.867576   -1.275129
     45          1           0      -23.160978    1.276002    4.163030
     46          1           0      -24.363211   -4.605717    1.782881
     47          1           0      -23.383608   -2.588922   -4.183275
     48          1           0      -21.958417    4.415140    0.642258
     49          1           0      -23.072801    3.656554    2.979732
     50          1           0      -20.758138    4.042085    3.406577
     51          1           0      -20.337334    3.433026    1.762191
     52          1           0      -20.478999    2.355534    3.179098
     53          1           0      -24.831628    3.500267    1.266180
     54          1           0      -24.533458    4.142898   -0.283236
     55          1           0      -25.533321    5.652008    1.720401
     56          1           0      -24.594798    6.240424    0.528155
     57          1           0      -23.868739   -1.560619    6.399709
     58          1           0      -25.405700   -0.739988    5.866966
     59          1           0      -23.918772    0.129380    5.783071
     60          1           0      -26.604754   -4.341848    5.841615
     61          1           0      -26.205924   -2.667046    5.991731
     62          1           0      -25.054054   -3.633872    6.631621
     63          1           0      -25.248465   -5.394441   -0.591488
     64          1           0      -23.246305   -4.861953   -2.783101
     65          1           0      -22.964617   -6.617510   -1.402881
     66          1           0      -23.733527   -6.754130    0.222490
     67          1           0      -22.345645   -5.665669    0.073996
     68          1           0      -25.253606   -5.929302   -3.180294
     69          1           0      -25.240539   -4.469808   -4.228110
     70          1           0      -27.427337   -5.473328   -2.716281
     71          1           0      -27.308582   -4.024412   -3.516228
     72          1           0      -26.780624   -4.147104   -1.787988
     73          1           0      -22.458307    0.723851   -6.095249
     74          1           0      -23.738961   -0.463481   -5.969268
     75          1           0      -22.138541   -1.070292   -5.850490
     76          1           0      -20.864378    3.190009   -2.116243
     77          1           0      -20.983562    7.308180   -1.975099
     78          1           0      -21.552393    6.986242   -0.200643
     79          1           0      -22.691860    7.226632   -1.526966
     80         12           0       23.877229   -0.697212   -0.040113
     81          6           0       21.834855    2.130714    0.967621
     82          6           0       26.227947    1.585701   -0.832152
     83          6           0       25.633882   -3.195103   -0.976859
     84          6           0       21.107528   -2.816314    0.572288
     85          7           0       23.991412    1.704597    0.107608
     86          6           0       23.098710    2.568202    0.621538
     87          6           0       23.711997    3.978731    0.710204
     88          6           0       24.917219    3.743510   -0.314804
     89          6           0       25.097710    2.283758   -0.304374
     90          6           0       24.894392    4.488849   -1.638782
     91          6           0       24.094214    4.260527    2.173562
     92          6           0       24.118958    5.780523    2.510660
     93          1           0       23.516009    6.900804    1.543014
     94          7           0       25.748679   -0.827936   -0.779887
     95          6           0       26.566698    0.227611   -1.134580
     96          6           0       27.776030   -0.324766   -1.737261
     97          6           0       27.650106   -1.735763   -1.716272
     98          6           0       26.292597   -1.957368   -1.142376
     99          6           0       28.881796    0.481483   -2.257061
    100          6           0       28.702692   -2.880806   -2.160120
    101          8           0       28.509423   -4.040312   -1.916001
    102          6           0       30.122987   -2.526624   -2.636108
    103          7           0       23.315290   -2.687655   -0.428379
    104          6           0       24.300834   -3.549152   -0.667164
    105          6           0       23.882003   -4.994603   -0.644260
    106          6           0       22.602555   -4.863050    0.217590
    107          6           0       22.256964   -3.355590   -0.037934
    108          6           0       23.563509   -5.610735   -2.085463
    109          6           0       22.745586   -5.258715    1.747054
    110          6           0       23.785256   -6.334362    2.176697
    111          7           0       21.866524   -0.445309    0.513516
    112          6           0       20.886206   -1.341819    0.785547
    113          6           0       19.769392   -0.733621    1.352937
    114          6           0       20.094058    0.592594    1.381471
    115          6           0       21.374026    0.762202    0.891805
    116          6           0       18.524219   -1.447001    1.872547
    117          6           0       19.544343    1.888333    1.807626
    118          8           0       18.426824    2.250110    2.144240
    119          6           0       20.740417    2.918088    1.607317
    120          6           0       20.228826    4.034116    0.831215
    121          8           0       20.035458    4.064660   -0.388289
    122          8           0       19.754692    4.939195    1.712608
    123          6           0       18.882954    5.918958    1.089533
    124          1           0       26.904660    2.332585   -1.252664
    125          1           0       26.248097   -4.019815   -1.342826
    126          1           0       20.316312   -3.520957    0.836003
    127          1           0       23.056888    4.729795    0.268623
    128          1           0       25.798835    4.158363    0.171907
    129          1           0       25.688797    5.231620   -1.705100
    130          1           0       23.934447    4.986824   -1.773953
    131          1           0       24.958936    3.842570   -2.514173
    132          1           0       25.127647    3.938896    2.304585
    133          1           0       23.504146    3.704784    2.902075
    134          1           0       25.109229    6.107043    2.829847
    135          1           0       23.657373    5.793472    3.497917
    136          1           0       28.916956    1.466868   -1.792917
    137          1           0       28.697730    0.555685   -3.328980
    138          1           0       29.867107    0.046105   -2.089161
    139          1           0       30.745386   -2.072317   -1.865219
    140          1           0       29.967670   -1.958287   -3.553414
    141          1           0       30.622373   -3.422336   -3.006379
    142          1           0       24.745174   -5.487065   -0.197104
    143          1           0       21.771008   -5.458705   -0.158218
    144          1           0       24.089433   -6.563824   -2.034459
    145          1           0       23.953758   -5.028506   -2.920957
    146          1           0       22.514512   -5.822232   -2.289229
    147          1           0       21.762239   -5.530969    2.127831
    148          1           0       23.147502   -4.330567    2.153779
    149          1           0       24.758571   -5.874860    2.347075
    150          1           0       23.725902   -7.071977    1.375621
    151          1           0       23.476723   -6.870619    3.073436
    152          1           0       18.884316   -2.425967    2.189751
    153          1           0       17.782534   -1.637176    1.097315
    154          1           0       18.119620   -0.865983    2.701098
    155          1           0       21.037896    3.239598    2.606228
    156          1           0       18.473793    6.643471    1.793062
    157          1           0       18.133614    5.535742    0.396707
    158          1           0       19.456673    6.571946    0.430943
 ---------------------------------------------------------------------

 SCF Done:  E(RCAM-B3LYP) =  -4069.78059853     A.U. after   18 cycles

 Excitation energies and oscillator strengths:

 Excited State   1:      Singlet-A      1.7338 eV  715.10 nm  f=0.3745  <S**2>=0.000
     309 -> 315       -0.19609
     312 -> 313        0.68090
     309 <- 315       -0.11067
 This state for optimization and/or second-order correction.
 Total Energy, E(TD-HF/TD-DFT) =  -4069.71688231
 Copying the excited state density for this state as the 1-particle RhoCI density.

 Excited State   2:      Singlet-A      1.8346 eV  675.80 nm  f=0.3723  <S**2>=0.000
     310 -> 316        0.18806
     311 -> 314        0.68158
     310 <- 316        0.10395

 Excited State   3:      Singlet-A      2.2193 eV  558.66 nm  f=0.0908  <S**2>=0.000
     309 -> 313        0.63500
     312 -> 315        0.29926

 Excited State   4:      Singlet-A      2.2402 eV  553.45 nm  f=0.1579  <S**2>=0.000
     310 -> 314        0.65518
     311 -> 316       -0.25326

 Excited State   5:      Singlet-A      3.2927 eV  376.54 nm  f=0.0000  <S**2>=0.000
     312 -> 314        0.70710

 The electronic state is 1-A.
 Alpha  occ. eigenvalues --  -46.89356 -46.88239 -19.24884 -19.24355 -19.20520
 Alpha  occ. eigenvalues --  -19.20231 -19.19068 -19.18987 -19.18853 -19.18756
 Alpha  occ. eigenvalues --  -14.41703 -14.41700 -14.41475 -14.41124 -14.39947
 Alpha  occ. eigenvalues --  -14.39276 -14.39245 -14.38637 -10.38885 -10.38205
 Alpha  occ. eigenvalues --  -10.36972 -10.35247 -10.35028 -10.34810 -10.31432
 Alpha  occ. eigenvalues --  -10.31242 -10.30789 -10.30728 -10.30682 -10.30615
 Alpha  occ. eigenvalues --  -10.30590 -10.30562 -10.30520 -10.30398 -10.30254
 Alpha  occ. eigenvalues --  -10.29596 -10.29595 -10.29580 -10.29421 -10.29284
 Alpha  occ. eigenvalues --  -10.29198 -10.28978 -10.28743 -10.28570 -10.28494
 Alpha  occ. eigenvalues --  -10.28428 -10.28403 -10.28046 -10.27961 -10.27830
 Alpha  occ. eigenvalues --  -10.27770 -10.27753 -10.27700 -10.27666 -10.27625
 Alpha  occ. eigenvalues --  -10.27592 -10.27554 -10.27553 -10.27519 -10.27500
 Alpha  occ. eigenvalues --  -10.27476 -10.27363 -10.27289 -10.27257 -10.27121
 Alpha  occ. eigenvalues --  -10.27116 -10.26712 -10.26529 -10.26494 -10.26437
 Alpha  occ. eigenvalues --  -10.26436 -10.26248 -10.26234 -10.26208 -10.26180
 Alpha  occ. eigenvalues --  -10.26077 -10.25983 -10.25762 -10.25715 -10.25535
 Alpha  occ. eigenvalues --  -10.25463 -10.25362 -10.25245 -10.25217 -10.24917
 Alpha  occ. eigenvalues --  -10.23713  -3.17856  -3.16876  -1.92758  -1.92330
 Alpha  occ. eigenvalues --   -1.92141  -1.91775  -1.91348  -1.91166  -1.17581
 Alpha  occ. eigenvalues --   -1.16476  -1.12602  -1.11496  -1.09770  -1.09445
 Alpha  occ. eigenvalues --   -1.07979  -1.06625  -1.05777  -1.05207  -1.05195
 Alpha  occ. eigenvalues --   -1.04629  -1.04051  -1.03405  -1.03023  -1.02047
 Alpha  occ. eigenvalues --   -0.92991  -0.92337  -0.89352  -0.89162  -0.88739
 Alpha  occ. eigenvalues --   -0.88640  -0.88508  -0.88101  -0.87515  -0.87279
 Alpha  occ. eigenvalues --   -0.86896  -0.86405  -0.85652  -0.85581  -0.84363
 Alpha  occ. eigenvalues --   -0.84038  -0.83708  -0.83097  -0.82401  -0.82374
 Alpha  occ. eigenvalues --   -0.81933  -0.81737  -0.81396  -0.80722  -0.80252
 Alpha  occ. eigenvalues --   -0.80087  -0.78598  -0.77967  -0.77332  -0.76830
 Alpha  occ. eigenvalues --   -0.76792  -0.76629  -0.75843  -0.75704  -0.75484
 Alpha  occ. eigenvalues --   -0.75254  -0.72748  -0.72656  -0.71978  -0.71653
 Alpha  occ. eigenvalues --   -0.70244  -0.69654  -0.68855  -0.68754  -0.68078
 Alpha  occ. eigenvalues --   -0.67570  -0.66761  -0.66175  -0.65435  -0.65160
 Alpha  occ. eigenvalues --   -0.65063  -0.64895  -0.64659  -0.64271  -0.64127
 Alpha  occ. eigenvalues --   -0.63676  -0.62343  -0.61797  -0.60805  -0.60480
 Alpha  occ. eigenvalues --   -0.59623  -0.59498  -0.59233  -0.59135  -0.58794
 Alpha  occ. eigenvalues --   -0.58398  -0.58117  -0.57909  -0.57892  -0.57469
 Alpha  occ. eigenvalues --   -0.56530  -0.56197  -0.56112  -0.55624  -0.55468
 Alpha  occ. eigenvalues --   -0.55324  -0.55180  -0.54618  -0.54200  -0.54034
 Alpha  occ. eigenvalues --   -0.53777  -0.53610  -0.53600  -0.53492  -0.52949
 Alpha  occ. eigenvalues --   -0.52938  -0.52863  -0.52365  -0.52282  -0.52264
 Alpha  occ. eigenvalues --   -0.52058  -0.51782  -0.51667  -0.51283  -0.51151
 Alpha  occ. eigenvalues --   -0.50736  -0.50692  -0.50648  -0.50454  -0.50122
 Alpha  occ. eigenvalues --   -0.50028  -0.49962  -0.49701  -0.49666  -0.49535
 Alpha  occ. eigenvalues --   -0.49299  -0.49285  -0.49076  -0.48910  -0.48759
 Alpha  occ. eigenvalues --   -0.48747  -0.48603  -0.48288  -0.48207  -0.48114
 Alpha  occ. eigenvalues --   -0.47950  -0.47896  -0.47612  -0.47495  -0.47384
 Alpha  occ. eigenvalues --   -0.47039  -0.46823  -0.46725  -0.46596  -0.46519
 Alpha  occ. eigenvalues --   -0.46200  -0.45933  -0.45810  -0.45751  -0.45559
 Alpha  occ. eigenvalues --   -0.45428  -0.45181  -0.44985  -0.44926  -0.44715
 Alpha  occ. eigenvalues --   -0.44639  -0.44367  -0.44318  -0.44053  -0.43891
 Alpha  occ. eigenvalues --   -0.43832  -0.43796  -0.43333  -0.43299  -0.43245
 Alpha  occ. eigenvalues --   -0.43237  -0.42955  -0.42954  -0.42833  -0.42670
 Alpha  occ. eigenvalues --   -0.42650  -0.42470  -0.42280  -0.42249  -0.42067
 Alpha  occ. eigenvalues --   -0.42061  -0.41965  -0.41853  -0.41544  -0.41407
 Alpha  occ. eigenvalues --   -0.41405  -0.41346  -0.40966  -0.40396  -0.40196
 Alpha  occ. eigenvalues --   -0.39727  -0.39526  -0.39418  -0.39327  -0.38596
 Alpha  occ. eigenvalues --   -0.38375  -0.38245  -0.38075  -0.37925  -0.37484
 Alpha  occ. eigenvalues --   -0.37442  -0.37104  -0.36593  -0.36360  -0.35914
 Alpha  occ. eigenvalues --   -0.35825  -0.35641  -0.35107  -0.34164  -0.33934
 Alpha  occ. eigenvalues --   -0.33715  -0.33318  -0.32473  -0.31923  -0.31555
 Alpha  occ. eigenvalues --   -0.31516  -0.30985  -0.30601  -0.30392  -0.30359
 Alpha  occ. eigenvalues --   -0.29794  -0.29470  -0.29336  -0.23782  -0.23368
 Alpha  occ. eigenvalues --   -0.21359  -0.21069
 Alpha virt. eigenvalues --   -0.08409  -0.08248  -0.01860  -0.01071   0.00216
 Alpha virt. eigenvalues --    0.00574   0.02428   0.02637   0.02750   0.03052
 Alpha virt. eigenvalues --    0.04209   0.05365   0.05727   0.05880   0.05890

 Mulliken charges:
               1
     1  Mg   0.826052
     2  C   -0.012317
     3  C   -0.069440
     4  C   -0.074866
     5  C   -0.110746
     6  N   -0.226800
     7  C   -0.083339
     8  C   -0.038267
     9  C   -0.040670
    10  C    0.001562
    11  C    0.086677
    12  C    0.038266
    13  C   -0.033806
    14  H    0.030069
    15  N   -0.395502
    16  C    0.163789
    17  C   -0.171007
    18  C   -0.041631
    19  C    0.168844
    20  C    0.109761
    21  C    0.017401
    22  O   -0.181347
    23  C    0.052860
    24  N   -0.266002
    25  C   -0.012122
    26  C   -0.046957
    27  C   -0.006086
    28  C    0.066923
    29  C    0.084008
    30  C    0.038660
    31  C   -0.018419
    32  N   -0.393940
    33  C    0.127051
    34  C   -0.170480
    35  C    0.015087
    36  C    0.149459
    37  C    0.114108
    38  C    0.076149
    39  O   -0.199738
    40  C   -0.076670
    41  C    0.177513
    42  O   -0.154527
    43  O   -0.338117
    44  C    0.149816
    45  H   -0.021736
    46  H   -0.018204
    47  H   -0.032793
    48  H   -0.002249
    49  H   -0.002024
    50  H    0.017278
    51  H    0.023498
    52  H    0.018066
    53  H    0.001254
    54  H    0.042084
    55  H    0.018677
    56  H    0.015665
    57  H    0.037193
    58  H    0.036345
    59  H    0.006420
    60  H    0.032685
    61  H   -0.000065
    62  H    0.047148
    63  H    0.021785
    64  H    0.003782
    65  H    0.024773
    66  H    0.025983
    67  H    0.031914
    68  H    0.004403
    69  H    0.015873
    70  H    0.010583
    71  H    0.010184
    72  H    0.020212
    73  H    0.037312
    74  H    0.019365
    75  H    0.024896
    76  H    0.054977
    77  H    0.050948
    78  H    0.046138
    79  H    0.046371
    80  Mg   0.824260
    81  C    0.010039
    82  C   -0.058330
    83  C   -0.077492
    84  C   -0.071164
    85  N   -0.187773
    86  C   -0.104808
    87  C   -0.021633
    88  C   -0.036008
    89  C   -0.028543
    90  C    0.088084
    91  C    0.049009
    92  C   -0.037967
    93  H    0.035312
    94  N   -0.382879
    95  C    0.143313
    96  C   -0.138004
    97  C   -0.053150
    98  C    0.096494
    99  C    0.105620
   100  C    0.029689
   101  O   -0.167273
   102  C    0.040805
   103  N   -0.248102
   104  C    0.043860
   105  C   -0.049666
   106  C   -0.064493
   107  C    0.033790
   108  C    0.074634
   109  C    0.034643
   110  C    0.005245
   111  N   -0.317540
   112  C    0.075661
   113  C   -0.206287
   114  C    0.001041
   115  C    0.122204
   116  C    0.136335
   117  C    0.060780
   118  O   -0.161558
   119  C   -0.025066
   120  C    0.186388
   121  O   -0.243519
   122  O   -0.299431
   123  C    0.194937
   124  H   -0.035352
   125  H   -0.014028
   126  H   -0.022077
   127  H    0.018019
   128  H   -0.009355
   129  H    0.017785
   130  H    0.020706
   131  H    0.014773
   132  H    0.007787
   133  H    0.024744
   134  H    0.015701
   135  H    0.014644
   136  H    0.021422
   137  H    0.041756
   138  H    0.018433
   139  H    0.065183
   140  H    0.023193
   141  H    0.024002
   142  H    0.019499
   143  H   -0.009337
   144  H    0.020091
   145  H    0.023951
   146  H    0.021313
   147  H    0.012413
   148  H    0.003378
   149  H    0.029274
   150  H    0.014357
   151  H    0.015680
   152  H    0.005767
   153  H    0.029853
   154  H    0.032425
   155  H    0.043027
   156  H    0.030125
   157  H    0.042738
   158  H    0.006650
 Sum of Mulliken charges =  -0.00000

 Dipole moment (field-independent basis, Debye):
    X=              5.5540    Y=             -0.6612    Z=              4.3261  Tot=              7.0710
 Quadrupole moment (field-independent basis, Debye-Ang):
   XX=           -207.2966   YY=           -491.9552   ZZ=           -506.8458
   XY=             55.1576   XZ=            -96.4447   YZ=             36.8444

 Normal termination of Gaussian 16 at Wed Sep  1 04:58:00 2021.
