 Gaussian 16, Revision A.03,
 Gaussian 16:  ES64L-G16RevA.03 25-Dec-2016

 -----------------------------------------------------------
 #p cam-b3lyp/Def2SVP td=(nstates=5, root=1) density=current
 -----------------------------------------------------------

 --------------------------------
 TDDFT excited states in gaussian
 --------------------------------
 Symbolic Z-matrix:
 Charge =  0 Multiplicity = 1

                         Standard orientation:
 ---------------------------------------------------------------------
 Center     Atomic      Atomic             Coordinates (Angstroms)
 Number     Number       Type             X           Y           Z
 ---------------------------------------------------------------------
      1         12           0       -0.920383    0.042895    0.177975
      2          6           0        2.791825    0.211858    0.244848
      3          6           0       -0.433397   -3.278433   -0.216410
      4          6           0       -4.072715    0.052749   -0.154184
      5          6           0       -0.834378    3.579602   -0.219802
      6          7           0        0.964775   -1.318523   -0.014897
      7          6           0        2.300370   -1.044215    0.226167
      8          6           0        3.188547   -2.283812    0.382901
      9          6           0        2.218715   -3.345403   -0.221910
     10          6           0        0.809315   -2.638321   -0.170559
     11          6           0        2.555927   -3.801702   -1.606463
     12          6           0        3.735834   -2.595648    1.816129
     13          6           0        5.055860   -3.282148    1.930012
     14          1           0        5.168797   -4.294451    3.065487
     15          7           0       -2.151544   -1.449913   -0.103896
     16          6           0       -1.786892   -2.809891   -0.189369
     17          6           0       -2.993687   -3.585419   -0.181206
     18          6           0       -4.048395   -2.588391   -0.001777
     19          6           0       -3.431840   -1.313308   -0.078273
     20          6           0       -3.058914   -5.157504   -0.169312
     21          6           0       -5.499690   -2.894255    0.209193
     22          8           0       -6.365641   -1.989659    0.294273
     23          6           0       -6.023617   -4.272724    0.385035
     24          7           0       -2.282271    1.528870   -0.298645
     25          6           0       -3.593629    1.290501   -0.365494
     26          6           0       -4.458745    2.568988   -0.606552
     27          6           0       -3.408763    3.653805   -0.160821
     28          6           0       -2.058766    2.893465   -0.269998
     29          6           0       -4.860176    2.737042   -2.107355
     30          6           0       -3.640244    4.139497    1.331570
     31          6           0       -5.029894    4.662685    1.751741
     32          7           0        0.623546    1.604118    0.081612
     33          6           0        0.461045    2.981447   -0.014776
     34          6           0        1.755361    3.621372   -0.045750
     35          6           0        2.686251    2.583753    0.091336
     36          6           0        1.969346    1.355791    0.079784
     37          6           0        2.029393    5.087704   -0.056370
     38          6           0        4.110783    2.296613    0.196987
     39          8           0        5.115804    2.992516    0.257038
     40          6           0        4.160782    0.693597    0.395069
     41          6           0        5.118152    0.208975   -0.584369
     42          8           0        5.025674    0.288288   -1.819455
     43          8           0        6.317599    0.054151    0.049566
     44          6           0        7.459774   -0.355151   -0.703009
     45          1           0       -0.207888   -4.346785   -0.192330
     46          1           0       -5.157600    0.102624   -0.266523
     47          1           0       -0.873438    4.665833   -0.328424
     48          1           0        4.036177   -2.156584   -0.290813
     49          1           0        2.100904   -4.187648    0.459242
     50          1           0        1.828094   -3.344743   -2.276977
     51          1           0        2.415104   -4.879830   -1.681977
     52          1           0        3.548811   -3.559666   -1.985033
     53          1           0        3.020164   -3.270259    2.285175
     54          1           0        3.715486   -1.663117    2.379469
     55          1           0        5.751737   -2.463608    2.112890
     56          1           0        5.428937   -3.635655    0.968692
     57          1           0       -3.336759   -5.609240    0.782508
     58          1           0       -2.135071   -5.596294   -0.545293
     59          1           0       -3.825522   -5.341982   -0.922919
     60          1           0       -6.035757   -4.759940   -0.590275
     61          1           0       -7.038198   -4.153631    0.766197
     62          1           0       -5.398523   -4.746147    1.141424
     63          1           0       -5.335774    2.457908    0.031977
     64          1           0       -3.340854    4.535174   -0.797813
     65          1           0       -5.940376    2.596460   -2.153476
     66          1           0       -4.336593    2.095459   -2.815367
     67          1           0       -4.618520    3.786922   -2.279033
     68          1           0       -2.979671    4.984586    1.523927
     69          1           0       -3.284737    3.330031    1.968881
     70          1           0       -5.333017    4.009591    2.569946
     71          1           0       -5.657878    4.473639    0.880638
     72          1           0       -5.003297    5.697515    2.092763
     73          1           0        1.068722    5.541647    0.187917
     74          1           0        2.325552    5.329957   -1.076970
     75          1           0        2.844355    5.393279    0.599777
     76          1           0        4.489658    0.462026    1.407978
     77          1           0        7.211680   -0.535573   -1.749185
     78          1           0        7.760362   -1.306210   -0.263248
     79          1           0        8.299256    0.321006   -0.547583
 ---------------------------------------------------------------------

 SCF Done:  E(RCAM-B3LYP) =  -2034.90182016     A.U. after   17 cycles

 Excitation energies and oscillator strengths:

 Excited State   1:      Singlet-A      1.6590 eV  747.36 nm  f=0.3884  <S**2>=0.000
     155 ->158        -0.15623
     156 ->157         0.69164
     155 <-158        -0.10436
 This state for optimization and/or second-order correction.
 Total Energy, E(TD-HF/TD-DFT) =  -2034.84085437
 Copying the excited state density for this state as the 1-particle RhoCI density.

 Excited State   2:      Singlet-A      2.1781 eV  569.22 nm  f=0.2162  <S**2>=0.000
     155 ->157         0.66761
     156 ->158         0.21705

 Excited State   3:      Singlet-A      3.1689 eV  391.26 nm  f=0.0051  <S**2>=0.000
     153 ->157         0.63124
     154 ->157        -0.27899

 Excited State   4:      Singlet-A      3.3063 eV  375.00 nm  f=0.0116  <S**2>=0.000
     152 ->157        -0.10189
     152 ->161        -0.12397
     153 ->157         0.24403
     154 ->157         0.58921
     154 ->159         0.14166
     154 ->161        -0.12198

 Excited State   5:      Singlet-A      3.3841 eV  366.37 nm  f=0.0091  <S**2>=0.000
     152 ->157         0.63530
     152 ->159         0.13136
     152 ->161        -0.11281
     154 ->161        -0.13593

 The electronic state is 1-A.
 Alpha  occ. eigenvalues --  -46.88906 -19.24818 -19.19900 -19.19426 -19.17443
 Alpha  occ. eigenvalues --  -14.42317 -14.41440 -14.39714 -14.39579 -10.39151
 Alpha  occ. eigenvalues --  -10.35986 -10.34001 -10.31416 -10.31130 -10.30811
 Alpha  occ. eigenvalues --  -10.30742 -10.30707 -10.30460 -10.30373 -10.29860
 Alpha  occ. eigenvalues --  -10.29082 -10.29066 -10.28965 -10.28319 -10.28129
 Alpha  occ. eigenvalues --  -10.28123 -10.28119 -10.28023 -10.28010 -10.27933
 Alpha  occ. eigenvalues --  -10.27776 -10.27432 -10.27393 -10.27059 -10.26723
 Alpha  occ. eigenvalues --  -10.26398 -10.26202 -10.25952 -10.25740 -10.25628
 Alpha  occ. eigenvalues --  -10.25605 -10.25549 -10.25544  -3.17567  -1.92436
 Alpha  occ. eigenvalues --   -1.92019  -1.91889  -1.16545  -1.10234  -1.07476
 Alpha  occ. eigenvalues --   -1.07027  -1.04923  -1.04043  -1.03670  -1.02543
 Alpha  occ. eigenvalues --   -0.93712  -0.89563  -0.88806  -0.88056  -0.87471
 Alpha  occ. eigenvalues --   -0.86847  -0.86251  -0.84752  -0.84049  -0.83155
 Alpha  occ. eigenvalues --   -0.82083  -0.81074  -0.80862  -0.78576  -0.77498
 Alpha  occ. eigenvalues --   -0.77297  -0.76236  -0.75455  -0.73368  -0.70954
 Alpha  occ. eigenvalues --   -0.69301  -0.68655  -0.68183  -0.66952  -0.65711
 Alpha  occ. eigenvalues --   -0.65145  -0.64913  -0.64489  -0.62066  -0.60761
 Alpha  occ. eigenvalues --   -0.59791  -0.59534  -0.58872  -0.58408  -0.57691
 Alpha  occ. eigenvalues --   -0.55917  -0.55643  -0.54896  -0.54635  -0.54208
 Alpha  occ. eigenvalues --   -0.53709  -0.53243  -0.52884  -0.52571  -0.52426
 Alpha  occ. eigenvalues --   -0.51769  -0.51430  -0.51236  -0.51032  -0.50311
 Alpha  occ. eigenvalues --   -0.49916  -0.49858  -0.49729  -0.49507  -0.49220
 Alpha  occ. eigenvalues --   -0.48744  -0.48341  -0.48162  -0.47870  -0.47582
 Alpha  occ. eigenvalues --   -0.47273  -0.46538  -0.46395  -0.46208  -0.45961
 Alpha  occ. eigenvalues --   -0.45407  -0.45127  -0.44989  -0.44850  -0.44374
 Alpha  occ. eigenvalues --   -0.43962  -0.43716  -0.43283  -0.43102  -0.42856
 Alpha  occ. eigenvalues --   -0.42694  -0.42123  -0.42022  -0.41644  -0.41349
 Alpha  occ. eigenvalues --   -0.40695  -0.40644  -0.39824  -0.39498  -0.39278
 Alpha  occ. eigenvalues --   -0.38588  -0.38252  -0.37774  -0.37193  -0.36414
 Alpha  occ. eigenvalues --   -0.35834  -0.34624  -0.34323  -0.33146  -0.31577
 Alpha  occ. eigenvalues --   -0.31407  -0.30142  -0.29901  -0.29817  -0.24280
 Alpha  occ. eigenvalues --   -0.21738
 Alpha virt. eigenvalues --   -0.09667  -0.00786   0.00281   0.01731   0.02245
 Alpha virt. eigenvalues --    0.03918   0.04966   0.05963   0.06854   0.07879
 Alpha virt. eigenvalues --    0.08391   0.09405   0.09442   0.09921   0.10116

 Mulliken charges:
               1
     1  Mg   0.835995
     2  C   -0.006259
     3  C   -0.061686
     4  C   -0.039937
     5  C   -0.074819
     6  N   -0.245190
     7  C   -0.062803
     8  C   -0.052176
     9  C   -0.051676
    10  C   -0.027612
    11  C    0.095398
    12  C    0.084288
    13  C   -0.058847
    14  H    0.037826
    15  N   -0.406664
    16  C    0.190802
    17  C   -0.161095
    18  C   -0.024840
    19  C    0.123542
    20  C    0.117259
    21  C   -0.043602
    22  O   -0.244589
    23  C    0.074091
    24  N   -0.329956
    25  C    0.029417
    26  C   -0.058403
    27  C   -0.055723
    28  C    0.078674
    29  C    0.099047
    30  C    0.008104
    31  C    0.024985
    32  N   -0.315666
    33  C    0.107039
    34  C   -0.188726
    35  C    0.004342
    36  C    0.093119
    37  C    0.132131
    38  C    0.073603
    39  O   -0.162369
    40  C    0.010369
    41  C    0.182300
    42  O   -0.241682
    43  O   -0.318976
    44  C    0.170827
    45  H   -0.034033
    46  H   -0.016507
    47  H   -0.020858
    48  H    0.013470
    49  H    0.001712
    50  H    0.023694
    51  H    0.013084
    52  H    0.028322
    53  H    0.007652
    54  H    0.009929
    55  H    0.025775
    56  H    0.021144
    57  H    0.046259
    58  H    0.016951
    59  H    0.022356
    60  H    0.041413
    61  H    0.028300
    62  H    0.024655
    63  H    0.023498
    64  H    0.001589
    65  H    0.024546
    66  H    0.038976
    67  H    0.007205
    68  H    0.001069
    69  H    0.010764
    70  H    0.020927
    71  H    0.016774
    72  H    0.026120
    73  H    0.009450
    74  H    0.035894
    75  H    0.041533
    76  H    0.040996
    77  H    0.048803
    78  H    0.014874
    79  H    0.043804
 Sum of Mulliken charges =  -0.00000

 Dipole moment (field-independent basis, Debye):
    X=             -0.7959    Y=             -3.0067    Z=              1.8022  Tot=              3.5946
 Quadrupole moment (field-independent basis, Debye-Ang):
   XX=           -279.4212   YY=           -226.5169   ZZ=           -259.8931
   XY=            -27.0249   XZ=              5.2967   YZ=              0.9507

 Normal termination of Gaussian 16 at Tue Oct 12 13:07:33 2021.
