 Gaussian 16, Revision A.03,
 Gaussian 16:  ES64L-G16RevA.03 25-Dec-2016

 -----------------------------------
 #p cam-b3lyp/Def2SVP td=(nstates=5)
 -----------------------------------

 --------------------------------
 TDDFT excited states in gaussian
 --------------------------------
 Symbolic Z-matrix:
 Charge =  0 Multiplicity = 1

                         Standard orientation:
 ---------------------------------------------------------------------
 Center     Atomic      Atomic             Coordinates (Angstroms)
 Number     Number       Type             X           Y           Z
 ---------------------------------------------------------------------
      1         12           0       25.254647   -0.123545    0.107767
      2          6           0       22.081446   -1.305835   -0.209705
      3          6           0       25.734605   -0.716024   -3.345796
      4          6           0       27.857700    1.966534    0.207155
      5          6           0       24.495794    0.943677    3.473446
      6          7           0       24.044567   -0.932272   -1.508784
      7          6           0       22.820065   -1.342871   -1.481886
      8          6           0       22.388748   -2.097150   -2.789617
      9          6           0       23.694531   -2.143817   -3.671051
     10          6           0       24.620139   -1.227133   -2.799156
     11          6           0       24.182204   -3.531047   -4.091294
     12          6           0       21.075803   -1.410111   -3.497474
     13          6           0       20.768323    0.049289   -3.203590
     14          1           0       19.863672    0.856067   -4.135033
     15          7           0       26.597992    0.533683   -1.379442
     16          6           0       26.683707    0.140432   -2.693366
     17          6           0       27.726393    0.827149   -3.323140
     18          6           0       28.363579    1.666215   -2.329454
     19          6           0       27.581537    1.447724   -1.084095
     20          6           0       28.129931    0.493750   -4.747714
     21          6           0       29.575822    2.572169   -2.611467
     22          8           0       30.036170    2.583916   -3.775228
     23          6           0       30.231696    3.415003   -1.653914
     24          7           0       26.001631    1.427613    1.624123
     25          6           0       27.178731    1.945356    1.415250
     26          6           0       27.746775    2.686576    2.658911
     27          6           0       26.697781    2.319190    3.731113
     28          6           0       25.612955    1.472812    2.950061
     29          6           0       29.111903    2.259617    3.062444
     30          6           0       26.098051    3.601503    4.479082
     31          6           0       26.499160    3.772060    6.001950
     32          7           0       23.707999   -0.234498    1.466191
     33          6           0       23.517785    0.187817    2.787881
     34          6           0       22.167292   -0.266657    3.243954
     35          6           0       21.595620   -0.802402    2.081169
     36          6           0       22.541676   -0.737385    1.015505
     37          6           0       21.545238   -0.130874    4.547307
     38          6           0       20.393603   -1.332988    1.625214
     39          8           0       19.308646   -1.590413    2.167099
     40          6           0       20.670583   -1.770176    0.158709
     41          6           0       20.364226   -3.282231    0.041601
     42          8           0       19.620532   -3.829633   -0.754525
     43          8           0       21.052670   -4.026501    0.975093
     44          6           0       20.819864   -5.475513    0.995479
     45          1           0       25.768357   -0.891947   -4.422853
     46          1           0       28.782165    2.530591    0.345898
     47          1           0       24.346487    1.120281    4.540570
     48          1           0       22.234702   -3.137369   -2.501473
     49          1           0       23.588610   -1.571379   -4.593094
     50          1           0       25.144224   -3.738380   -3.623050
     51          1           0       24.333362   -3.606150   -5.168769
     52          1           0       23.496578   -4.354422   -3.890913
     53          1           0       20.288584   -2.100107   -3.192758
     54          1           0       21.104744   -1.365225   -4.586377
     55          1           0       21.757894    0.504778   -3.177137
     56          1           0       20.393096    0.059271   -2.180101
     57          1           0       29.154195    0.189515   -4.964745
     58          1           0       27.835343    1.320902   -5.394001
     59          1           0       27.518234   -0.335743   -5.101969
     60          1           0       30.693935    2.939401   -0.789088
     61          1           0       29.505157    4.050620   -1.148718
     62          1           0       30.924811    4.127525   -2.100046
     63          1           0       27.867202    3.768824    2.612350
     64          1           0       27.064786    1.600529    4.463970
     65          1           0       29.907744    2.960744    2.811614
     66          1           0       29.436629    1.402322    2.471699
     67          1           0       29.140907    2.055110    4.132570
     68          1           0       25.012780    3.495231    4.508040
     69          1           0       26.413062    4.556002    4.059592
     70          1           0       26.798167    4.802935    6.187470
     71          1           0       27.407232    3.194113    6.174137
     72          1           0       25.581473    3.571929    6.555341
     73          1           0       22.379912   -0.164009    5.247929
     74          1           0       20.873798   -0.967875    4.742202
     75          1           0       20.946687    0.778613    4.504927
     76          1           0       19.899869   -1.444320   -0.539422
     77          1           0       21.058203   -5.846107    1.992633
     78          1           0       21.423361   -6.103205    0.340016
     79          1           0       19.813437   -5.764132    0.690902
     80         12           0      -25.047519    0.573308    0.144435
     81          6           0      -22.270701   -1.433523    0.720958
     82          6           0      -26.996986   -2.233619    0.450843
     83          6           0      -27.789520    2.499088   -0.684842
     84          6           0      -22.990685    3.255075   -0.708875
     85          7           0      -24.659702   -1.555707    0.636479
     86          6           0      -23.486853   -2.137067    0.940907
     87          6           0      -23.595677   -3.596288    1.441369
     88          6           0      -25.117828   -3.913679    1.115506
     89          6           0      -25.664819   -2.479221    0.652461
     90          6           0      -25.183673   -5.040408    0.023665
     91          6           0      -23.232913   -3.584935    3.014431
     92          6           0      -22.114371   -4.564211    3.477554
     93          1           0      -21.859865   -5.759043    2.488947
     94          7           0      -27.096458    0.223521   -0.165641
     95          6           0      -27.712320   -1.016100    0.104085
     96          6           0      -29.148293   -0.838689    0.066257
     97          6           0      -29.399377    0.488211   -0.305246
     98          6           0      -28.058373    1.181522   -0.329703
     99          6           0      -30.099874   -2.043238    0.093330
    100          6           0      -30.769452    1.157916   -0.592097
    101          8           0      -30.931162    2.349787   -0.914434
    102          6           0      -32.043098    0.317997   -0.394626
    103          7           0      -25.289974    2.572784   -0.666918
    104          6           0      -26.589644    3.133137   -0.857935
    105          6           0      -26.483267    4.516911   -1.532227
    106          6           0      -24.942042    4.852608   -1.265938
    107          6           0      -24.370108    3.485283   -0.807984
    108          6           0      -26.949874    4.415162   -2.975023
    109          6           0      -24.772612    5.938883   -0.121670
    110          6           0      -25.407777    5.853629    1.307976
    111          7           0      -23.072873    0.871887   -0.057333
    112          6           0      -22.346450    2.007420   -0.428822
    113          6           0      -20.952404    1.709478   -0.365549
    114          6           0      -20.865162    0.414444    0.112512
    115          6           0      -22.177642   -0.112899    0.194045
    116          6           0      -19.800718    2.598150   -0.788923
    117          6           0      -19.956315   -0.593313    0.492053
    118          8           0      -18.770571   -0.565241    0.398721
    119          6           0      -20.841289   -1.873857    0.789502
    120          6           0      -20.499696   -2.871847   -0.282187
    121          8           0      -21.226734   -3.140878   -1.215531
    122          8           0      -19.274362   -3.340328   -0.017417
    123          6           0      -18.644007   -3.945191   -1.165205
    124          1           0      -27.633512   -3.103147    0.626141
    125          1           0      -28.623307    3.012034   -1.167347
    126          1           0      -22.332222    4.082187   -0.984216
    127          1           0      -22.914461   -4.301333    0.965356
    128          1           0      -25.717239   -4.215196    1.974822
    129          1           0      -25.914600   -4.875003   -0.768201
    130          1           0      -25.456127   -5.875797    0.668020
    131          1           0      -24.161051   -5.210484   -0.312267
    132          1           0      -24.170156   -3.695347    3.559451
    133          1           0      -22.905834   -2.571786    3.249486
    134          1           0      -22.521013   -4.903671    4.429570
    135          1           0      -21.145907   -4.101624    3.665476
    136          1           0      -30.710524   -1.986632   -0.808137
    137          1           0      -30.789676   -1.938714    0.931875
    138          1           0      -29.526418   -2.967385    0.158455
    139          1           0      -32.083137   -0.390960   -1.222630
    140          1           0      -32.873310    1.004824   -0.558448
    141          1           0      -32.111125   -0.001903    0.644864
    142          1           0      -27.073542    5.177448   -0.896447
    143          1           0      -24.508501    5.321567   -2.148501
    144          1           0      -27.691319    3.631415   -3.131130
    145          1           0      -26.107270    4.218025   -3.637394
    146          1           0      -27.459352    5.328465   -3.281598
    147          1           0      -25.034970    6.907689   -0.546856
    148          1           0      -23.706371    5.882370    0.097654
    149          1           0      -26.401598    6.299579    1.266149
    150          1           0      -24.750623    6.441744    1.949647
    151          1           0      -25.400539    4.870412    1.779522
    152          1           0      -19.772389    3.532511   -0.228036
    153          1           0      -20.011640    2.812169   -1.836489
    154          1           0      -18.802951    2.217690   -0.565808
    155          1           0      -20.684735   -2.391310    1.736158
    156          1           0      -17.558350   -3.851278   -1.174135
    157          1           0      -19.021035   -3.786793   -2.175483
    158          1           0      -18.760716   -5.028488   -1.202846
 ---------------------------------------------------------------------

 SCF Done:  E(RCAM-B3LYP) =  -4069.78259178     A.U. after   19 cycles

 Excitation energies and oscillator strengths:

 Excited State   1:      Singlet-A      1.7042 eV  727.52 nm  f=0.5739  <S**2>=0.000
     310 -> 316       -0.16914
     311 -> 313       -0.18665
     312 -> 314        0.66080
     310 <- 316       -0.10253
 This state for optimization and/or second-order correction.
 Total Energy, E(TD-HF/TD-DFT) =  -4069.71996351
 Copying the excited state density for this state as the 1-particle RhoCI density.

 Excited State   2:      Singlet-A      1.7061 eV  726.72 nm  f=0.2509  <S**2>=0.000
     309 -> 315        0.15486
     311 -> 313        0.66301
     312 -> 314        0.18596

 Excited State   3:      Singlet-A      2.2267 eV  556.80 nm  f=0.1271  <S**2>=0.000
     310 -> 314        0.64629
     312 -> 316        0.27557

 Excited State   4:      Singlet-A      2.2508 eV  550.83 nm  f=0.1196  <S**2>=0.000
     309 -> 313        0.64223
     311 -> 315       -0.27237

 Excited State   5:      Singlet-A      2.9169 eV  425.06 nm  f=0.0000  <S**2>=0.000
     312 -> 313        0.70710

 The electronic state is 1-A.
 Alpha  occ. eigenvalues --  -46.90332 -46.88050 -19.26121 -19.24914 -19.20130
 Alpha  occ. eigenvalues --  -19.20035 -19.19330 -19.18986 -19.18586 -19.17439
 Alpha  occ. eigenvalues --  -14.43217 -14.42215 -14.41943 -14.41405 -14.40557
 Alpha  occ. eigenvalues --  -14.39840 -14.39527 -14.39030 -10.39738 -10.39293
 Alpha  occ. eigenvalues --  -10.35094 -10.34798 -10.34734 -10.34277 -10.33020
 Alpha  occ. eigenvalues --  -10.31790 -10.31571 -10.31524 -10.31320 -10.31287
 Alpha  occ. eigenvalues --  -10.30770 -10.30758 -10.30665 -10.30638 -10.30396
 Alpha  occ. eigenvalues --  -10.30319 -10.30127 -10.29870 -10.29799 -10.29653
 Alpha  occ. eigenvalues --  -10.29632 -10.29607 -10.29320 -10.29284 -10.29044
 Alpha  occ. eigenvalues --  -10.28854 -10.28824 -10.28490 -10.28488 -10.28438
 Alpha  occ. eigenvalues --  -10.28370 -10.28313 -10.28113 -10.28108 -10.27826
 Alpha  occ. eigenvalues --  -10.27741 -10.27636 -10.27632 -10.27580 -10.27565
 Alpha  occ. eigenvalues --  -10.27193 -10.27111 -10.27086 -10.27058 -10.27038
 Alpha  occ. eigenvalues --  -10.26981 -10.26923 -10.26852 -10.26725 -10.26703
 Alpha  occ. eigenvalues --  -10.26685 -10.26659 -10.26501 -10.26422 -10.26223
 Alpha  occ. eigenvalues --  -10.26174 -10.26025 -10.25786 -10.25761 -10.25668
 Alpha  occ. eigenvalues --  -10.25630 -10.25581 -10.25231 -10.25175 -10.24928
 Alpha  occ. eigenvalues --  -10.24652  -3.18739  -3.16652  -1.93618  -1.93228
 Alpha  occ. eigenvalues --   -1.93006  -1.91552  -1.91085  -1.90974  -1.18127
 Alpha  occ. eigenvalues --   -1.16158  -1.11985  -1.09072  -1.09051  -1.08305
 Alpha  occ. eigenvalues --   -1.07634  -1.07370  -1.05053  -1.04529  -1.04125
 Alpha  occ. eigenvalues --   -1.03660  -1.03289  -1.02680  -1.02268  -1.01133
 Alpha  occ. eigenvalues --   -0.93018  -0.92769  -0.89689  -0.89449  -0.89007
 Alpha  occ. eigenvalues --   -0.88505  -0.88342  -0.88102  -0.87819  -0.87725
 Alpha  occ. eigenvalues --   -0.87048  -0.86469  -0.85988  -0.85315  -0.84666
 Alpha  occ. eigenvalues --   -0.84212  -0.83902  -0.83370  -0.82970  -0.82529
 Alpha  occ. eigenvalues --   -0.82256  -0.81480  -0.81168  -0.80880  -0.80288
 Alpha  occ. eigenvalues --   -0.79907  -0.78500  -0.77685  -0.77414  -0.77080
 Alpha  occ. eigenvalues --   -0.76986  -0.76705  -0.76375  -0.75829  -0.75300
 Alpha  occ. eigenvalues --   -0.74929  -0.73419  -0.72929  -0.71973  -0.71153
 Alpha  occ. eigenvalues --   -0.69584  -0.68942  -0.68862  -0.68616  -0.68428
 Alpha  occ. eigenvalues --   -0.67942  -0.66859  -0.66340  -0.66054  -0.65822
 Alpha  occ. eigenvalues --   -0.65674  -0.64889  -0.64563  -0.64518  -0.64449
 Alpha  occ. eigenvalues --   -0.63909  -0.63355  -0.62355  -0.60920  -0.59976
 Alpha  occ. eigenvalues --   -0.59969  -0.59372  -0.58965  -0.58930  -0.58542
 Alpha  occ. eigenvalues --   -0.58388  -0.58043  -0.57970  -0.57272  -0.57224
 Alpha  occ. eigenvalues --   -0.56349  -0.56234  -0.55652  -0.55635  -0.55621
 Alpha  occ. eigenvalues --   -0.54872  -0.54832  -0.54564  -0.54356  -0.53940
 Alpha  occ. eigenvalues --   -0.53885  -0.53525  -0.53338  -0.53271  -0.53094
 Alpha  occ. eigenvalues --   -0.52896  -0.52615  -0.52561  -0.52248  -0.52179
 Alpha  occ. eigenvalues --   -0.51964  -0.51825  -0.51706  -0.51507  -0.51268
 Alpha  occ. eigenvalues --   -0.50954  -0.50926  -0.50704  -0.50585  -0.50283
 Alpha  occ. eigenvalues --   -0.49919  -0.49875  -0.49782  -0.49584  -0.49479
 Alpha  occ. eigenvalues --   -0.49242  -0.49137  -0.49013  -0.48838  -0.48814
 Alpha  occ. eigenvalues --   -0.48572  -0.48566  -0.48311  -0.48301  -0.47918
 Alpha  occ. eigenvalues --   -0.47708  -0.47673  -0.47449  -0.47425  -0.47201
 Alpha  occ. eigenvalues --   -0.47101  -0.46854  -0.46770  -0.46625  -0.46237
 Alpha  occ. eigenvalues --   -0.46203  -0.46141  -0.45901  -0.45740  -0.45695
 Alpha  occ. eigenvalues --   -0.45545  -0.45266  -0.45152  -0.45027  -0.44905
 Alpha  occ. eigenvalues --   -0.44883  -0.44615  -0.44603  -0.44519  -0.44470
 Alpha  occ. eigenvalues --   -0.44293  -0.43839  -0.43722  -0.43606  -0.43573
 Alpha  occ. eigenvalues --   -0.43380  -0.43022  -0.42983  -0.42708  -0.42683
 Alpha  occ. eigenvalues --   -0.42624  -0.42351  -0.42268  -0.42088  -0.42020
 Alpha  occ. eigenvalues --   -0.41896  -0.41720  -0.41502  -0.41287  -0.40968
 Alpha  occ. eigenvalues --   -0.40867  -0.40777  -0.40731  -0.40645  -0.40247
 Alpha  occ. eigenvalues --   -0.40001  -0.39850  -0.39532  -0.39118  -0.39084
 Alpha  occ. eigenvalues --   -0.38734  -0.38051  -0.37859  -0.37649  -0.37429
 Alpha  occ. eigenvalues --   -0.37062  -0.37031  -0.36874  -0.36539  -0.36434
 Alpha  occ. eigenvalues --   -0.36409  -0.36085  -0.34825  -0.34771  -0.34311
 Alpha  occ. eigenvalues --   -0.34064  -0.34054  -0.32635  -0.31621  -0.31614
 Alpha  occ. eigenvalues --   -0.31092  -0.30932  -0.30930  -0.30415  -0.30238
 Alpha  occ. eigenvalues --   -0.30187  -0.29555  -0.29033  -0.24951  -0.23737
 Alpha  occ. eigenvalues --   -0.21678  -0.20946
 Alpha virt. eigenvalues --   -0.09537  -0.08519  -0.01908  -0.01310  -0.00039
 Alpha virt. eigenvalues --    0.00591   0.00614   0.02201   0.02512   0.02592
 Alpha virt. eigenvalues --    0.04564   0.04999   0.05249   0.05425   0.06159

 Mulliken charges:
               1
     1  Mg   0.825787
     2  C    0.014978
     3  C   -0.064098
     4  C   -0.034145
     5  C   -0.085230
     6  N   -0.280179
     7  C   -0.033771
     8  C   -0.003250
     9  C   -0.057063
    10  C    0.024083
    11  C    0.073112
    12  C    0.009599
    13  C   -0.045398
    14  H    0.044634
    15  N   -0.376614
    16  C    0.139177
    17  C   -0.133933
    18  C   -0.051327
    19  C    0.179003
    20  C    0.140060
    21  C    0.018690
    22  O   -0.238772
    23  C    0.063179
    24  N   -0.229448
    25  C   -0.016332
    26  C   -0.028423
    27  C    0.002414
    28  C    0.020988
    29  C    0.047835
    30  C    0.001349
    31  C   -0.010173
    32  N   -0.376989
    33  C    0.118808
    34  C   -0.164087
    35  C    0.035769
    36  C    0.123883
    37  C    0.127106
    38  C    0.044595
    39  O   -0.184324
    40  C   -0.043156
    41  C    0.174923
    42  O   -0.212594
    43  O   -0.339385
    44  C    0.178552
    45  H   -0.011514
    46  H   -0.063596
    47  H   -0.026496
    48  H    0.025712
    49  H    0.012392
    50  H    0.017781
    51  H    0.012572
    52  H    0.020250
    53  H    0.032830
    54  H    0.016820
    55  H    0.030182
    56  H    0.016165
    57  H    0.036978
    58  H    0.022635
    59  H   -0.021590
    60  H    0.042193
    61  H    0.019896
    62  H    0.027710
    63  H    0.019232
    64  H    0.008135
    65  H    0.006274
    66  H    0.010276
    67  H    0.018324
    68  H    0.012635
    69  H    0.017228
    70  H    0.010725
    71  H    0.016208
    72  H    0.026521
    73  H    0.022304
    74  H    0.042583
    75  H    0.050609
    76  H    0.029783
    77  H    0.033943
    78  H    0.019729
    79  H    0.044742
    80  Mg   0.826317
    81  C   -0.012257
    82  C   -0.055197
    83  C   -0.055314
    84  C   -0.101733
    85  N   -0.262884
    86  C   -0.021593
    87  C   -0.037409
    88  C   -0.073728
    89  C    0.047846
    90  C    0.074576
    91  C    0.036456
    92  C   -0.072626
    93  H    0.021631
    94  N   -0.381518
    95  C    0.116810
    96  C   -0.159382
    97  C   -0.046576
    98  C    0.112344
    99  C    0.135763
   100  C    0.005256
   101  O   -0.221329
   102  C    0.048254
   103  N   -0.269113
   104  C    0.003978
   105  C   -0.013052
   106  C   -0.018911
   107  C    0.072178
   108  C    0.091484
   109  C   -0.014721
   110  C    0.000581
   111  N   -0.397777
   112  C    0.133570
   113  C   -0.171103
   114  C    0.038097
   115  C    0.109002
   116  C    0.123564
   117  C    0.021077
   118  O   -0.126688
   119  C   -0.026010
   120  C    0.176014
   121  O   -0.208524
   122  O   -0.277521
   123  C    0.182007
   124  H   -0.037531
   125  H    0.007412
   126  H   -0.023653
   127  H    0.021969
   128  H    0.013728
   129  H    0.030035
   130  H    0.010705
   131  H    0.027842
   132  H    0.008542
   133  H    0.018911
   134  H    0.034131
   135  H    0.048663
   136  H    0.023667
   137  H    0.016862
   138  H    0.018128
   139  H    0.040352
   140  H    0.017685
   141  H    0.042647
   142  H    0.008184
   143  H    0.001968
   144  H    0.024895
   145  H    0.013016
   146  H    0.014133
   147  H    0.012826
   148  H   -0.002223
   149  H    0.027116
   150  H    0.014287
   151  H    0.022611
   152  H    0.015021
   153  H    0.034295
   154  H    0.032781
   155  H    0.026026
   156  H    0.038703
   157  H    0.037264
   158  H    0.007161
 Sum of Mulliken charges =  -0.00000

 Dipole moment (field-independent basis, Debye):
    X=              3.1033    Y=             -2.1099    Z=              5.7770  Tot=              6.8888
 Quadrupole moment (field-independent basis, Debye-Ang):
   XX=           -401.8644   YY=           -475.4933   ZZ=           -497.8314
   XY=             25.0149   XZ=             69.8729   YZ=             13.1966

 Normal termination of Gaussian 16 at Wed Sep 15 00:42:32 2021.
