 Gaussian 16, Revision A.03,
 Gaussian 16:  ES64L-G16RevA.03 25-Dec-2016

 -----------------------------------
 #p cam-b3lyp/Def2SVP td=(nstates=5)
 -----------------------------------

 --------------------------------
 TDDFT excited states in gaussian
 --------------------------------
 Symbolic Z-matrix:
 Charge =  0 Multiplicity = 1

                         Standard orientation:
 ---------------------------------------------------------------------
 Center     Atomic      Atomic             Coordinates (Angstroms)
 Number     Number       Type             X           Y           Z
 ---------------------------------------------------------------------
      1         12           0      -22.227877   -0.163653    0.279004
      2          6           0      -19.677267    1.969259   -0.848540
      3          6           0      -23.744384    0.203491   -2.738899
      4          6           0      -24.282018   -2.494124    1.301649
      5          6           0      -19.965390   -0.979829    2.958821
      6          7           0      -21.778838    1.004086   -1.511841
      7          6           0      -20.687204    1.784284   -1.769640
      8          6           0      -20.671269    2.106053   -3.271491
      9          6           0      -22.151960    2.021289   -3.625128
     10          6           0      -22.554987    0.933053   -2.611596
     11          6           0      -22.907728    3.346504   -3.373613
     12          6           0      -19.803506    1.066415   -4.072748
     13          6           0      -18.448859    1.578051   -4.770139
     14          1           0      -17.107189    0.962261   -4.337943
     15          7           0      -23.763041   -1.070258   -0.615495
     16          6           0      -24.259259   -0.766647   -1.862453
     17          6           0      -25.472543   -1.499107   -2.049212
     18          6           0      -25.770025   -2.230763   -0.852146
     19          6           0      -24.592510   -1.970912    0.025927
     20          6           0      -26.322903   -1.434770   -3.363995
     21          6           0      -27.079653   -3.065649   -0.610428
     22          8           0      -27.957557   -3.047239   -1.417301
     23          6           0      -27.310000   -3.619166    0.718432
     24          7           0      -21.985923   -1.767866    1.732640
     25          6           0      -23.165925   -2.295703    2.136335
     26          6           0      -23.160402   -2.731709    3.591943
     27          6           0      -21.698668   -2.593812    3.989358
     28          6           0      -21.150344   -1.718030    2.809617
     29          6           0      -24.107439   -1.860359    4.497336
     30          6           0      -20.818310   -3.908788    4.232179
     31          6           0      -20.386053   -4.336069    5.609190
     32          7           0      -20.357282    0.489946    1.059768
     33          6           0      -19.566662    0.077734    2.140167
     34          6           0      -18.305338    0.785635    2.179650
     35          6           0      -18.329396    1.552993    1.041072
     36          6           0      -19.569498    1.350010    0.350604
     37          6           0      -17.252006    0.601486    3.191329
     38          6           0      -17.561724    2.512537    0.262193
     39          8           0      -16.477493    3.049765    0.520194
     40          6           0      -18.433699    2.897737   -0.914283
     41          6           0      -18.717451    4.391313   -0.796977
     42          8           0      -19.268104    4.852094    0.200341
     43          8           0      -18.162396    5.108771   -1.868011
     44          6           0      -18.363480    6.531683   -1.803180
     45          1           0      -24.281401    0.465567   -3.652548
     46          1           0      -25.142101   -3.007108    1.734756
     47          1           0      -19.335650   -1.152240    3.834359
     48          1           0      -20.150681    3.057676   -3.381631
     49          1           0      -22.232455    1.720169   -4.668869
     50          1           0      -23.406742    3.433166   -4.338162
     51          1           0      -22.121883    4.085368   -3.214184
     52          1           0      -23.608783    3.363289   -2.539056
     53          1           0      -20.420076    0.696415   -4.891827
     54          1           0      -19.628468    0.211156   -3.420546
     55          1           0      -18.363488    2.628456   -4.490795
     56          1           0      -18.464091    1.561891   -5.859260
     57          1           0      -26.627467   -2.374915   -3.822812
     58          1           0      -25.709169   -0.889644   -4.081860
     59          1           0      -27.243426   -0.863685   -3.241840
     60          1           0      -26.531716   -4.300132    1.063589
     61          1           0      -28.262738   -4.148530    0.708752
     62          1           0      -27.552657   -2.821917    1.419668
     63          1           0      -23.541532   -3.744409    3.727575
     64          1           0      -21.606498   -1.970727    4.878962
     65          1           0      -25.074514   -2.326799    4.684443
     66          1           0      -24.158533   -0.846375    4.100722
     67          1           0      -23.621693   -1.769652    5.469955
     68          1           0      -19.977293   -4.092987    3.564570
     69          1           0      -21.590782   -4.606573    3.907846
     70          1           0      -20.844071   -5.268023    5.939012
     71          1           0      -20.663211   -3.568967    6.332670
     72          1           0      -19.302937   -4.429547    5.533716
     73          1           0      -17.358737   -0.403048    3.601646
     74          1           0      -17.484185    1.312182    3.984998
     75          1           0      -16.266449    0.826958    2.786548
     76          1           0      -17.776942    2.710810   -1.762809
     77          1           0      -19.365272    6.861752   -2.079373
     78          1           0      -17.670234    7.064155   -2.453712
     79          1           0      -18.173973    6.968249   -0.822944
     80         12           0       21.591254   -0.974760   -0.313699
     81          6           0       22.623455    2.427308    0.579549
     82          6           0       18.302237    0.112575    0.211660
     83          6           0       20.614245   -4.054574   -0.747034
     84          6           0       24.867967   -1.764658   -0.947060
     85          7           0       20.608996    0.948007    0.511978
     86          6           0       21.197740    2.268982    0.694480
     87          6           0       20.182033    3.349884    1.122507
     88          6           0       18.826967    2.432387    1.172484
     89          6           0       19.228667    1.052903    0.614610
     90          6           0       18.191040    2.354968    2.546861
     91          6           0       20.202104    4.547858    0.125523
     92          6           0       19.064181    5.514561    0.260063
     93          1           0       19.332833    7.002237    0.211957
     94          7           0       19.700869   -1.899147   -0.256783
     95          6           0       18.459381   -1.292590   -0.034564
     96          6           0       17.396988   -2.290193   -0.147669
     97          6           0       18.058936   -3.551953   -0.442154
     98          6           0       19.534569   -3.239033   -0.502919
     99          6           0       15.857302   -1.981706   -0.059964
    100          6           0       17.523195   -4.928008   -0.610804
    101          8           0       18.193791   -5.912640   -0.891076
    102          6           0       16.070816   -5.165180   -0.558718
    103          7           0       22.549986   -2.602767   -0.855408
    104          6           0       21.972113   -3.805414   -0.856677
    105          6           0       22.953472   -4.939441   -1.235146
    106          6           0       24.147736   -4.140653   -1.714429
    107          6           0       23.887363   -2.721671   -1.075427
    108          6           0       23.282798   -5.864798   -0.069475
    109          6           0       24.507355   -3.999632   -3.170867
    110          6           0       23.465260   -3.283554   -4.003210
    111          7           0       23.402857    0.035534   -0.126199
    112          6           0       24.670730   -0.417586   -0.533180
    113          6           0       25.635521    0.629710   -0.304687
    114          6           0       24.814920    1.731396    0.049522
    115          6           0       23.469005    1.334096    0.163133
    116          6           0       27.109072    0.625293   -0.589592
    117          6           0       24.917279    3.197284    0.328459
    118          8           0       25.884342    3.982954    0.233318
    119          6           0       23.506537    3.645284    0.703998
    120          6           0       23.517673    4.310180    2.082078
    121          8           0       23.791816    3.828100    3.220639
    122          8           0       23.013707    5.566628    1.918617
    123          6           0       22.857782    6.362533    3.157196
    124          1           0       17.283105    0.500709    0.176621
    125          1           0       20.317889   -5.102034   -0.832815
    126          1           0       25.932398   -1.951430   -1.104498
    127          1           0       20.562381    3.735555    2.068344
    128          1           0       18.127049    2.799251    0.421706
    129          1           0       17.169761    2.730427    2.476569
    130          1           0       18.772557    3.014577    3.189974
    131          1           0       18.332538    1.437161    3.117162
    132          1           0       20.331553    4.101978   -0.861259
    133          1           0       21.124465    5.108273    0.278614
    134          1           0       18.489086    5.476559    1.184937
    135          1           0       18.390344    5.392466   -0.587470
    136          1           0       15.466308   -2.253474   -1.040883
    137          1           0       15.634744   -0.931058    0.125716
    138          1           0       15.466595   -2.618343    0.733952
    139          1           0       15.566461   -4.637575    0.251088
    140          1           0       15.995135   -6.239969   -0.397580
    141          1           0       15.699529   -4.689040   -1.465698
    142          1           0       22.471410   -5.529089   -2.014993
    143          1           0       25.086858   -4.534020   -1.324294
    144          1           0       23.313639   -6.888561   -0.440591
    145          1           0       22.524853   -5.802501    0.710655
    146          1           0       24.303897   -5.691394    0.272115
    147          1           0       24.760447   -4.990314   -3.549484
    148          1           0       25.360576   -3.333786   -3.299280
    149          1           0       23.262964   -3.802530   -4.939423
    150          1           0       23.786703   -2.290383   -4.317675
    151          1           0       22.496759   -3.174993   -3.514867
    152          1           0       27.366374    1.493357   -1.196025
    153          1           0       27.578102   -0.223930   -1.086455
    154          1           0       27.615437    0.711576    0.372015
    155          1           0       23.205765    4.431062    0.010454
    156          1           0       21.816761    6.342041    3.478952
    157          1           0       23.247651    7.312696    2.792073
    158          1           0       23.553885    6.057120    3.939443
 ---------------------------------------------------------------------

 SCF Done:  E(RCAM-B3LYP) =  -4069.82516642     A.U. after   19 cycles

 Excitation energies and oscillator strengths:

 Excited State   1:      Singlet-A      1.6630 eV  745.53 nm  f=0.4073  <S**2>=0.000
     310 -> 316        0.16580
     311 -> 313        0.68883
     310 <- 316        0.10533
 This state for optimization and/or second-order correction.
 Total Energy, E(TD-HF/TD-DFT) =  -4069.76405068
 Copying the excited state density for this state as the 1-particle RhoCI density.

 Excited State   2:      Singlet-A      1.7237 eV  719.31 nm  f=0.3568  <S**2>=0.000
     309 -> 315        0.19171
     312 -> 314        0.68301
     309 <- 315        0.11116

 Excited State   3:      Singlet-A      2.1713 eV  571.01 nm  f=0.1378  <S**2>=0.000
     310 -> 313        0.65261
     311 -> 316       -0.25467

 Excited State   4:      Singlet-A      2.2830 eV  543.08 nm  f=0.0523  <S**2>=0.000
     309 -> 314        0.60485
     312 -> 315       -0.35600

 Excited State   5:      Singlet-A      2.9793 eV  416.15 nm  f=0.0000  <S**2>=0.000
     312 -> 313        0.70710

 The electronic state is 1-A.
 Alpha  occ. eigenvalues --  -46.88733 -46.87750 -19.26074 -19.25751 -19.20628
 Alpha  occ. eigenvalues --  -19.19626 -19.19135 -19.18810 -19.18758 -19.18461
 Alpha  occ. eigenvalues --  -14.42493 -14.42183 -14.42159 -14.42125 -14.39951
 Alpha  occ. eigenvalues --  -14.39430 -14.39395 -14.38856 -10.40299 -10.39947
 Alpha  occ. eigenvalues --  -10.35097 -10.34731 -10.34643 -10.34615 -10.31967
 Alpha  occ. eigenvalues --  -10.31902 -10.31557 -10.31494 -10.31365 -10.31180
 Alpha  occ. eigenvalues --  -10.31174 -10.31089 -10.30881 -10.30703 -10.30686
 Alpha  occ. eigenvalues --  -10.30611 -10.30597 -10.30463 -10.29839 -10.29585
 Alpha  occ. eigenvalues --  -10.29344 -10.29257 -10.28955 -10.28945 -10.28872
 Alpha  occ. eigenvalues --  -10.28812 -10.28661 -10.28647 -10.28593 -10.28581
 Alpha  occ. eigenvalues --  -10.28460 -10.28245 -10.28207 -10.28123 -10.27935
 Alpha  occ. eigenvalues --  -10.27922 -10.27864 -10.27863 -10.27590 -10.27526
 Alpha  occ. eigenvalues --  -10.27502 -10.27381 -10.27304 -10.27002 -10.26974
 Alpha  occ. eigenvalues --  -10.26964 -10.26945 -10.26921 -10.26910 -10.26895
 Alpha  occ. eigenvalues --  -10.26830 -10.26480 -10.26282 -10.26275 -10.26274
 Alpha  occ. eigenvalues --  -10.26042 -10.25893 -10.25819 -10.25740 -10.25728
 Alpha  occ. eigenvalues --  -10.25715 -10.25625 -10.25552 -10.25183 -10.24698
 Alpha  occ. eigenvalues --  -10.24557  -3.17343  -3.16490  -1.92217  -1.91814
 Alpha  occ. eigenvalues --   -1.91642  -1.91395  -1.90956  -1.90792  -1.16014
 Alpha  occ. eigenvalues --   -1.15994  -1.11952  -1.10378  -1.09154  -1.08272
 Alpha  occ. eigenvalues --   -1.07797  -1.05755  -1.05046  -1.04830  -1.04322
 Alpha  occ. eigenvalues --   -1.02906  -1.02818  -1.02264  -1.02121  -1.00600
 Alpha  occ. eigenvalues --   -0.93094  -0.92300  -0.89689  -0.89198  -0.89019
 Alpha  occ. eigenvalues --   -0.88855  -0.88690  -0.88554  -0.87661  -0.87317
 Alpha  occ. eigenvalues --   -0.87153  -0.86995  -0.85876  -0.85043  -0.84765
 Alpha  occ. eigenvalues --   -0.84654  -0.84284  -0.84048  -0.82935  -0.82633
 Alpha  occ. eigenvalues --   -0.82567  -0.82294  -0.81415  -0.81085  -0.80904
 Alpha  occ. eigenvalues --   -0.80071  -0.78515  -0.78050  -0.77275  -0.77268
 Alpha  occ. eigenvalues --   -0.76805  -0.76447  -0.76359  -0.75961  -0.75494
 Alpha  occ. eigenvalues --   -0.75153  -0.72935  -0.72757  -0.72170  -0.71947
 Alpha  occ. eigenvalues --   -0.70293  -0.69442  -0.69076  -0.68666  -0.68205
 Alpha  occ. eigenvalues --   -0.67629  -0.67138  -0.66822  -0.65918  -0.65646
 Alpha  occ. eigenvalues --   -0.65058  -0.64912  -0.64657  -0.64504  -0.64322
 Alpha  occ. eigenvalues --   -0.63818  -0.62768  -0.61936  -0.60297  -0.60224
 Alpha  occ. eigenvalues --   -0.60094  -0.59165  -0.59158  -0.59076  -0.58936
 Alpha  occ. eigenvalues --   -0.58547  -0.58317  -0.57727  -0.57714  -0.57396
 Alpha  occ. eigenvalues --   -0.56283  -0.56276  -0.56120  -0.55983  -0.55477
 Alpha  occ. eigenvalues --   -0.55339  -0.55297  -0.55025  -0.54799  -0.54285
 Alpha  occ. eigenvalues --   -0.53998  -0.53587  -0.53456  -0.53241  -0.53068
 Alpha  occ. eigenvalues --   -0.53045  -0.52830  -0.52726  -0.52723  -0.52494
 Alpha  occ. eigenvalues --   -0.52237  -0.52124  -0.51794  -0.51141  -0.51060
 Alpha  occ. eigenvalues --   -0.50939  -0.50827  -0.50726  -0.50505  -0.50380
 Alpha  occ. eigenvalues --   -0.50183  -0.50183  -0.49873  -0.49788  -0.49695
 Alpha  occ. eigenvalues --   -0.49516  -0.49343  -0.49132  -0.48837  -0.48807
 Alpha  occ. eigenvalues --   -0.48729  -0.48539  -0.48443  -0.48382  -0.48136
 Alpha  occ. eigenvalues --   -0.48072  -0.47713  -0.47561  -0.47561  -0.47171
 Alpha  occ. eigenvalues --   -0.47012  -0.46753  -0.46639  -0.46516  -0.46395
 Alpha  occ. eigenvalues --   -0.46339  -0.46182  -0.46149  -0.46013  -0.45994
 Alpha  occ. eigenvalues --   -0.45697  -0.45470  -0.45436  -0.45388  -0.44940
 Alpha  occ. eigenvalues --   -0.44529  -0.44487  -0.44354  -0.44349  -0.44201
 Alpha  occ. eigenvalues --   -0.44177  -0.43971  -0.43903  -0.43607  -0.43485
 Alpha  occ. eigenvalues --   -0.43338  -0.43177  -0.43112  -0.42628  -0.42625
 Alpha  occ. eigenvalues --   -0.42498  -0.42449  -0.42196  -0.42182  -0.42014
 Alpha  occ. eigenvalues --   -0.41846  -0.41774  -0.41750  -0.41641  -0.41199
 Alpha  occ. eigenvalues --   -0.41124  -0.40951  -0.40914  -0.40765  -0.40458
 Alpha  occ. eigenvalues --   -0.40419  -0.40081  -0.39947  -0.39223  -0.39101
 Alpha  occ. eigenvalues --   -0.39012  -0.38890  -0.38035  -0.37513  -0.37326
 Alpha  occ. eigenvalues --   -0.37192  -0.37124  -0.36760  -0.36731  -0.36572
 Alpha  occ. eigenvalues --   -0.36516  -0.36104  -0.34894  -0.34756  -0.34300
 Alpha  occ. eigenvalues --   -0.34091  -0.33528  -0.33064  -0.31508  -0.31449
 Alpha  occ. eigenvalues --   -0.31264  -0.31256  -0.30994  -0.30395  -0.30312
 Alpha  occ. eigenvalues --   -0.30194  -0.29696  -0.29168  -0.24438  -0.24245
 Alpha  occ. eigenvalues --   -0.21472  -0.21039
 Alpha virt. eigenvalues --   -0.09288  -0.08364  -0.02272  -0.01657   0.00336
 Alpha virt. eigenvalues --    0.00453   0.01782   0.02194   0.02697   0.03373
 Alpha virt. eigenvalues --    0.04154   0.04515   0.04968   0.05166   0.05743

 Mulliken charges:
               1
     1  Mg   0.819011
     2  C   -0.027516
     3  C   -0.090343
     4  C   -0.046283
     5  C   -0.087365
     6  N   -0.261355
     7  C   -0.073423
     8  C   -0.067294
     9  C   -0.064265
    10  C    0.017929
    11  C    0.108022
    12  C    0.065030
    13  C   -0.081497
    14  H    0.029313
    15  N   -0.432464
    16  C    0.196347
    17  C   -0.155234
    18  C   -0.066201
    19  C    0.129252
    20  C    0.128363
    21  C    0.011652
    22  O   -0.165176
    23  C    0.046935
    24  N   -0.260877
    25  C    0.045604
    26  C   -0.043773
    27  C   -0.029943
    28  C    0.049922
    29  C    0.066774
    30  C    0.022697
    31  C    0.021385
    32  N   -0.342412
    33  C    0.111597
    34  C   -0.193865
    35  C    0.033618
    36  C    0.152498
    37  C    0.142371
    38  C    0.016917
    39  O   -0.185240
    40  C    0.043554
    41  C    0.222877
    42  O   -0.215991
    43  O   -0.330716
    44  C    0.180774
    45  H   -0.024235
    46  H   -0.052523
    47  H   -0.027333
    48  H   -0.005486
    49  H   -0.002397
    50  H    0.020578
    51  H    0.016872
    52  H    0.032994
    53  H    0.008347
    54  H    0.031372
    55  H    0.028575
    56  H    0.035474
    57  H    0.032258
    58  H   -0.009170
    59  H    0.027855
    60  H    0.050342
    61  H    0.014727
    62  H    0.046918
    63  H    0.006586
    64  H    0.001280
    65  H    0.023871
    66  H    0.019673
    67  H    0.008327
    68  H    0.019288
    69  H   -0.007781
    70  H    0.021990
    71  H    0.005703
    72  H    0.020154
    73  H    0.016078
    74  H    0.034076
    75  H    0.041508
    76  H    0.030771
    77  H    0.024083
    78  H    0.031469
    79  H    0.036546
    80  Mg   0.833736
    81  C   -0.021275
    82  C   -0.080158
    83  C   -0.082769
    84  C   -0.070325
    85  N   -0.301397
    86  C   -0.047376
    87  C   -0.021564
    88  C   -0.058523
    89  C    0.064049
    90  C    0.100730
    91  C    0.032552
    92  C   -0.071185
    93  H    0.011812
    94  N   -0.386350
    95  C    0.147008
    96  C   -0.156141
    97  C   -0.010728
    98  C    0.125035
    99  C    0.113790
   100  C   -0.027313
   101  O   -0.211702
   102  C    0.063953
   103  N   -0.345421
   104  C    0.087689
   105  C   -0.030098
   106  C   -0.026319
   107  C    0.096078
   108  C    0.087961
   109  C    0.059801
   110  C   -0.013216
   111  N   -0.360261
   112  C    0.064889
   113  C   -0.139151
   114  C   -0.053523
   115  C    0.135969
   116  C    0.107481
   117  C    0.083450
   118  O   -0.200418
   119  C    0.008611
   120  C    0.216118
   121  O   -0.257656
   122  O   -0.336363
   123  C    0.163766
   124  H   -0.033209
   125  H   -0.005324
   126  H   -0.025224
   127  H    0.025806
   128  H    0.008766
   129  H    0.023512
   130  H    0.000241
   131  H    0.025547
   132  H    0.009576
   133  H    0.036921
   134  H    0.030390
   135  H    0.032724
   136  H    0.039175
   137  H    0.020339
   138  H    0.045798
   139  H    0.005857
   140  H    0.040870
   141  H    0.037733
   142  H    0.013758
   143  H   -0.013295
   144  H    0.012804
   145  H    0.026533
   146  H    0.015525
   147  H    0.009162
   148  H    0.003996
   149  H    0.005181
   150  H    0.012493
   151  H    0.021983
   152  H    0.039100
   153  H    0.005093
   154  H    0.032594
   155  H    0.049796
   156  H    0.048546
   157  H    0.042667
   158  H    0.059324
 Sum of Mulliken charges =  -0.00000

 Dipole moment (field-independent basis, Debye):
    X=             -6.8245    Y=             -1.0102    Z=              0.1914  Tot=              6.9015
 Quadrupole moment (field-independent basis, Debye-Ang):
   XX=           -689.2382   YY=           -511.0266   ZZ=           -485.3660
   XY=            -35.9641   XZ=            -79.4054   YZ=            -24.8742

 Normal termination of Gaussian 16 at Fri Sep  3 00:20:34 2021.
