 Gaussian 16, Revision A.03,
 Gaussian 16:  ES64L-G16RevA.03 25-Dec-2016

 ----------------------------------------------------------
 #p cam-b3lyp/Def2SVP td=(nstates=5) density=(transition=1)
 ----------------------------------------------------------

 --------------------------------
 TDDFT excited states in gaussian
 --------------------------------
 Symbolic Z-matrix:
 Charge =  0 Multiplicity = 1

                         Standard orientation:
 ---------------------------------------------------------------------
 Center     Atomic      Atomic             Coordinates (Angstroms)
 Number     Number       Type             X           Y           Z
 ---------------------------------------------------------------------
      1         12           0       29.733381    0.054517   -0.317131
      2          6           0       26.498222   -0.305953    1.086625
      3          6           0       28.585321    2.798562   -1.954138
      4          6           0       32.975537    0.842302   -0.970739
      5          6           0       30.829198   -2.436578    1.829115
      6          7           0       27.750715    1.134248   -0.218240
      7          6           0       26.536167    0.792076    0.314558
      8          6           0       25.462120    1.727189   -0.101296
      9          6           0       26.114923    2.501529   -1.341025
     10          6           0       27.553967    2.152808   -1.169690
     11          6           0       25.519748    2.053695   -2.666241
     12          6           0       25.080665    2.561453    1.131635
     13          6           0       23.551840    2.588614    1.555745
     14          1           0       22.780911    3.932815    1.721568
     15          7           0       30.706735    1.552580   -1.346181
     16          6           0       30.016109    2.558970   -2.035552
     17          6           0       30.969533    3.274935   -2.828852
     18          6           0       32.282703    2.763072   -2.554618
     19          6           0       32.014565    1.619352   -1.642178
     20          6           0       30.521760    4.374154   -3.783636
     21          6           0       33.616966    3.230671   -3.091601
     22          8           0       33.516459    4.125736   -3.979990
     23          6           0       35.046434    2.837194   -2.622975
     24          7           0       31.678475   -0.693828    0.326776
     25          6           0       32.863194   -0.217352   -0.115178
     26          6           0       34.084920   -0.932189    0.520516
     27          6           0       33.378402   -2.066739    1.339847
     28          6           0       31.835006   -1.667678    1.192976
     29          6           0       35.008547   -1.435652   -0.574190
     30          6           0       33.769230   -2.155546    2.783501
     31          6           0       34.544594   -3.397936    3.128759
     32          7           0       28.913272   -1.245842    1.005132
     33          6           0       29.431020   -2.273139    1.804108
     34          6           0       28.439002   -3.033497    2.373166
     35          6           0       27.255810   -2.321194    2.089788
     36          6           0       27.608989   -1.209684    1.328055
     37          6           0       28.677627   -4.387543    3.007175
     38          6           0       25.775951   -2.370227    2.228175
     39          8           0       25.093740   -3.195782    2.751173
     40          6           0       25.318490   -0.986563    1.629441
     41          6           0       24.058655   -1.246035    0.832489
     42          8           0       22.921569   -0.961314    1.208541
     43          8           0       24.379787   -1.812737   -0.424878
     44          6           0       23.205743   -1.966405   -1.283504
     45          1           0       28.186564    3.538806   -2.651271
     46          1           0       34.025126    0.996423   -1.232002
     47          1           0       31.120578   -3.063567    2.673603
     48          1           0       24.589667    1.157544   -0.421596
     49          1           0       25.910461    3.565148   -1.221450
     50          1           0       25.300207    0.987466   -2.700520
     51          1           0       26.268992    2.202564   -3.444498
     52          1           0       24.648513    2.631462   -2.974759
     53          1           0       25.404246    3.583787    0.936650
     54          1           0       25.666907    2.327866    2.020377
     55          1           0       23.622578    2.111485    2.533557
     56          1           0       22.981758    1.853201    0.989275
     57          1           0       29.875443    5.092465   -3.279225
     58          1           0       29.934762    3.879759   -4.557563
     59          1           0       31.291835    5.025830   -4.198715
     60          1           0       35.136355    1.801296   -2.948416
     61          1           0       35.087943    2.913104   -1.536352
     62          1           0       35.817318    3.486241   -3.039252
     63          1           0       34.689520   -0.292749    1.163196
     64          1           0       33.457153   -3.013512    0.806125
     65          1           0       35.208930   -0.601243   -1.246496
     66          1           0       34.492580   -2.230735   -1.113402
     67          1           0       35.935402   -1.939531   -0.302684
     68          1           0       32.919595   -2.180925    3.465838
     69          1           0       34.353772   -1.328175    3.185349
     70          1           0       35.470279   -3.089788    3.613253
     71          1           0       34.867383   -3.953056    2.247992
     72          1           0       33.990653   -4.117938    3.732071
     73          1           0       27.702084   -4.872669    3.053079
     74          1           0       29.091805   -4.306962    4.011911
     75          1           0       29.379697   -4.884915    2.338353
     76          1           0       24.949592   -0.471647    2.517256
     77          1           0       23.494647   -1.937689   -2.334215
     78          1           0       22.543734   -1.104792   -1.209637
     79          1           0       22.623910   -2.860182   -1.056589
     80         12           0      -29.795909    0.246967    0.217263
     81          6           0      -26.814583   -1.574171   -0.297885
     82          6           0      -31.323591   -1.577127   -2.235701
     83          6           0      -32.273155    2.421008    0.300244
     84          6           0      -27.966905    2.380049    2.383031
     85          7           0      -29.141207   -1.473939   -1.026430
     86          6           0      -27.937690   -2.012040   -1.039225
     87          6           0      -28.020313   -3.345104   -1.760691
     88          6           0      -29.254146   -3.156414   -2.724965
     89          6           0      -29.980407   -1.980721   -1.970996
     90          6           0      -28.790085   -2.894074   -4.208062
     91          6           0      -28.303237   -4.525925   -0.796804
     92          6           0      -27.912016   -5.969921   -1.340611
     93          1           0      -27.328351   -6.177534   -2.740750
     94          7           0      -31.604243    0.283427   -0.655251
     95          6           0      -32.136848   -0.607178   -1.622355
     96          6           0      -33.538972   -0.212222   -1.892852
     97          6           0      -33.785592    1.026193   -1.198348
     98          6           0      -32.547321    1.335904   -0.451115
     99          6           0      -34.472181   -0.999535   -2.743364
    100          6           0      -35.048362    1.967740   -1.099251
    101          8           0      -35.115210    2.965139   -0.367983
    102          6           0      -36.189595    1.727900   -2.044662
    103          7           0      -30.046447    2.221723    1.126238
    104          6           0      -31.172836    2.879998    1.054988
    105          6           0      -31.220629    4.157600    1.845279
    106          6           0      -29.810172    4.169742    2.532861
    107          6           0      -29.245565    2.789511    2.068818
    108          6           0      -31.627855    5.350452    0.975348
    109          6           0      -29.842610    4.268622    4.052833
    110          6           0      -28.757070    5.184761    4.723280
    111          7           0      -27.786597    0.402562    1.021696
    112          6           0      -27.216136    1.313386    1.932371
    113          6           0      -25.915174    0.855356    2.280598
    114          6           0      -25.617739   -0.164918    1.321760
    115          6           0      -26.774639   -0.429744    0.633627
    116          6           0      -25.096603    1.341444    3.442107
    117          6           0      -24.682803   -1.204186    0.827536
    118          8           0      -23.537930   -1.441582    1.152139
    119          6           0      -25.385352   -1.946776   -0.406471
    120          6           0      -24.926851   -3.365284   -0.499770
    121          8           0      -25.071839   -4.218918    0.324824
    122          8           0      -24.184047   -3.586659   -1.674541
    123          6           0      -23.124147   -4.614724   -1.602840
    124          1           0      -31.810355   -1.977764   -3.127811
    125          1           0      -33.082011    3.123209    0.509788
    126          1           0      -27.457489    3.013583    3.112232
    127          1           0      -27.009325   -3.473232   -2.147316
    128          1           0      -29.899148   -4.035731   -2.727810
    129          1           0      -27.702240   -2.879004   -4.265918
    130          1           0      -29.082805   -1.858901   -4.383787
    131          1           0      -29.131207   -3.634901   -4.931297
    132          1           0      -29.382832   -4.492357   -0.644744
    133          1           0      -27.793737   -4.301963    0.140332
    134          1           0      -28.829014   -6.553019   -1.242986
    135          1           0      -27.221989   -6.366396   -0.595385
    136          1           0      -34.185321   -2.001538   -3.060393
    137          1           0      -34.678073   -0.509820   -3.694734
    138          1           0      -35.360433   -1.104670   -2.119923
    139          1           0      -36.921467    1.005399   -1.683788
    140          1           0      -35.625101    1.396120   -2.916948
    141          1           0      -36.629510    2.706392   -2.235383
    142          1           0      -32.001090    3.937469    2.573535
    143          1           0      -29.155598    4.968294    2.185817
    144          1           0      -31.398911    5.223986   -0.083255
    145          1           0      -31.019495    6.181174    1.330791
    146          1           0      -32.688645    5.588482    1.056924
    147          1           0      -29.730959    3.286859    4.512711
    148          1           0      -30.883547    4.501715    4.276425
    149          1           0      -28.020863    5.528501    3.996883
    150          1           0      -28.259972    4.531833    5.440389
    151          1           0      -29.081620    6.065947    5.277682
    152          1           0      -25.126405    2.428578    3.367371
    153          1           0      -24.053767    1.024093    3.427388
    154          1           0      -25.585035    1.071599    4.378981
    155          1           0      -24.974543   -1.542153   -1.330913
    156          1           0      -23.397677   -5.421944   -2.282471
    157          1           0      -22.976099   -4.987613   -0.588765
    158          1           0      -22.219737   -4.114883   -1.949592
 ---------------------------------------------------------------------

 SCF Done:  E(RCAM-B3LYP) =  -4069.79871860     A.U. after   19 cycles

 Excitation energies and oscillator strengths:

 Excited State   1:      Singlet-A      1.6837 eV  736.38 nm  f=0.3613  <S**2>=0.000
     309 -> 316       -0.17392
     311 -> 313        0.68685
     309 <- 316       -0.10795
 This state for optimization and/or second-order correction.
 Total Energy, E(TD-HF/TD-DFT) =  -4069.73684396
 Copying the excited state density for this state as the 1-particle RhoCI density.

 Excited State   2:      Singlet-A      1.7949 eV  690.77 nm  f=0.3740  <S**2>=0.000
     310 -> 315       -0.18886
     312 -> 314        0.68030
     310 <- 315       -0.10305

 Excited State   3:      Singlet-A      2.1692 eV  571.55 nm  f=0.0991  <S**2>=0.000
     310 -> 314        0.64307
     312 -> 315        0.27289

 Excited State   4:      Singlet-A      2.2196 eV  558.60 nm  f=0.1596  <S**2>=0.000
     309 -> 313        0.64872
     311 -> 316        0.26683

 Excited State   5:      Singlet-A      3.1001 eV  399.94 nm  f=0.0000  <S**2>=0.000
     312 -> 313        0.70711

 The electronic state is 1-A.
 Alpha  occ. eigenvalues --  -46.89013 -46.88523 -19.25631 -19.23248 -19.21011
 Alpha  occ. eigenvalues --  -19.20291 -19.19858 -19.19558 -19.18348 -19.18309
 Alpha  occ. eigenvalues --  -14.42374 -14.42235 -14.41951 -14.41724 -14.40094
 Alpha  occ. eigenvalues --  -14.39727 -14.39003 -14.37988 -10.40357 -10.38530
 Alpha  occ. eigenvalues --  -10.36782 -10.35668 -10.35483 -10.34796 -10.32198
 Alpha  occ. eigenvalues --  -10.31990 -10.31665 -10.31532 -10.31128 -10.30865
 Alpha  occ. eigenvalues --  -10.30860 -10.30799 -10.30672 -10.30640 -10.30619
 Alpha  occ. eigenvalues --  -10.30594 -10.30555 -10.30079 -10.29717 -10.29192
 Alpha  occ. eigenvalues --  -10.29064 -10.28868 -10.28571 -10.28545 -10.28542
 Alpha  occ. eigenvalues --  -10.28410 -10.28331 -10.28324 -10.28207 -10.28193
 Alpha  occ. eigenvalues --  -10.28172 -10.28075 -10.27992 -10.27965 -10.27876
 Alpha  occ. eigenvalues --  -10.27839 -10.27732 -10.27679 -10.27615 -10.27610
 Alpha  occ. eigenvalues --  -10.27577 -10.27483 -10.27378 -10.27371 -10.27305
 Alpha  occ. eigenvalues --  -10.27039 -10.26973 -10.26884 -10.26763 -10.26681
 Alpha  occ. eigenvalues --  -10.26590 -10.26497 -10.26298 -10.26205 -10.26139
 Alpha  occ. eigenvalues --  -10.26064 -10.25962 -10.25958 -10.25857 -10.25848
 Alpha  occ. eigenvalues --  -10.25600 -10.25431 -10.25373 -10.25208 -10.25089
 Alpha  occ. eigenvalues --  -10.24408  -3.17576  -3.16984  -1.92457  -1.92037
 Alpha  occ. eigenvalues --   -1.91897  -1.91881  -1.91441  -1.91280  -1.15593
 Alpha  occ. eigenvalues --   -1.15184  -1.12046  -1.10469  -1.09525  -1.07955
 Alpha  occ. eigenvalues --   -1.07635  -1.06980  -1.05259  -1.05090  -1.04503
 Alpha  occ. eigenvalues --   -1.04278  -1.03362  -1.02758  -1.01678  -1.00954
 Alpha  occ. eigenvalues --   -0.93323  -0.91800  -0.89941  -0.89328  -0.89267
 Alpha  occ. eigenvalues --   -0.89067  -0.88886  -0.87870  -0.87730  -0.87579
 Alpha  occ. eigenvalues --   -0.87220  -0.87019  -0.85960  -0.85424  -0.84846
 Alpha  occ. eigenvalues --   -0.84286  -0.83967  -0.83672  -0.82852  -0.82640
 Alpha  occ. eigenvalues --   -0.81958  -0.81681  -0.80711  -0.80657  -0.80502
 Alpha  occ. eigenvalues --   -0.79849  -0.78584  -0.77821  -0.77469  -0.77173
 Alpha  occ. eigenvalues --   -0.76905  -0.76506  -0.76362  -0.75517  -0.75383
 Alpha  occ. eigenvalues --   -0.75133  -0.73535  -0.72491  -0.72234  -0.71680
 Alpha  occ. eigenvalues --   -0.69812  -0.69421  -0.68998  -0.68605  -0.67722
 Alpha  occ. eigenvalues --   -0.67246  -0.67236  -0.66615  -0.66361  -0.66028
 Alpha  occ. eigenvalues --   -0.65704  -0.65361  -0.65178  -0.64942  -0.64508
 Alpha  occ. eigenvalues --   -0.63449  -0.63130  -0.61031  -0.60541  -0.60188
 Alpha  occ. eigenvalues --   -0.60104  -0.59606  -0.59086  -0.58971  -0.58585
 Alpha  occ. eigenvalues --   -0.58068  -0.58040  -0.57525  -0.56898  -0.56814
 Alpha  occ. eigenvalues --   -0.56441  -0.56239  -0.55838  -0.55640  -0.55420
 Alpha  occ. eigenvalues --   -0.55064  -0.54958  -0.54359  -0.54249  -0.53910
 Alpha  occ. eigenvalues --   -0.53665  -0.53600  -0.53216  -0.53183  -0.53102
 Alpha  occ. eigenvalues --   -0.52808  -0.52710  -0.52296  -0.52162  -0.52056
 Alpha  occ. eigenvalues --   -0.52003  -0.51725  -0.51716  -0.51347  -0.51184
 Alpha  occ. eigenvalues --   -0.51130  -0.50893  -0.50886  -0.50556  -0.50493
 Alpha  occ. eigenvalues --   -0.50301  -0.50159  -0.50052  -0.50016  -0.49877
 Alpha  occ. eigenvalues --   -0.49667  -0.49265  -0.48923  -0.48922  -0.48657
 Alpha  occ. eigenvalues --   -0.48636  -0.48352  -0.48316  -0.48009  -0.48004
 Alpha  occ. eigenvalues --   -0.47821  -0.47740  -0.47504  -0.47300  -0.47224
 Alpha  occ. eigenvalues --   -0.47004  -0.46897  -0.46616  -0.46543  -0.46476
 Alpha  occ. eigenvalues --   -0.46471  -0.46135  -0.46029  -0.45919  -0.45755
 Alpha  occ. eigenvalues --   -0.45544  -0.45503  -0.45431  -0.45316  -0.45162
 Alpha  occ. eigenvalues --   -0.45026  -0.44895  -0.44860  -0.44237  -0.44063
 Alpha  occ. eigenvalues --   -0.43979  -0.43927  -0.43704  -0.43673  -0.43312
 Alpha  occ. eigenvalues --   -0.43278  -0.43059  -0.42722  -0.42662  -0.42585
 Alpha  occ. eigenvalues --   -0.42508  -0.42444  -0.42421  -0.42239  -0.42083
 Alpha  occ. eigenvalues --   -0.41996  -0.41743  -0.41673  -0.41589  -0.41537
 Alpha  occ. eigenvalues --   -0.41404  -0.41340  -0.41133  -0.41119  -0.40961
 Alpha  occ. eigenvalues --   -0.40140  -0.40121  -0.39985  -0.39046  -0.39042
 Alpha  occ. eigenvalues --   -0.38782  -0.38770  -0.38231  -0.37817  -0.37708
 Alpha  occ. eigenvalues --   -0.37544  -0.37337  -0.37259  -0.36430  -0.36362
 Alpha  occ. eigenvalues --   -0.35738  -0.35419  -0.35386  -0.34706  -0.34155
 Alpha  occ. eigenvalues --   -0.33780  -0.33196  -0.33084  -0.31887  -0.31755
 Alpha  occ. eigenvalues --   -0.31174  -0.31130  -0.30590  -0.30459  -0.30025
 Alpha  occ. eigenvalues --   -0.29906  -0.29796  -0.28284  -0.24418  -0.23711
 Alpha  occ. eigenvalues --   -0.21650  -0.21313
 Alpha virt. eigenvalues --   -0.09333  -0.08473  -0.02009  -0.01839  -0.00109
 Alpha virt. eigenvalues --    0.00223   0.01796   0.02400   0.02735   0.03024
 Alpha virt. eigenvalues --    0.04143   0.04838   0.05016   0.05704   0.05783

 Mulliken charges:
               1
     1  Mg  11.998443
     2  C    6.026785
     3  C    5.998493
     4  C    5.960798
     5  C    5.987022
     6  N    7.027658
     7  C    5.969902
     8  C    6.010153
     9  C    5.983201
    10  C    6.026025
    11  C    5.994863
    12  C    6.005472
    13  C    5.999428
    14  H    0.994396
    15  N    6.989773
    16  C    6.043117
    17  C    6.019677
    18  C    6.008911
    19  C    6.048776
    20  C    5.996071
    21  C    6.010912
    22  O    8.019656
    23  C    6.001861
    24  N    6.981525
    25  C    6.041665
    26  C    5.988187
    27  C    6.006765
    28  C    5.981038
    29  C    5.996080
    30  C    6.005385
    31  C    6.002202
    32  N    7.001191
    33  C    5.970691
    34  C    5.971270
    35  C    5.994978
    36  C    5.961738
    37  C    6.000588
    38  C    5.981934
    39  O    7.973483
    40  C    5.996521
    41  C    5.996571
    42  O    7.993672
    43  O    8.002030
    44  C    6.003357
    45  H    1.015410
    46  H    1.000813
    47  H    0.984204
    48  H    1.001605
    49  H    1.005567
    50  H    1.015511
    51  H    0.995092
    52  H    1.010918
    53  H    0.988800
    54  H    1.003742
    55  H    1.004779
    56  H    1.001579
    57  H    1.018023
    58  H    1.018611
    59  H    1.015653
    60  H    1.009967
    61  H    1.010078
    62  H    1.010770
    63  H    1.001039
    64  H    0.997991
    65  H    0.991876
    66  H    1.005234
    67  H    1.006850
    68  H    1.005414
    69  H    0.988891
    70  H    0.992736
    71  H    0.994591
    72  H    1.002248
    73  H    0.984695
    74  H    0.978997
    75  H    0.983478
    76  H    0.995383
    77  H    0.992976
    78  H    0.994375
    79  H    0.999837
    80  Mg  12.000004
    81  C    6.000000
    82  C    6.000003
    83  C    5.999980
    84  C    6.000033
    85  N    7.000009
    86  C    6.000024
    87  C    6.000008
    88  C    6.000020
    89  C    5.999973
    90  C    6.000000
    91  C    5.999994
    92  C    5.999996
    93  H    1.000006
    94  N    7.000013
    95  C    5.999974
    96  C    6.000005
    97  C    6.000010
    98  C    5.999992
    99  C    5.999997
   100  C    5.999944
   101  O    7.999975
   102  C    6.000000
   103  N    6.999984
   104  C    6.000000
   105  C    6.000010
   106  C    5.999987
   107  C    6.000012
   108  C    6.000011
   109  C    5.999991
   110  C    6.000001
   111  N    6.999993
   112  C    5.999979
   113  C    6.000044
   114  C    5.999962
   115  C    5.999991
   116  C    6.000008
   117  C    6.000067
   118  O    8.000041
   119  C    5.999993
   120  C    6.000023
   121  O    8.000018
   122  O    7.999994
   123  C    5.999991
   124  H    0.999988
   125  H    0.999977
   126  H    1.000007
   127  H    0.999997
   128  H    0.999999
   129  H    0.999984
   130  H    0.999989
   131  H    0.999994
   132  H    1.000015
   133  H    0.999999
   134  H    1.000007
   135  H    1.000016
   136  H    0.999981
   137  H    0.999957
   138  H    0.999974
   139  H    0.999986
   140  H    0.999993
   141  H    0.999964
   142  H    1.000000
   143  H    0.999992
   144  H    0.999993
   145  H    0.999970
   146  H    0.999994
   147  H    1.000011
   148  H    1.000010
   149  H    0.999990
   150  H    1.000008
   151  H    1.000001
   152  H    1.000018
   153  H    1.000037
   154  H    1.000042
   155  H    1.000005
   156  H    1.000011
   157  H    1.000024
   158  H    1.000007
 Sum of Mulliken charges = 624.00000

 Dipole moment (field-independent basis, Debye):
    X=              3.1545    Y=              7.7591    Z=             -6.5585  Tot=             10.6381
 Quadrupole moment (field-independent basis, Debye-Ang):
   XX=            184.4094   YY=              1.4942   ZZ=              3.0763
   XY=            231.6729   XZ=           -196.8509   YZ=             -2.8920

 Normal termination of Gaussian 16 at Wed Sep 22 17:36:22 2021.
