 Gaussian 16, Revision A.03,
 Gaussian 16:  ES64L-G16RevA.03 25-Dec-2016

 -----------------------------------
 #p cam-b3lyp/Def2SVP td=(nstates=5)
 -----------------------------------

 --------------------------------
 TDDFT excited states in gaussian
 --------------------------------
 Symbolic Z-matrix:
 Charge =  0 Multiplicity = 1

                         Standard orientation:
 ---------------------------------------------------------------------
 Center     Atomic      Atomic             Coordinates (Angstroms)
 Number     Number       Type             X           Y           Z
 ---------------------------------------------------------------------
      1         12           0      -20.105713   -0.587525    0.001211
      2          6           0      -19.502250    2.471643   -1.469600
      3          6           0      -19.454427    1.023518    3.133025
      4          6           0      -20.315724   -3.480781    1.497249
      5          6           0      -20.378654   -2.081525   -3.106630
      6          7           0      -19.322608    1.526053    0.696918
      7          6           0      -19.390718    2.596610   -0.076496
      8          6           0      -19.437902    3.896830    0.774853
      9          6           0      -18.855999    3.351420    2.125728
     10          6           0      -19.212042    1.858748    2.037513
     11          6           0      -17.309360    3.590860    2.251460
     12          6           0      -20.925300    4.308493    0.845496
     13          6           0      -21.232459    5.655368    1.514084
     14          1           0      -20.151741    6.389077    2.282541
     15          7           0      -20.036996   -1.211450    1.983108
     16          6           0      -19.790260   -0.369179    3.121371
     17          6           0      -20.038550   -1.198251    4.292884
     18          6           0      -20.401244   -2.495904    3.814032
     19          6           0      -20.229921   -2.468356    2.362165
     20          6           0      -19.966733   -0.693301    5.782196
     21          6           0      -20.911023   -3.706288    4.664118
     22          8           0      -21.056416   -4.762102    4.111542
     23          6           0      -21.168594   -3.552554    6.127940
     24          7           0      -20.411987   -2.519595   -0.713028
     25          6           0      -20.470806   -3.594083    0.105672
     26          6           0      -20.609121   -4.917968   -0.645119
     27          6           0      -20.767180   -4.439601   -2.107043
     28          6           0      -20.497023   -2.886297   -1.968150
     29          6           0      -19.425008   -5.935658   -0.455020
     30          6           0      -22.018069   -4.851985   -2.840238
     31          6           0      -23.415185   -4.712769   -2.188890
     32          7           0      -19.968622   -0.019416   -1.930244
     33          6           0      -20.108611   -0.709775   -3.100074
     34          6           0      -20.056500    0.258365   -4.175174
     35          6           0      -19.847634    1.565888   -3.615994
     36          6           0      -19.789296    1.310209   -2.218593
     37          6           0      -20.190685   -0.091538   -5.624379
     38          6           0      -19.621758    2.947961   -3.875910
     39          8           0      -19.533039    3.612395   -4.931365
     40          6           0      -19.115339    3.514102   -2.439557
     41          6           0      -19.692894    4.923736   -2.301877
     42          8           0      -20.822673    5.212012   -2.414848
     43          8           0      -18.655581    5.781794   -2.070921
     44          6           0      -18.964588    7.098204   -1.551676
     45          1           0      -19.189764    1.505935    4.075772
     46          1           0      -20.342953   -4.478574    1.940145
     47          1           0      -20.437138   -2.493283   -4.115584
     48          1           0      -18.762335    4.663411    0.395578
     49          1           0      -19.447668    3.868588    2.881471
     50          1           0      -17.126469    4.413475    2.941707
     51          1           0      -16.924598    3.808454    1.254926
     52          1           0      -16.771869    2.745877    2.681911
     53          1           0      -21.435580    3.569505    1.462700
     54          1           0      -21.424984    4.206584   -0.117360
     55          1           0      -22.203223    5.676648    2.009834
     56          1           0      -21.502557    6.307653    0.683407
     57          1           0      -19.348641   -1.336645    6.409134
     58          1           0      -21.001685   -0.628171    6.117568
     59          1           0      -19.608198    0.336608    5.799465
     60          1           0      -21.942576   -4.301655    6.296448
     61          1           0      -21.640115   -2.601957    6.374571
     62          1           0      -20.340121   -3.480205    6.832514
     63          1           0      -21.529042   -5.360795   -0.264002
     64          1           0      -19.930766   -4.730355   -2.742593
     65          1           0      -19.320345   -6.441878   -1.414280
     66          1           0      -19.817570   -6.604207    0.311448
     67          1           0      -18.546590   -5.428415   -0.056161
     68          1           0      -21.898084   -5.934612   -2.817933
     69          1           0      -22.146455   -4.493776   -3.862211
     70          1           0      -23.999819   -5.616878   -2.024155
     71          1           0      -24.104971   -4.175762   -2.839939
     72          1           0      -23.309003   -4.236508   -1.214100
     73          1           0      -20.046003    0.843785   -6.164311
     74          1           0      -21.208058   -0.423876   -5.835114
     75          1           0      -19.571018   -0.921188   -5.963390
     76          1           0      -18.027311    3.471296   -2.493331
     77          1           0      -18.402906    7.574152   -2.355599
     78          1           0      -18.667275    7.242514   -0.512767
     79          1           0      -20.011812    7.386271   -1.647165
     80         12           0       19.674939   -0.825436    0.041331
     81          6           0       21.512564    2.149995    0.332904
     82          6           0       17.688450    0.071874    2.565257
     83          6           0       18.153700   -3.658023   -0.327314
     84          6           0       22.467817   -2.057128   -1.900691
     85          7           0       19.718563    0.888403    1.346374
     86          6           0       20.395621    2.036310    1.217093
     87          6           0       20.063675    3.013500    2.315157
     88          6           0       19.130533    2.156223    3.261246
     89          6           0       18.806246    0.984347    2.355078
     90          6           0       19.686797    1.712228    4.653005
     91          6           0       19.239620    4.268944    1.725051
     92          6           0       19.787763    5.653248    2.203579
     93          1           0       19.141900    6.877076    1.354171
     94          7           0       18.031779   -1.542043    0.793451
     95          6           0       17.282726   -1.013403    1.830862
     96          6           0       16.040353   -1.731543    1.907306
     97          6           0       16.083508   -2.883567    1.019836
     98          6           0       17.420787   -2.696596    0.337138
     99          6           0       14.993392   -1.310232    2.978151
    100          6           0       15.147875   -4.038574    0.681510
    101          8           0       15.328840   -4.903093   -0.194915
    102          6           0       13.874430   -3.984933    1.448830
    103          7           0       20.367319   -2.601931   -0.851338
    104          6           0       19.463442   -3.635229   -0.828052
    105          6           0       20.063855   -4.901130   -1.440565
    106          6           0       21.278851   -4.319950   -2.210251
    107          6           0       21.441250   -2.930549   -1.590657
    108          6           0       20.323928   -5.976562   -0.312312
    109          6           0       21.139642   -4.259094   -3.790594
    110          6           0       22.446030   -4.246506   -4.600404
    111          7           0       21.596803   -0.127058   -0.699583
    112          6           0       22.556612   -0.741788   -1.445153
    113          6           0       23.609322    0.181131   -1.806152
    114          6           0       23.171805    1.355355   -1.166466
    115          6           0       21.987201    1.110233   -0.457355
    116          6           0       24.891193    0.012148   -2.653761
    117          6           0       23.509152    2.738710   -0.978060
    118          8           0       24.316922    3.470147   -1.488057
    119          6           0       22.497384    3.262890    0.167894
    120          6           0       22.114557    4.565807   -0.382494
    121          8           0       21.239758    4.835264   -1.243986
    122          8           0       22.923729    5.450004    0.226022
    123          6           0       22.812142    6.861226   -0.145534
    124          1           0       16.978521    0.397906    3.328443
    125          1           0       17.609094   -4.585901   -0.515195
    126          1           0       23.235487   -2.451682   -2.569618
    127          1           0       20.923287    3.438305    2.834271
    128          1           0       18.155750    2.587084    3.490626
    129          1           0       19.839432    0.633511    4.619215
    130          1           0       18.896437    1.955591    5.362865
    131          1           0       20.631524    2.132126    4.996592
    132          1           0       18.161220    4.249034    1.886770
    133          1           0       19.258631    4.158946    0.640725
    134          1           0       20.870921    5.695289    2.090988
    135          1           0       19.537460    5.922134    3.229527
    136          1           0       14.334772   -0.568873    2.527805
    137          1           0       15.406119   -0.687924    3.773136
    138          1           0       14.533493   -2.106665    3.562739
    139          1           0       13.274536   -3.092946    1.271811
    140          1           0       14.226936   -4.084486    2.476166
    141          1           0       13.225538   -4.845130    1.281799
    142          1           0       19.294671   -5.286062   -2.110237
    143          1           0       22.149927   -4.950619   -2.032770
    144          1           0       21.392138   -6.064085   -0.114298
    145          1           0       20.001238   -7.003208   -0.483479
    146          1           0       19.953577   -5.739902    0.685370
    147          1           0       20.720436   -3.265829   -3.953467
    148          1           0       20.505735   -5.004750   -4.270932
    149          1           0       22.592905   -3.303507   -5.128578
    150          1           0       22.611104   -5.015488   -5.355346
    151          1           0       23.242619   -4.252571   -3.857745
    152          1           0       25.137830   -1.048497   -2.605728
    153          1           0       25.705830    0.621208   -2.259724
    154          1           0       24.619668    0.282644   -3.674103
    155          1           0       23.049699    3.434609    1.091948
    156          1           0       22.385341    7.406499    0.696079
    157          1           0       22.305335    6.997922   -1.100222
    158          1           0       23.819151    7.267526   -0.239341
 ---------------------------------------------------------------------

 SCF Done:  E(RCAM-B3LYP) =  -4069.79793177     A.U. after   17 cycles

 Excitation energies and oscillator strengths:

 Excited State   1:      Singlet-A      1.7272 eV  717.85 nm  f=0.3642  <S**2>=0.000
     309 -> 315       -0.19727
     311 -> 314        0.68035
     309 <- 315       -0.11052
 This state for optimization and/or second-order correction.
 Total Energy, E(TD-HF/TD-DFT) =  -4069.73446011
 Copying the excited state density for this state as the 1-particle RhoCI density.

 Excited State   2:      Singlet-A      1.7338 eV  715.09 nm  f=0.3906  <S**2>=0.000
     310 -> 316       -0.19600
     312 -> 313        0.68027
     310 <- 316       -0.11059

 Excited State   3:      Singlet-A      2.2194 eV  558.65 nm  f=0.0912  <S**2>=0.000
     310 -> 313        0.63504
     312 -> 316        0.29923

 Excited State   4:      Singlet-A      2.2496 eV  551.14 nm  f=0.0630  <S**2>=0.000
     309 -> 314        0.61703
     311 -> 315        0.33568

 Excited State   5:      Singlet-A      3.2108 eV  386.14 nm  f=0.0000  <S**2>=0.000
     312 -> 314        0.70710

 The electronic state is 1-A.
 Alpha  occ. eigenvalues --  -46.88281 -46.87576 -19.24870 -19.24397 -19.20272
 Alpha  occ. eigenvalues --  -19.19674 -19.19109 -19.19041 -19.19028 -19.18431
 Alpha  occ. eigenvalues --  -14.42602 -14.41746 -14.41742 -14.41733 -14.39462
 Alpha  occ. eigenvalues --  -14.39318 -14.39286 -14.38409 -10.38927 -10.38572
 Alpha  occ. eigenvalues --  -10.36000 -10.35289 -10.35069 -10.34664 -10.31716
 Alpha  occ. eigenvalues --  -10.31474 -10.31196 -10.31008 -10.30791 -10.30724
 Alpha  occ. eigenvalues --  -10.30632 -10.30609 -10.30603 -10.30440 -10.30296
 Alpha  occ. eigenvalues --  -10.30278 -10.30119 -10.30045 -10.29636 -10.29471
 Alpha  occ. eigenvalues --  -10.29326 -10.29234 -10.29020 -10.28784 -10.28727
 Alpha  occ. eigenvalues --  -10.28612 -10.28546 -10.28470 -10.28373 -10.28089
 Alpha  occ. eigenvalues --  -10.27868 -10.27841 -10.27814 -10.27794 -10.27746
 Alpha  occ. eigenvalues --  -10.27739 -10.27716 -10.27708 -10.27685 -10.27668
 Alpha  occ. eigenvalues --  -10.27636 -10.27613 -10.27594 -10.27594 -10.27304
 Alpha  occ. eigenvalues --  -10.26809 -10.26754 -10.26652 -10.26571 -10.26508
 Alpha  occ. eigenvalues --  -10.26479 -10.26473 -10.26435 -10.26289 -10.26281
 Alpha  occ. eigenvalues --  -10.26262 -10.26222 -10.26068 -10.25877 -10.25825
 Alpha  occ. eigenvalues --  -10.25801 -10.25757 -10.25366 -10.25281 -10.24958
 Alpha  occ. eigenvalues --  -10.24443  -3.16918  -3.16419  -1.91817  -1.91389
 Alpha  occ. eigenvalues --   -1.91304  -1.91208  -1.90886  -1.90734  -1.17623
 Alpha  occ. eigenvalues --   -1.15938  -1.11537  -1.10777  -1.09811  -1.09396
 Alpha  occ. eigenvalues --   -1.08020  -1.05552  -1.05248  -1.05195  -1.04307
 Alpha  occ. eigenvalues --   -1.04093  -1.03596  -1.03065  -1.02415  -1.02089
 Alpha  occ. eigenvalues --   -0.93033  -0.92718  -0.89392  -0.89115  -0.88682
 Alpha  occ. eigenvalues --   -0.88551  -0.88266  -0.88050  -0.87452  -0.87321
 Alpha  occ. eigenvalues --   -0.86976  -0.86446  -0.86268  -0.85694  -0.84538
 Alpha  occ. eigenvalues --   -0.84080  -0.83830  -0.83748  -0.82483  -0.82442
 Alpha  occ. eigenvalues --   -0.82274  -0.81778  -0.81438  -0.81272  -0.80306
 Alpha  occ. eigenvalues --   -0.80294  -0.78224  -0.78009  -0.77373  -0.77324
 Alpha  occ. eigenvalues --   -0.76922  -0.76835  -0.75924  -0.75886  -0.75525
 Alpha  occ. eigenvalues --   -0.75407  -0.72792  -0.72698  -0.72136  -0.72020
 Alpha  occ. eigenvalues --   -0.70284  -0.69252  -0.68897  -0.68801  -0.68120
 Alpha  occ. eigenvalues --   -0.67920  -0.67221  -0.66217  -0.66057  -0.65550
 Alpha  occ. eigenvalues --   -0.65202  -0.64936  -0.64867  -0.64449  -0.64313
 Alpha  occ. eigenvalues --   -0.64169  -0.62385  -0.61773  -0.60522  -0.60241
 Alpha  occ. eigenvalues --   -0.59846  -0.59665  -0.59177  -0.59154  -0.58836
 Alpha  occ. eigenvalues --   -0.58643  -0.58158  -0.57980  -0.57933  -0.57159
 Alpha  occ. eigenvalues --   -0.56328  -0.56239  -0.56153  -0.55932  -0.55666
 Alpha  occ. eigenvalues --   -0.55446  -0.55365  -0.54369  -0.54241  -0.53924
 Alpha  occ. eigenvalues --   -0.53651  -0.53535  -0.53439  -0.53220  -0.52980
 Alpha  occ. eigenvalues --   -0.52780  -0.52561  -0.52408  -0.52324  -0.52228
 Alpha  occ. eigenvalues --   -0.52098  -0.51824  -0.51606  -0.51437  -0.51030
 Alpha  occ. eigenvalues --   -0.50777  -0.50735  -0.50733  -0.50392  -0.50171
 Alpha  occ. eigenvalues --   -0.50163  -0.50028  -0.50003  -0.49708  -0.49576
 Alpha  occ. eigenvalues --   -0.49429  -0.49340  -0.49327  -0.49057  -0.48930
 Alpha  occ. eigenvalues --   -0.48789  -0.48490  -0.48249  -0.48155  -0.48119
 Alpha  occ. eigenvalues --   -0.48027  -0.47993  -0.47654  -0.47424  -0.47266
 Alpha  occ. eigenvalues --   -0.46878  -0.46864  -0.46638  -0.46562  -0.46508
 Alpha  occ. eigenvalues --   -0.46351  -0.45974  -0.45914  -0.45852  -0.45720
 Alpha  occ. eigenvalues --   -0.45600  -0.45528  -0.45222  -0.45154  -0.45027
 Alpha  occ. eigenvalues --   -0.44890  -0.44756  -0.44039  -0.43876  -0.43737
 Alpha  occ. eigenvalues --   -0.43565  -0.43482  -0.43376  -0.43279  -0.43102
 Alpha  occ. eigenvalues --   -0.42995  -0.42881  -0.42874  -0.42866  -0.42711
 Alpha  occ. eigenvalues --   -0.42664  -0.42322  -0.42215  -0.42103  -0.42082
 Alpha  occ. eigenvalues --   -0.42006  -0.41914  -0.41893  -0.41585  -0.41448
 Alpha  occ. eigenvalues --   -0.41349  -0.41203  -0.41007  -0.40822  -0.40587
 Alpha  occ. eigenvalues --   -0.40324  -0.40239  -0.39602  -0.39568  -0.39457
 Alpha  occ. eigenvalues --   -0.38784  -0.38415  -0.37967  -0.37849  -0.37526
 Alpha  occ. eigenvalues --   -0.37387  -0.37146  -0.37003  -0.36402  -0.35866
 Alpha  occ. eigenvalues --   -0.35505  -0.35225  -0.35149  -0.33988  -0.33975
 Alpha  occ. eigenvalues --   -0.33940  -0.33360  -0.32976  -0.31732  -0.31597
 Alpha  occ. eigenvalues --   -0.31322  -0.31027  -0.30548  -0.30433  -0.30338
 Alpha  occ. eigenvalues --   -0.29836  -0.29613  -0.29378  -0.24190  -0.23824
 Alpha  occ. eigenvalues --   -0.21122  -0.21111
 Alpha virt. eigenvalues --   -0.08450  -0.08444  -0.02305  -0.01902  -0.00298
 Alpha virt. eigenvalues --    0.00174   0.02399   0.02595   0.03008   0.03141
 Alpha virt. eigenvalues --    0.04784   0.05135   0.05322   0.05837   0.06053

 Mulliken charges:
               1
     1  Mg   0.826035
     2  C   -0.012343
     3  C   -0.069435
     4  C   -0.074882
     5  C   -0.110745
     6  N   -0.226800
     7  C   -0.083289
     8  C   -0.038302
     9  C   -0.040674
    10  C    0.001541
    11  C    0.086691
    12  C    0.038292
    13  C   -0.033819
    14  H    0.030024
    15  N   -0.395508
    16  C    0.163768
    17  C   -0.171020
    18  C   -0.041634
    19  C    0.168864
    20  C    0.109759
    21  C    0.017391
    22  O   -0.181329
    23  C    0.052850
    24  N   -0.266020
    25  C   -0.012115
    26  C   -0.046941
    27  C   -0.006093
    28  C    0.066930
    29  C    0.083999
    30  C    0.038649
    31  C   -0.018434
    32  N   -0.393978
    33  C    0.127058
    34  C   -0.170461
    35  C    0.015082
    36  C    0.149509
    37  C    0.114103
    38  C    0.076172
    39  O   -0.199711
    40  C   -0.076706
    41  C    0.177553
    42  O   -0.154507
    43  O   -0.338144
    44  C    0.149810
    45  H   -0.021775
    46  H   -0.018204
    47  H   -0.032764
    48  H   -0.002268
    49  H   -0.002014
    50  H    0.017243
    51  H    0.023475
    52  H    0.018012
    53  H    0.001272
    54  H    0.042107
    55  H    0.018711
    56  H    0.015692
    57  H    0.037152
    58  H    0.036372
    59  H    0.006395
    60  H    0.032717
    61  H   -0.000050
    62  H    0.047111
    63  H    0.021813
    64  H    0.003775
    65  H    0.024791
    66  H    0.025993
    67  H    0.031869
    68  H    0.004421
    69  H    0.015898
    70  H    0.010619
    71  H    0.010218
    72  H    0.020199
    73  H    0.037327
    74  H    0.019413
    75  H    0.024898
    76  H    0.054932
    77  H    0.050940
    78  H    0.046112
    79  H    0.046406
    80  Mg   0.852801
    81  C    0.059617
    82  C   -0.070785
    83  C   -0.057486
    84  C   -0.106721
    85  N   -0.271018
    86  C    0.000295
    87  C   -0.067206
    88  C   -0.030290
    89  C    0.007040
    90  C    0.073764
    91  C    0.057191
    92  C   -0.089418
    93  H    0.003797
    94  N   -0.473322
    95  C    0.175979
    96  C   -0.108101
    97  C   -0.095531
    98  C    0.154284
    99  C    0.089109
   100  C    0.047434
   101  O   -0.208997
   102  C    0.040330
   103  N   -0.291847
   104  C    0.056793
   105  C   -0.031478
   106  C   -0.009907
   107  C    0.037002
   108  C    0.062901
   109  C    0.033908
   110  C   -0.009101
   111  N   -0.270816
   112  C    0.124393
   113  C   -0.199717
   114  C    0.032780
   115  C    0.059078
   116  C    0.139562
   117  C    0.025840
   118  O   -0.148450
   119  C   -0.069260
   120  C    0.203343
   121  O   -0.256608
   122  O   -0.319716
   123  C    0.175284
   124  H   -0.039483
   125  H    0.000575
   126  H   -0.042862
   127  H    0.011938
   128  H    0.003422
   129  H    0.020775
   130  H    0.015847
   131  H    0.020553
   132  H    0.007591
   133  H    0.035344
   134  H    0.036307
   135  H    0.033608
   136  H    0.029958
   137  H    0.006205
   138  H    0.032699
   139  H    0.052579
   140  H    0.030716
   141  H    0.020726
   142  H    0.015908
   143  H    0.001408
   144  H   -0.000326
   145  H    0.021556
   146  H    0.019805
   147  H    0.012316
   148  H    0.017940
   149  H    0.013144
   150  H    0.020660
   151  H    0.010245
   152  H    0.013433
   153  H    0.043214
   154  H    0.041365
   155  H    0.043554
   156  H    0.032017
   157  H    0.059379
   158  H    0.031133
 Sum of Mulliken charges =  -0.00000

 Dipole moment (field-independent basis, Debye):
    X=             -1.2025    Y=             -2.2777    Z=              8.7377  Tot=              9.1094
 Quadrupole moment (field-independent basis, Debye-Ang):
   XX=           -574.7731   YY=           -511.0081   ZZ=           -497.7082
   XY=            -17.1562   XZ=             -7.1356   YZ=             56.5483

 Normal termination of Gaussian 16 at Wed Sep  1 04:34:39 2021.
