 Gaussian 16, Revision A.03,
 Gaussian 16:  ES64L-G16RevA.03 25-Dec-2016

 ----------------------------------------------------------
 #p cam-b3lyp/Def2SVP td=(nstates=5) density=(transition=1)
 ----------------------------------------------------------

 --------------------------------
 TDDFT excited states in gaussian
 --------------------------------
 Symbolic Z-matrix:
 Charge =  0 Multiplicity = 1

                         Standard orientation:
 ---------------------------------------------------------------------
 Center     Atomic      Atomic             Coordinates (Angstroms)
 Number     Number       Type             X           Y           Z
 ---------------------------------------------------------------------
      1         12           0      -24.801343   -0.611815   -0.347128
      2          6           0      -25.561062    2.400573    1.210337
      3          6           0      -25.118914    0.880358   -3.350805
      4          6           0      -24.841549   -3.654744   -1.822966
      5          6           0      -25.306377   -2.251242    2.753029
      6          7           0      -25.195126    1.408477   -0.888204
      7          6           0      -25.331336    2.561620   -0.146426
      8          6           0      -25.552277    3.784986   -1.078119
      9          6           0      -25.936667    3.081649   -2.416303
     10          6           0      -25.279213    1.718438   -2.258969
     11          6           0      -27.479509    2.925091   -2.656571
     12          6           0      -24.311622    4.690237   -0.969069
     13          6           0      -24.618283    6.137667   -0.896540
     14          1           0      -23.549076    6.967813   -0.345388
     15          7           0      -24.734662   -1.239495   -2.309722
     16          6           0      -24.816227   -0.442868   -3.406636
     17          6           0      -24.404375   -1.208052   -4.556570
     18          6           0      -24.316828   -2.571093   -4.095495
     19          6           0      -24.724502   -2.542345   -2.687785
     20          6           0      -24.269744   -0.636583   -5.922481
     21          6           0      -24.045963   -3.904449   -4.865770
     22          8           0      -23.996583   -5.001768   -4.306362
     23          6           0      -23.685392   -3.902198   -6.325069
     24          7           0      -25.389591   -2.651026    0.366350
     25          6           0      -25.169427   -3.772151   -0.479579
     26          6           0      -25.253675   -5.080632    0.234272
     27          6           0      -25.179101   -4.544876    1.701017
     28          6           0      -25.229317   -3.022228    1.606386
     29          6           0      -26.533680   -5.917114   -0.105038
     30          6           0      -23.878173   -4.989985    2.463912
     31          6           0      -22.541103   -4.712695    1.730612
     32          7           0      -25.218385   -0.074782    1.614748
     33          6           0      -25.344399   -0.843958    2.781883
     34          6           0      -25.600177    0.063539    3.836991
     35          6           0      -25.660648    1.325597    3.259248
     36          6           0      -25.437080    1.178676    1.929979
     37          6           0      -25.718398   -0.298017    5.283350
     38          6           0      -25.938050    2.656265    3.537584
     39          8           0      -26.233138    3.192815    4.621042
     40          6           0      -25.888302    3.504032    2.230818
     41          6           0      -24.758544    4.542122    2.516447
     42          8           0      -23.546519    4.280718    2.616236
     43          8           0      -25.348318    5.795236    2.642356
     44          6           0      -24.515091    6.923383    3.167303
     45          1           0      -25.341148    1.450964   -4.255033
     46          1           0      -24.733358   -4.706236   -2.099626
     47          1           0      -25.262759   -2.675575    3.758319
     48          1           0      -26.353816    4.414092   -0.692463
     49          1           0      -25.444881    3.594558   -3.242314
     50          1           0      -28.131101    3.386996   -1.914285
     51          1           0      -27.772806    1.878357   -2.587345
     52          1           0      -27.735484    3.404601   -3.601149
     53          1           0      -23.780198    4.569761   -1.912053
     54          1           0      -23.731706    4.352998   -0.109534
     55          1           0      -25.458526    6.224416   -0.207455
     56          1           0      -24.963097    6.467042   -1.876504
     57          1           0      -24.175498    0.448774   -5.893194
     58          1           0      -25.043658   -1.076733   -6.552210
     59          1           0      -23.326481   -0.967308   -6.357335
     60          1           0      -23.985708   -4.888968   -6.678215
     61          1           0      -22.606972   -3.813348   -6.458282
     62          1           0      -24.243815   -3.150699   -6.884067
     63          1           0      -24.394386   -5.731618    0.067221
     64          1           0      -26.055552   -4.897029    2.245960
     65          1           0      -27.294769   -5.249259   -0.509442
     66          1           0      -27.004592   -6.450764    0.720680
     67          1           0      -26.405787   -6.705351   -0.847504
     68          1           0      -24.027621   -6.040275    2.714807
     69          1           0      -23.953195   -4.461449    3.414180
     70          1           0      -21.875733   -4.064571    2.301330
     71          1           0      -22.799383   -4.261870    0.772006
     72          1           0      -21.976351   -5.622232    1.528120
     73          1           0      -26.691041    0.076870    5.601857
     74          1           0      -24.878035    0.156645    5.807898
     75          1           0      -25.742317   -1.366260    5.499075
     76          1           0      -26.836342    4.032329    2.133259
     77          1           0      -24.193851    6.621682    4.163982
     78          1           0      -24.984847    7.903066    3.254225
     79          1           0      -23.734814    6.872117    2.407883
     80         12           0       24.636805   -0.635623    0.341924
     81          6           0       25.602846    1.977213   -1.734069
     82          6           0       23.051915    1.762278    2.283024
     83          6           0       24.114935   -3.080154    2.648037
     84          6           0       26.426646   -2.831986   -1.640083
     85          7           0       24.410938    1.621952    0.302435
     86          6           0       24.861083    2.501472   -0.670411
     87          6           0       24.557315    4.017519   -0.349167
     88          6           0       24.016877    3.875773    1.126473
     89          6           0       23.840319    2.320948    1.288313
     90          6           0       24.817156    4.413583    2.316354
     91          6           0       23.581051    4.612613   -1.380380
     92          6           0       24.147674    5.587158   -2.379060
     93          1           0       23.249939    6.771721   -2.778367
     94          7           0       23.559649   -0.745806    2.110037
     95          6           0       22.943589    0.338007    2.653634
     96          6           0       22.322005   -0.148253    3.900862
     97          6           0       22.683609   -1.490950    4.092163
     98          6           0       23.454386   -1.852011    2.966384
     99          6           0       21.385952    0.699721    4.662526
    100          6           0       22.391425   -2.418145    5.235350
    101          8           0       22.686817   -3.645464    5.228748
    102          6           0       21.781240   -2.006268    6.460297
    103          7           0       25.106413   -2.631465    0.446496
    104          6           0       24.764200   -3.450448    1.478340
    105          6           0       25.244235   -4.839001    1.316659
    106          6           0       25.941806   -4.800152   -0.090363
    107          6           0       25.871297   -3.353100   -0.404821
    108          6           0       26.141246   -5.559812    2.365627
    109          6           0       25.339398   -5.809673   -1.187820
    110          6           0       24.103893   -5.466040   -2.071890
    111          7           0       25.819576   -0.527057   -1.310212
    112          6           0       26.450853   -1.500098   -2.030224
    113          6           0       26.944630   -0.970930   -3.225788
    114          6           0       26.690728    0.447339   -3.081481
    115          6           0       25.981730    0.645205   -1.913423
    116          6           0       27.584293   -1.720475   -4.393027
    117          6           0       26.788886    1.679481   -3.809959
    118          8           0       27.158709    1.983359   -4.925860
    119          6           0       26.271821    2.780693   -2.819201
    120          6           0       27.408202    3.579952   -2.319717
    121          8           0       27.840526    3.605125   -1.146382
    122          8           0       28.027528    4.323156   -3.262663
    123          6           0       29.037526    5.356609   -2.850141
    124          1           0       22.610440    2.528608    2.922570
    125          1           0       24.012629   -3.898005    3.364614
    126          1           0       26.861632   -3.484039   -2.401048
    127          1           0       25.466377    4.583939   -0.144291
    128          1           0       23.029247    4.336779    1.118349
    129          1           0       25.205890    3.587409    2.912161
    130          1           0       24.089104    4.864470    2.989088
    131          1           0       25.626680    5.100527    2.067207
    132          1           0       22.859050    5.178325   -0.790330
    133          1           0       23.040941    3.790186   -1.849416
    134          1           0       24.374000    5.027710   -3.287129
    135          1           0       25.106844    6.030857   -2.111816
    136          1           0       20.436977    0.166237    4.626757
    137          1           0       21.219135    1.732481    4.353740
    138          1           0       21.708296    0.754815    5.702282
    139          1           0       22.281704   -1.076458    6.729370
    140          1           0       21.744728   -2.830580    7.171362
    141          1           0       20.755738   -1.675134    6.296401
    142          1           0       24.281863   -5.347649    1.268018
    143          1           0       27.001259   -5.024534    0.027651
    144          1           0       25.627367   -6.397527    2.837158
    145          1           0       26.413324   -4.887346    3.179882
    146          1           0       27.096278   -5.895377    1.961547
    147          1           0       25.031410   -6.653810   -0.570462
    148          1           0       26.242034   -6.050321   -1.749660
    149          1           0       23.761629   -4.433020   -2.015689
    150          1           0       23.268734   -6.165177   -2.020645
    151          1           0       24.460016   -5.652365   -3.084233
    152          1           0       28.580975   -1.342288   -4.622807
    153          1           0       26.980117   -1.522996   -5.278358
    154          1           0       27.594899   -2.805300   -4.284228
    155          1           0       25.707637    3.504867   -3.407133
    156          1           0       29.066876    5.893632   -3.798320
    157          1           0       30.007034    4.961151   -2.548996
    158          1           0       28.639951    5.950492   -2.026552
 ---------------------------------------------------------------------

 SCF Done:  E(RCAM-B3LYP) =  -4069.82067281     A.U. after   19 cycles

 Excitation energies and oscillator strengths:

 Excited State   1:      Singlet-A      1.6607 eV  746.57 nm  f=0.3741  <S**2>=0.000
     309 -> 315       -0.16223
     311 -> 313        0.68893
     309 <- 315       -0.10409
 This state for optimization and/or second-order correction.
 Total Energy, E(TD-HF/TD-DFT) =  -4069.75964216
 Copying the excited state density for this state as the 1-particle RhoCI density.

 Excited State   2:      Singlet-A      1.7035 eV  727.83 nm  f=0.3898  <S**2>=0.000
     310 -> 316        0.17724
     312 -> 314        0.68475
     310 <- 316        0.10754

 Excited State   3:      Singlet-A      2.2075 eV  561.65 nm  f=0.1397  <S**2>=0.000
     310 -> 314        0.65095
     312 -> 316       -0.26117

 Excited State   4:      Singlet-A      2.2190 eV  558.74 nm  f=0.1298  <S**2>=0.000
     309 -> 313        0.64340
     311 -> 315        0.27225

 Excited State   5:      Singlet-A      3.1031 eV  399.54 nm  f=0.0000  <S**2>=0.000
     312 -> 313        0.70711

 The electronic state is 1-A.
 Alpha  occ. eigenvalues --  -46.88335 -46.87529 -19.24758 -19.24065 -19.20025
 Alpha  occ. eigenvalues --  -19.18750 -19.18260 -19.18224 -19.17951 -19.17668
 Alpha  occ. eigenvalues --  -14.42002 -14.41956 -14.41860 -14.41496 -14.39531
 Alpha  occ. eigenvalues --  -14.39361 -14.38519 -14.38358 -10.40043 -10.38539
 Alpha  occ. eigenvalues --  -10.35299 -10.34516 -10.34178 -10.33651 -10.32014
 Alpha  occ. eigenvalues --  -10.31991 -10.30970 -10.30957 -10.30803 -10.30592
 Alpha  occ. eigenvalues --  -10.30570 -10.30466 -10.30336 -10.30255 -10.30240
 Alpha  occ. eigenvalues --  -10.30122 -10.30023 -10.29323 -10.29219 -10.28905
 Alpha  occ. eigenvalues --  -10.28556 -10.28364 -10.28339 -10.28321 -10.28292
 Alpha  occ. eigenvalues --  -10.28260 -10.28229 -10.28147 -10.27923 -10.27896
 Alpha  occ. eigenvalues --  -10.27837 -10.27730 -10.27686 -10.27663 -10.27568
 Alpha  occ. eigenvalues --  -10.27469 -10.27377 -10.27255 -10.27252 -10.27188
 Alpha  occ. eigenvalues --  -10.27142 -10.27091 -10.27029 -10.27027 -10.26905
 Alpha  occ. eigenvalues --  -10.26880 -10.26748 -10.26745 -10.26695 -10.26544
 Alpha  occ. eigenvalues --  -10.26414 -10.26391 -10.26315 -10.25999 -10.25958
 Alpha  occ. eigenvalues --  -10.25953 -10.25912 -10.25889 -10.25844 -10.25762
 Alpha  occ. eigenvalues --  -10.25754 -10.25719 -10.25664 -10.25584 -10.24609
 Alpha  occ. eigenvalues --  -10.23797  -3.16931  -3.16244  -1.91812  -1.91390
 Alpha  occ. eigenvalues --   -1.91234  -1.91154  -1.90703  -1.90548  -1.15134
 Alpha  occ. eigenvalues --   -1.14431  -1.09526  -1.09489  -1.07960  -1.07948
 Alpha  occ. eigenvalues --   -1.06663  -1.05130  -1.04838  -1.04824  -1.04084
 Alpha  occ. eigenvalues --   -1.03916  -1.03532  -1.03237  -1.02241  -1.02226
 Alpha  occ. eigenvalues --   -0.93081  -0.92547  -0.89107  -0.89066  -0.89035
 Alpha  occ. eigenvalues --   -0.88601  -0.88446  -0.88297  -0.87813  -0.87574
 Alpha  occ. eigenvalues --   -0.87143  -0.87007  -0.86550  -0.86096  -0.84614
 Alpha  occ. eigenvalues --   -0.84377  -0.83644  -0.83521  -0.82805  -0.82460
 Alpha  occ. eigenvalues --   -0.82181  -0.81639  -0.81004  -0.80985  -0.80543
 Alpha  occ. eigenvalues --   -0.80406  -0.78553  -0.78222  -0.77508  -0.77087
 Alpha  occ. eigenvalues --   -0.76949  -0.76866  -0.76208  -0.76048  -0.75484
 Alpha  occ. eigenvalues --   -0.75294  -0.73265  -0.73110  -0.72063  -0.71332
 Alpha  occ. eigenvalues --   -0.70103  -0.69807  -0.68781  -0.68773  -0.68000
 Alpha  occ. eigenvalues --   -0.67550  -0.67098  -0.66547  -0.65352  -0.65197
 Alpha  occ. eigenvalues --   -0.65085  -0.64675  -0.64609  -0.64469  -0.64364
 Alpha  occ. eigenvalues --   -0.64081  -0.61578  -0.61490  -0.59958  -0.59901
 Alpha  occ. eigenvalues --   -0.59798  -0.59642  -0.59154  -0.59146  -0.58591
 Alpha  occ. eigenvalues --   -0.58450  -0.57793  -0.57580  -0.57302  -0.57015
 Alpha  occ. eigenvalues --   -0.56167  -0.55996  -0.55635  -0.55633  -0.55343
 Alpha  occ. eigenvalues --   -0.55094  -0.54893  -0.54779  -0.54440  -0.53826
 Alpha  occ. eigenvalues --   -0.53562  -0.53245  -0.53061  -0.52947  -0.52908
 Alpha  occ. eigenvalues --   -0.52823  -0.52525  -0.52479  -0.52436  -0.52073
 Alpha  occ. eigenvalues --   -0.51948  -0.51883  -0.51685  -0.51473  -0.51069
 Alpha  occ. eigenvalues --   -0.50836  -0.50506  -0.50362  -0.50349  -0.50162
 Alpha  occ. eigenvalues --   -0.49759  -0.49648  -0.49635  -0.49424  -0.49402
 Alpha  occ. eigenvalues --   -0.49210  -0.48938  -0.48928  -0.48803  -0.48775
 Alpha  occ. eigenvalues --   -0.48533  -0.48476  -0.48185  -0.48099  -0.47990
 Alpha  occ. eigenvalues --   -0.47926  -0.47763  -0.47699  -0.47378  -0.47225
 Alpha  occ. eigenvalues --   -0.47047  -0.46751  -0.46627  -0.46493  -0.46311
 Alpha  occ. eigenvalues --   -0.46247  -0.46005  -0.45989  -0.45716  -0.45703
 Alpha  occ. eigenvalues --   -0.45483  -0.45399  -0.45262  -0.45169  -0.44800
 Alpha  occ. eigenvalues --   -0.44622  -0.44502  -0.44247  -0.44195  -0.43978
 Alpha  occ. eigenvalues --   -0.43815  -0.43790  -0.43766  -0.43480  -0.43457
 Alpha  occ. eigenvalues --   -0.43413  -0.43204  -0.43070  -0.42891  -0.42757
 Alpha  occ. eigenvalues --   -0.42709  -0.42452  -0.42380  -0.41978  -0.41757
 Alpha  occ. eigenvalues --   -0.41603  -0.41598  -0.41480  -0.41123  -0.41080
 Alpha  occ. eigenvalues --   -0.40860  -0.40791  -0.40663  -0.40330  -0.40311
 Alpha  occ. eigenvalues --   -0.39977  -0.39970  -0.39702  -0.39175  -0.38922
 Alpha  occ. eigenvalues --   -0.38219  -0.38202  -0.38048  -0.37816  -0.37380
 Alpha  occ. eigenvalues --   -0.36909  -0.36845  -0.36612  -0.36502  -0.36387
 Alpha  occ. eigenvalues --   -0.36090  -0.35601  -0.34304  -0.34200  -0.34104
 Alpha  occ. eigenvalues --   -0.33241  -0.33186  -0.32879  -0.31330  -0.30991
 Alpha  occ. eigenvalues --   -0.30839  -0.30611  -0.30070  -0.30031  -0.29892
 Alpha  occ. eigenvalues --   -0.29736  -0.29416  -0.29316  -0.24255  -0.23638
 Alpha  occ. eigenvalues --   -0.21206  -0.21108
 Alpha virt. eigenvalues --   -0.09019  -0.08687  -0.01527  -0.01306   0.00518
 Alpha virt. eigenvalues --    0.00688   0.02182   0.02364   0.02410   0.03570
 Alpha virt. eigenvalues --    0.04946   0.05048   0.05056   0.05644   0.05777

 Mulliken charges:
               1
     1  Mg  11.997493
     2  C    6.031952
     3  C    5.989977
     4  C    5.961695
     5  C    5.988605
     6  N    7.022517
     7  C    5.963201
     8  C    6.002583
     9  C    5.993241
    10  C    6.024628
    11  C    5.995877
    12  C    6.007091
    13  C    5.999643
    14  H    1.001059
    15  N    6.989188
    16  C    6.042892
    17  C    6.020202
    18  C    6.013613
    19  C    6.045642
    20  C    5.994555
    21  C    6.012897
    22  O    8.029695
    23  C    5.994148
    24  N    6.981957
    25  C    6.046910
    26  C    5.982961
    27  C    6.007536
    28  C    5.982208
    29  C    6.000060
    30  C    6.008668
    31  C    6.006779
    32  N    7.004882
    33  C    5.965048
    34  C    5.968802
    35  C    5.998470
    36  C    5.966594
    37  C    6.005163
    38  C    5.986606
    39  O    7.968694
    40  C    5.994601
    41  C    5.997242
    42  O    7.996736
    43  O    7.998423
    44  C    6.000912
    45  H    1.015083
    46  H    1.003769
    47  H    0.982139
    48  H    1.001073
    49  H    1.001621
    50  H    1.017378
    51  H    0.999444
    52  H    1.003624
    53  H    0.986488
    54  H    1.006092
    55  H    1.003851
    56  H    0.993855
    57  H    1.016741
    58  H    1.021017
    59  H    1.019932
    60  H    1.014211
    61  H    1.011350
    62  H    1.003894
    63  H    1.001783
    64  H    0.996853
    65  H    0.999811
    66  H    1.010778
    67  H    0.996819
    68  H    0.989305
    69  H    1.007144
    70  H    1.003154
    71  H    0.984744
    72  H    0.992626
    73  H    0.980053
    74  H    0.978678
    75  H    0.981374
    76  H    0.991795
    77  H    1.001117
    78  H    0.995333
    79  H    0.995424
    80  Mg  11.999988
    81  C    6.000045
    82  C    5.999918
    83  C    5.999905
    84  C    6.000024
    85  N    7.000015
    86  C    5.999898
    87  C    6.000052
    88  C    5.999978
    89  C    6.000116
    90  C    5.999976
    91  C    6.000029
    92  C    6.000018
    93  H    0.999947
    94  N    7.000001
    95  C    6.000249
    96  C    6.000156
    97  C    6.000045
    98  C    6.000186
    99  C    5.999913
   100  C    6.000092
   101  O    8.000133
   102  C    5.999958
   103  N    6.999974
   104  C    6.000170
   105  C    5.999909
   106  C    6.000075
   107  C    5.999836
   108  C    6.000000
   109  C    6.000017
   110  C    6.000025
   111  N    6.999994
   112  C    5.999792
   113  C    5.999872
   114  C    5.999969
   115  C    5.999861
   116  C    6.000051
   117  C    5.999889
   118  O    7.999830
   119  C    6.000013
   120  C    5.999996
   121  O    7.999963
   122  O    8.000000
   123  C    6.000014
   124  H    1.000078
   125  H    1.000052
   126  H    0.999904
   127  H    0.999978
   128  H    1.000013
   129  H    0.999988
   130  H    1.000018
   131  H    1.000074
   132  H    0.999956
   133  H    0.999978
   134  H    1.000011
   135  H    1.000011
   136  H    1.000132
   137  H    1.000135
   138  H    1.000165
   139  H    1.000030
   140  H    1.000099
   141  H    1.000051
   142  H    0.999995
   143  H    1.000002
   144  H    1.000006
   145  H    1.000005
   146  H    1.000058
   147  H    0.999932
   148  H    1.000002
   149  H    1.000007
   150  H    0.999930
   151  H    0.999986
   152  H    0.999884
   153  H    0.999865
   154  H    0.999890
   155  H    0.999936
   156  H    0.999971
   157  H    0.999988
   158  H    0.999976
 Sum of Mulliken charges = 624.00000

 Dipole moment (field-independent basis, Debye):
    X=              1.0110    Y=             -2.3909    Z=            -10.5860  Tot=             10.8996
 Quadrupole moment (field-independent basis, Debye-Ang):
   XX=            -53.1286   YY=              1.2279   ZZ=              7.7092
   XY=             58.3262   XZ=            267.2538   YZ=              8.1840

 Normal termination of Gaussian 16 at Wed Sep 22 09:45:44 2021.
