 Gaussian 16, Revision A.03,
 Gaussian 16:  ES64L-G16RevA.03 25-Dec-2016

 -----------------------------------
 #p cam-b3lyp/Def2SVP td=(nstates=5)
 -----------------------------------

 --------------------------------
 TDDFT excited states in gaussian
 --------------------------------
 Symbolic Z-matrix:
 Charge =  0 Multiplicity = 1

                         Standard orientation:
 ---------------------------------------------------------------------
 Center     Atomic      Atomic             Coordinates (Angstroms)
 Number     Number       Type             X           Y           Z
 ---------------------------------------------------------------------
      1         12           0        0.773841    0.080512   -0.281148
      2          6           0       -2.780040   -0.044711    0.137937
      3          6           0        0.905001   -3.314248    0.221150
      4          6           0        4.149347    0.163144   -0.197759
      5          6           0        0.545375    3.567538    0.198242
      6          7           0       -0.773603   -1.466728    0.116647
      7          6           0       -2.169832   -1.336686    0.181496
      8          6           0       -2.785947   -2.704105    0.330685
      9          6           0       -1.566103   -3.569458    0.860985
     10          6           0       -0.358632   -2.691273    0.419345
     11          6           0       -1.696998   -3.682464    2.421740
     12          6           0       -3.524508   -3.220281   -0.954394
     13          6           0       -4.791090   -3.821319   -0.602525
     14          1           0       -5.795125   -4.064846   -1.838378
     15          7           0        2.247233   -1.461113   -0.190959
     16          6           0        2.092328   -2.779949   -0.023712
     17          6           0        3.365297   -3.423418   -0.134649
     18          6           0        4.335393   -2.448689   -0.238039
     19          6           0        3.584487   -1.109659   -0.270838
     20          6           0        3.541298   -4.960527    0.078477
     21          6           0        5.859272   -2.609286   -0.415268
     22          8           0        6.551074   -1.623408   -0.452867
     23          6           0        6.473053   -3.972404   -0.631783
     24          7           0        2.134534    1.648342    0.243726
     25          6           0        3.493252    1.416894    0.059551
     26          6           0        4.251834    2.703878    0.034036
     27          6           0        3.093372    3.811514    0.139344
     28          6           0        1.831854    2.980669    0.131575
     29          6           0        5.319074    2.776409    1.073269
     30          6           0        3.072163    4.984241   -0.987288
     31          6           0        3.230342    6.383316   -0.539058
     32          7           0       -0.761864    1.531376    0.044476
     33          6           0       -0.659037    2.893050    0.219127
     34          6           0       -2.074401    3.456189    0.330731
     35          6           0       -2.942831    2.355210    0.189630
     36          6           0       -2.093173    1.199986    0.070865
     37          6           0       -2.405509    4.934483    0.576796
     38          6           0       -4.325338    1.995143    0.281794
     39          8           0       -5.341798    2.711086    0.426854
     40          6           0       -4.282190    0.418365    0.423881
     41          6           0       -5.397952   -0.111482   -0.526195
     42          8           0       -5.113288   -0.574302   -1.646020
     43          8           0       -6.599262   -0.057241    0.099648
     44          6           0       -7.677060   -0.376645   -0.898568
     45          1           0        0.940305   -4.404042    0.155629
     46          1           0        5.240635    0.216255   -0.189851
     47          1           0        0.366095    4.643218    0.252692
     48          1           0       -3.478702   -2.624868    1.168181
     49          1           0       -1.566581   -4.572074    0.434837
     50          1           0       -1.442052   -2.763267    2.948586
     51          1           0       -1.091343   -4.520562    2.763892
     52          1           0       -2.727710   -3.938242    2.668423
     53          1           0       -2.942863   -4.067325   -1.318913
     54          1           0       -3.588108   -2.452420   -1.725762
     55          1           0       -5.395252   -3.141734   -0.001243
     56          1           0       -4.575971   -4.768344   -0.106967
     57          1           0        4.041547   -5.275354   -0.837304
     58          1           0        2.611060   -5.522565    0.159998
     59          1           0        4.105897   -5.145064    0.992315
     60          1           0        7.560729   -3.903417   -0.652422
     61          1           0        6.018948   -4.156353   -1.605414
     62          1           0        6.120921   -4.631637    0.161584
     63          1           0        4.681887    2.703394   -0.967714
     64          1           0        3.222384    4.302552    1.103562
     65          1           0        6.248940    2.725219    0.508268
     66          1           0        5.346196    1.898395    1.718425
     67          1           0        5.287936    3.654047    1.719340
     68          1           0        2.053903    4.909064   -1.368759
     69          1           0        3.760032    4.692146   -1.779651
     70          1           0        2.338418    6.970230   -0.756845
     71          1           0        3.992725    6.658654   -1.266996
     72          1           0        3.644464    6.469911    0.466411
     73          1           0       -2.517441    5.033477    1.655925
     74          1           0       -3.327772    5.243729    0.085056
     75          1           0       -1.609718    5.549690    0.156803
     76          1           0       -4.522351    0.261233    1.474532
     77          1           0       -7.887823    0.416354   -1.615899
     78          1           0       -8.629689   -0.674560   -0.461775
     79          1           0       -7.341127   -1.279799   -1.408438
 ---------------------------------------------------------------------

 SCF Done:  E(RCAM-B3LYP) =  -2034.87419171     A.U. after   17 cycles

 Excitation energies and oscillator strengths:

 Excited State   1:      Singlet-A      1.7187 eV  721.38 nm  f=0.3549  <S**2>=0.000
     155 ->158        -0.18763
     156 ->157         0.68233
     155 <-158        -0.10717
 This state for optimization and/or second-order correction.
 Total Energy, E(TD-HF/TD-DFT) =  -2034.81102997
 Copying the excited state density for this state as the 1-particle RhoCI density.

 Excited State   2:      Singlet-A      2.2689 eV  546.46 nm  f=0.0058  <S**2>=0.000
     155 ->157         0.54884
     156 ->158         0.43679

 Excited State   3:      Singlet-A      3.3103 eV  374.54 nm  f=0.7636  <S**2>=0.000
     153 ->157        -0.10066
     155 ->157        -0.42162
     156 ->158         0.54461
     155 <-157         0.10454

 Excited State   4:      Singlet-A      3.5774 eV  346.57 nm  f=0.0566  <S**2>=0.000
     152 ->157        -0.26550
     152 ->159        -0.22964
     152 ->161         0.11391
     153 ->159         0.11781
     154 ->157         0.17334
     155 ->158         0.10060
     156 ->159         0.47502
     156 ->160        -0.19454
     156 ->161        -0.10684

 Excited State   5:      Singlet-A      3.6093 eV  343.51 nm  f=0.0115  <S**2>=0.000
     152 ->157         0.29791
     152 ->159         0.27395
     152 ->161        -0.12458
     153 ->157        -0.18970
     153 ->159        -0.12828
     154 ->157        -0.17336
     156 ->159         0.36262
     156 ->160        -0.23336

 The electronic state is 1-A.
 Alpha  occ. eigenvalues --  -46.89425 -19.26151 -19.19750 -19.19481 -19.18741
 Alpha  occ. eigenvalues --  -14.42262 -14.41907 -14.39359 -14.39146 -10.39713
 Alpha  occ. eigenvalues --  -10.35670 -10.34900 -10.31527 -10.31366 -10.31301
 Alpha  occ. eigenvalues --  -10.31199 -10.30921 -10.30474 -10.29167 -10.28997
 Alpha  occ. eigenvalues --  -10.28962 -10.28762 -10.28655 -10.28610 -10.28147
 Alpha  occ. eigenvalues --  -10.28106 -10.28099 -10.28036 -10.27799 -10.27362
 Alpha  occ. eigenvalues --  -10.27345 -10.27009 -10.26928 -10.26414 -10.26381
 Alpha  occ. eigenvalues --  -10.26285 -10.26242 -10.25945 -10.25872 -10.25353
 Alpha  occ. eigenvalues --  -10.25095 -10.25019 -10.24923  -3.17762  -1.92658
 Alpha  occ. eigenvalues --   -1.92204  -1.92063  -1.16036  -1.11731  -1.07841
 Alpha  occ. eigenvalues --   -1.07120  -1.04075  -1.03025  -1.02694  -1.01426
 Alpha  occ. eigenvalues --   -0.91211  -0.88928  -0.88680  -0.88182  -0.87496
 Alpha  occ. eigenvalues --   -0.87240  -0.85463  -0.84402  -0.83775  -0.82601
 Alpha  occ. eigenvalues --   -0.82506  -0.80667  -0.80448  -0.78207  -0.77532
 Alpha  occ. eigenvalues --   -0.76527  -0.75461  -0.74915  -0.72160  -0.71429
 Alpha  occ. eigenvalues --   -0.68789  -0.67856  -0.67404  -0.66361  -0.65099
 Alpha  occ. eigenvalues --   -0.64950  -0.64424  -0.64287  -0.62029  -0.59911
 Alpha  occ. eigenvalues --   -0.59104  -0.58423  -0.58226  -0.57408  -0.57084
 Alpha  occ. eigenvalues --   -0.55972  -0.55545  -0.55048  -0.54312  -0.53997
 Alpha  occ. eigenvalues --   -0.53965  -0.53539  -0.52957  -0.52733  -0.52580
 Alpha  occ. eigenvalues --   -0.52443  -0.51901  -0.51243  -0.50543  -0.50407
 Alpha  occ. eigenvalues --   -0.50204  -0.50114  -0.49503  -0.49106  -0.48922
 Alpha  occ. eigenvalues --   -0.48639  -0.48189  -0.47988  -0.47834  -0.47421
 Alpha  occ. eigenvalues --   -0.46607  -0.46534  -0.46222  -0.46081  -0.45837
 Alpha  occ. eigenvalues --   -0.45373  -0.44624  -0.44531  -0.44339  -0.44075
 Alpha  occ. eigenvalues --   -0.43736  -0.43446  -0.43146  -0.43015  -0.42830
 Alpha  occ. eigenvalues --   -0.42355  -0.41991  -0.41905  -0.41455  -0.41118
 Alpha  occ. eigenvalues --   -0.40770  -0.40214  -0.39831  -0.38834  -0.38540
 Alpha  occ. eigenvalues --   -0.37859  -0.37258  -0.37075  -0.36945  -0.36137
 Alpha  occ. eigenvalues --   -0.34777  -0.33986  -0.33814  -0.33088  -0.31724
 Alpha  occ. eigenvalues --   -0.31392  -0.30620  -0.30069  -0.29325  -0.24245
 Alpha  occ. eigenvalues --   -0.20195
 Alpha virt. eigenvalues --   -0.07567  -0.02502   0.00014   0.01821   0.02407
 Alpha virt. eigenvalues --    0.04870   0.05464   0.06021   0.07039   0.08177
 Alpha virt. eigenvalues --    0.08711   0.09096   0.09515   0.10268   0.10717

 Mulliken charges:
               1
     1  Mg   0.811218
     2  C    0.053173
     3  C   -0.123002
     4  C   -0.063821
     5  C   -0.065430
     6  N   -0.267879
     7  C   -0.054894
     8  C   -0.044080
     9  C   -0.099876
    10  C    0.112750
    11  C    0.068892
    12  C    0.138606
    13  C   -0.083143
    14  H   -0.006576
    15  N   -0.362790
    16  C    0.148156
    17  C   -0.139278
    18  C   -0.064751
    19  C    0.139350
    20  C    0.103295
    21  C   -0.015280
    22  O   -0.185045
    23  C    0.069075
    24  N   -0.322266
    25  C    0.034094
    26  C   -0.048978
    27  C   -0.011828
    28  C    0.064149
    29  C    0.078932
    30  C    0.007243
    31  C    0.029989
    32  N   -0.332862
    33  C    0.080389
    34  C   -0.182277
    35  C    0.030897
    36  C    0.076632
    37  C    0.117220
    38  C    0.052326
    39  O   -0.200658
    40  C   -0.080727
    41  C    0.223724
    42  O   -0.248573
    43  O   -0.309992
    44  C    0.170754
    45  H   -0.035033
    46  H    0.002004
    47  H   -0.033071
    48  H   -0.004797
    49  H   -0.000970
    50  H    0.028228
    51  H    0.011849
    52  H    0.014443
    53  H   -0.009254
    54  H    0.049581
    55  H    0.031252
    56  H    0.021230
    57  H    0.030216
    58  H    0.013480
    59  H    0.050660
    60  H    0.035176
    61  H    0.045104
    62  H    0.034457
    63  H    0.016498
    64  H    0.007035
    65  H    0.017630
    66  H    0.024261
    67  H    0.016136
    68  H    0.003792
    69  H    0.003977
    70  H    0.022784
    71  H    0.008364
    72  H    0.020797
    73  H    0.040156
    74  H    0.033956
    75  H    0.013512
    76  H    0.060436
    77  H    0.051642
    78  H    0.033610
    79  H    0.044001
 Sum of Mulliken charges =  -0.00000

 Dipole moment (field-independent basis, Debye):
    X=              3.0695    Y=             -3.2710    Z=              0.4521  Tot=              4.5084
 Quadrupole moment (field-independent basis, Debye-Ang):
   XX=           -268.4568   YY=           -228.8633   ZZ=           -258.4281
   XY=              9.5663   XZ=             -2.1976   YZ=             -5.7468

 Normal termination of Gaussian 16 at Wed Sep 15 14:26:09 2021.
