 Gaussian 16, Revision A.03,
 Gaussian 16:  ES64L-G16RevA.03 25-Dec-2016

 ----------------------------------------------------------
 #p cam-b3lyp/Def2SVP td=(nstates=5) density=(transition=1)
 ----------------------------------------------------------

 --------------------------------
 TDDFT excited states in gaussian
 --------------------------------
 Symbolic Z-matrix:
 Charge =  0 Multiplicity = 1

                         Standard orientation:
 ---------------------------------------------------------------------
 Center     Atomic      Atomic             Coordinates (Angstroms)
 Number     Number       Type             X           Y           Z
 ---------------------------------------------------------------------
      1         12           0       -8.934691    0.328867    0.494854
      2          6           0       -8.581843   -2.268215   -1.696157
      3          6           0       -6.414115   -1.207343    2.482158
      4          6           0       -8.965549    3.061065    2.474767
      5          6           0      -10.651567    2.119575   -1.951130
      6          7           0       -7.332395   -1.421776    0.180649
      7          6           0       -7.598929   -2.442244   -0.682092
      8          6           0       -6.584243   -3.537666   -0.504855
      9          6           0       -5.844697   -3.175023    0.855699
     10          6           0       -6.552191   -1.844004    1.263167
     11          6           0       -5.560093   -4.305399    1.775901
     12          6           0       -5.611750   -3.927301   -1.716393
     13          6           0       -5.200518   -2.845909   -2.671092
     14          1           0       -3.717636   -2.739028   -2.998094
     15          7           0       -8.019096    0.729760    2.344293
     16          6           0       -7.070913    0.001277    2.993151
     17          6           0       -6.649713    0.627238    4.211505
     18          6           0       -7.493611    1.852628    4.286079
     19          6           0       -8.219305    1.924685    2.999061
     20          6           0       -5.670549    0.162714    5.180749
     21          6           0       -7.616079    2.859250    5.421010
     22          8           0       -6.883695    2.813787    6.344724
     23          6           0       -8.548903    4.037307    5.474302
     24          7           0       -9.574176    2.309176    0.235365
     25          6           0       -9.628828    3.160815    1.270776
     26          6           0      -10.145497    4.615663    0.787598
     27          6           0      -11.006087    4.147625   -0.485108
     28          6           0      -10.334127    2.824499   -0.765085
     29          6           0      -10.956549    5.410595    1.814712
     30          6           0      -11.034077    5.201209   -1.607077
     31          6           0      -12.354530    5.598019   -2.277733
     32          7           0       -9.418366    0.052679   -1.482035
     33          6           0      -10.154680    0.827638   -2.369477
     34          6           0      -10.435211    0.126935   -3.561913
     35          6           0       -9.895393   -1.133240   -3.364135
     36          6           0       -9.272317   -1.147011   -2.066099
     37          6           0      -11.219551    0.603671   -4.745137
     38          6           0       -9.708825   -2.442647   -3.833738
     39          8           0      -10.077162   -2.905134   -4.911565
     40          6           0       -8.721278   -3.184401   -2.888535
     41          6           0       -9.438397   -4.495309   -2.601187
     42          8           0       -8.921837   -5.623527   -2.746318
     43          8           0      -10.653402   -4.185606   -2.036887
     44          6           0      -11.514388   -5.215666   -1.405891
     45          1           0       -5.553930   -1.662218    2.977638
     46          1           0       -8.807231    3.998164    3.012349
     47          1           0      -11.251343    2.662632   -2.683997
     48          1           0       -7.115953   -4.484482   -0.403532
     49          1           0       -4.861311   -2.803514    0.568994
     50          1           0       -5.855989   -4.110822    2.806699
     51          1           0       -4.533794   -4.661645    1.686880
     52          1           0       -6.181220   -5.157601    1.499960
     53          1           0       -6.014331   -4.682698   -2.391329
     54          1           0       -4.644890   -4.236272   -1.317901
     55          1           0       -5.654669   -1.873583   -2.483158
     56          1           0       -5.560396   -3.144283   -3.656307
     57          1           0       -5.667075   -0.926832    5.178986
     58          1           0       -5.848433    0.513420    6.196644
     59          1           0       -4.700839    0.532679    4.845799
     60          1           0       -9.342298    3.556106    4.901905
     61          1           0       -8.161740    4.909953    4.949211
     62          1           0       -8.879032    4.367488    6.459374
     63          1           0       -9.258778    5.135954    0.424212
     64          1           0      -12.049055    3.868946   -0.336623
     65          1           0      -11.998059    5.368573    1.494812
     66          1           0      -10.495247    6.381506    1.992999
     67          1           0      -10.940613    4.966617    2.809622
     68          1           0      -10.364687    4.839008   -2.387808
     69          1           0      -10.516132    6.088377   -1.242396
     70          1           0      -12.591221    6.657299   -2.378895
     71          1           0      -13.215285    5.065592   -1.870992
     72          1           0      -12.271725    5.097365   -3.241876
     73          1           0      -11.800070   -0.169433   -5.249112
     74          1           0      -10.526176    1.041976   -5.463300
     75          1           0      -11.973277    1.349855   -4.490351
     76          1           0       -7.834015   -3.296030   -3.510566
     77          1           0      -12.005714   -4.854884   -0.502435
     78          1           0      -10.888021   -6.071690   -1.154396
     79          1           0      -12.336682   -5.668208   -1.958679
     80         12           0        9.041850    0.728207   -0.033799
     81          6           0        7.710294   -2.467077    0.664302
     82          6           0        5.891729    2.050109    0.052633
     83          6           0       10.286404    3.488270   -1.338875
     84          6           0       12.177950   -0.838934   -0.576751
     85          7           0        7.047379   -0.129650    0.438524
     86          6           0        6.784525   -1.397024    0.689202
     87          6           0        5.389979   -1.485286    1.282370
     88          6           0        4.669501   -0.209192    0.699044
     89          6           0        5.938638    0.655677    0.353399
     90          6           0        3.700655   -0.586765   -0.485238
     91          6           0        5.396432   -1.403366    2.830502
     92          6           0        4.103887   -1.981529    3.557799
     93          1           0        2.917484   -2.547311    2.772626
     94          7           0        8.261090    2.548041   -0.367412
     95          6           0        6.917783    2.975663   -0.209937
     96          6           0        6.857092    4.427331   -0.499921
     97          6           0        8.150199    4.828494   -0.993649
     98          6           0        9.009006    3.625953   -0.930886
     99          6           0        5.642407    5.262612   -0.297536
    100          6           0        8.726088    6.209833   -1.494826
    101          8           0        9.910942    6.397489   -1.802937
    102          6           0        7.761659    7.332267   -1.747326
    103          7           0       10.957811    1.232584   -0.962972
    104          6           0       11.234217    2.443393   -1.368798
    105          6           0       12.639754    2.650670   -1.859323
    106          6           0       13.279326    1.236858   -1.626106
    107          6           0       12.100163    0.493975   -0.921226
    108          6           0       12.668600    3.250402   -3.268222
    109          6           0       14.528920    1.238217   -0.754523
    110          6           0       15.692274    0.276058   -1.188191
    111          7           0        9.901304   -1.260863    0.082836
    112          6           0       11.215415   -1.721363   -0.130250
    113          6           0       11.291306   -3.084308    0.269968
    114          6           0        9.929333   -3.496621    0.424324
    115          6           0        9.149956   -2.369878    0.352930
    116          6           0       12.555825   -3.858610    0.508486
    117          6           0        8.961808   -4.556010    0.798533
    118          8           0        9.145219   -5.732190    1.033951
    119          6           0        7.489653   -3.931147    0.698092
    120          6           0        6.570212   -4.585520    1.676621
    121          8           0        6.678920   -4.588976    2.867352
    122          8           0        5.562385   -5.317358    1.021222
    123          6           0        5.053369   -6.515481    1.721832
    124          1           0        4.913039    2.500486   -0.128021
    125          1           0       10.830954    4.382979   -1.645800
    126          1           0       13.174478   -1.273480   -0.680219
    127          1           0        5.074931   -2.492324    1.009222
    128          1           0        4.081048    0.302737    1.461203
    129          1           0        3.736738   -1.658996   -0.674974
    130          1           0        4.183419   -0.143447   -1.356190
    131          1           0        2.653638   -0.334270   -0.317132
    132          1           0        5.464749   -0.335101    3.040059
    133          1           0        6.302701   -1.902921    3.172695
    134          1           0        3.759194   -1.160996    4.188935
    135          1           0        4.488316   -2.743032    4.236782
    136          1           0        4.793771    4.844414    0.242587
    137          1           0        5.186213    5.564678   -1.239852
    138          1           0        6.006919    6.107763    0.286907
    139          1           0        7.549283    7.941885   -0.869183
    140          1           0        6.910721    6.752030   -2.106273
    141          1           0        8.187890    7.913499   -2.564544
    142          1           0       13.022437    3.369592   -1.135005
    143          1           0       13.544418    0.714210   -2.544340
    144          1           0       11.776378    3.037064   -3.857694
    145          1           0       13.500787    2.757324   -3.769101
    146          1           0       12.809323    4.331492   -3.262918
    147          1           0       14.289751    0.973282    0.275245
    148          1           0       14.779152    2.294763   -0.659817
    149          1           0       15.384513   -0.381403   -2.001111
    150          1           0       15.883386   -0.330572   -0.303238
    151          1           0       16.649679    0.707184   -1.482620
    152          1           0       13.167235   -3.670901   -0.374281
    153          1           0       12.417256   -4.935300    0.608347
    154          1           0       13.090549   -3.441864    1.362598
    155          1           0        7.042825   -4.252133   -0.242329
    156          1           0        4.003951   -6.340666    1.959495
    157          1           0        5.627056   -6.745416    2.620345
    158          1           0        5.150621   -7.328147    1.002004
 ---------------------------------------------------------------------

 SCF Done:  E(RCAM-B3LYP) =  -4069.74829354     A.U. after   19 cycles

 Excitation energies and oscillator strengths:

 Excited State   1:      Singlet-A      1.6348 eV  758.39 nm  f=0.3848  <S**2>=0.000
     309 -> 315       -0.16902
     311 -> 313        0.68877
     309 <- 315       -0.10868
 This state for optimization and/or second-order correction.
 Total Energy, E(TD-HF/TD-DFT) =  -4069.68821467
 Copying the excited state density for this state as the 1-particle RhoCI density.

 Excited State   2:      Singlet-A      1.7952 eV  690.66 nm  f=0.3634  <S**2>=0.000
     310 -> 316        0.18874
     312 -> 314        0.68029
     310 <- 316        0.10301

 Excited State   3:      Singlet-A      2.1488 eV  576.99 nm  f=0.1468  <S**2>=0.000
     309 -> 313        0.64975
     311 -> 315        0.25439

 Excited State   4:      Singlet-A      2.1694 eV  571.50 nm  f=0.1018  <S**2>=0.000
     310 -> 314        0.64069
     312 -> 316       -0.27194

 Excited State   5:      Singlet-A      2.6150 eV  474.12 nm  f=0.0000  <S**2>=0.000
     312 -> 313        0.70685

 The electronic state is 1-A.
 Alpha  occ. eigenvalues --  -46.90070 -46.88494 -19.26311 -19.23242 -19.20414
 Alpha  occ. eigenvalues --  -19.20263 -19.19547 -19.18589 -19.18324 -19.17362
 Alpha  occ. eigenvalues --  -14.42704 -14.42157 -14.41922 -14.41695 -14.40176
 Alpha  occ. eigenvalues --  -14.39781 -14.39697 -14.37959 -10.40569 -10.38518
 Alpha  occ. eigenvalues --  -10.36754 -10.34772 -10.34387 -10.33700 -10.32898
 Alpha  occ. eigenvalues --  -10.32213 -10.32169 -10.31731 -10.31502 -10.31128
 Alpha  occ. eigenvalues --  -10.31049 -10.30883 -10.30869 -10.30817 -10.30771
 Alpha  occ. eigenvalues --  -10.30589 -10.30567 -10.30295 -10.30052 -10.29688
 Alpha  occ. eigenvalues --  -10.29509 -10.29162 -10.29024 -10.28975 -10.28570
 Alpha  occ. eigenvalues --  -10.28545 -10.28420 -10.28319 -10.28186 -10.28143
 Alpha  occ. eigenvalues --  -10.28089 -10.28083 -10.28046 -10.27926 -10.27922
 Alpha  occ. eigenvalues --  -10.27847 -10.27812 -10.27652 -10.27640 -10.27631
 Alpha  occ. eigenvalues --  -10.27593 -10.27583 -10.27545 -10.27354 -10.27343
 Alpha  occ. eigenvalues --  -10.26919 -10.26890 -10.26857 -10.26845 -10.26813
 Alpha  occ. eigenvalues --  -10.26658 -10.26469 -10.26341 -10.26181 -10.26160
 Alpha  occ. eigenvalues --  -10.26111 -10.26038 -10.25941 -10.25834 -10.25818
 Alpha  occ. eigenvalues --  -10.25634 -10.25575 -10.25402 -10.25289 -10.25201
 Alpha  occ. eigenvalues --  -10.24380  -3.18542  -3.16955  -1.93400  -1.93034
 Alpha  occ. eigenvalues --   -1.92817  -1.91867  -1.91412  -1.91251  -1.15771
 Alpha  occ. eigenvalues --   -1.15174  -1.11540  -1.10441  -1.09501  -1.09467
 Alpha  occ. eigenvalues --   -1.07343  -1.06972  -1.05293  -1.05062  -1.04488
 Alpha  occ. eigenvalues --   -1.04475  -1.03059  -1.02279  -1.01649  -1.00924
 Alpha  occ. eigenvalues --   -0.93810  -0.91775  -0.89970  -0.89240  -0.88858
 Alpha  occ. eigenvalues --   -0.88854  -0.88528  -0.88065  -0.87705  -0.87548
 Alpha  occ. eigenvalues --   -0.87375  -0.87191  -0.86010  -0.85397  -0.84674
 Alpha  occ. eigenvalues --   -0.84118  -0.83939  -0.83647  -0.83218  -0.82824
 Alpha  occ. eigenvalues --   -0.82296  -0.81656  -0.81099  -0.80713  -0.80635
 Alpha  occ. eigenvalues --   -0.79830  -0.78639  -0.78553  -0.77927  -0.77148
 Alpha  occ. eigenvalues --   -0.77112  -0.76813  -0.76342  -0.75598  -0.75364
 Alpha  occ. eigenvalues --   -0.75107  -0.73711  -0.72464  -0.71878  -0.71654
 Alpha  occ. eigenvalues --   -0.70160  -0.69786  -0.69513  -0.68579  -0.68529
 Alpha  occ. eigenvalues --   -0.67210  -0.66694  -0.66590  -0.66401  -0.66001
 Alpha  occ. eigenvalues --   -0.65608  -0.65154  -0.64834  -0.64525  -0.64481
 Alpha  occ. eigenvalues --   -0.63712  -0.63423  -0.61018  -0.60406  -0.60158
 Alpha  occ. eigenvalues --   -0.59519  -0.59059  -0.59016  -0.58560  -0.58184
 Alpha  occ. eigenvalues --   -0.58014  -0.57735  -0.57499  -0.57343  -0.56790
 Alpha  occ. eigenvalues --   -0.56656  -0.56414  -0.55915  -0.55448  -0.55398
 Alpha  occ. eigenvalues --   -0.55232  -0.55040  -0.54585  -0.54230  -0.54081
 Alpha  occ. eigenvalues --   -0.53635  -0.53390  -0.53309  -0.53166  -0.53075
 Alpha  occ. eigenvalues --   -0.52782  -0.52632  -0.52197  -0.52137  -0.51982
 Alpha  occ. eigenvalues --   -0.51977  -0.51927  -0.51691  -0.51472  -0.51324
 Alpha  occ. eigenvalues --   -0.51199  -0.51158  -0.50866  -0.50820  -0.50711
 Alpha  occ. eigenvalues --   -0.50469  -0.50137  -0.50104  -0.49991  -0.49827
 Alpha  occ. eigenvalues --   -0.49585  -0.49301  -0.49241  -0.49121  -0.48901
 Alpha  occ. eigenvalues --   -0.48607  -0.48353  -0.48290  -0.47985  -0.47984
 Alpha  occ. eigenvalues --   -0.47795  -0.47683  -0.47480  -0.47429  -0.47345
 Alpha  occ. eigenvalues --   -0.47276  -0.47208  -0.47022  -0.46981  -0.46539
 Alpha  occ. eigenvalues --   -0.46513  -0.46448  -0.46267  -0.46109  -0.45736
 Alpha  occ. eigenvalues --   -0.45645  -0.45518  -0.45439  -0.45408  -0.45142
 Alpha  occ. eigenvalues --   -0.45006  -0.45003  -0.44838  -0.44276  -0.44212
 Alpha  occ. eigenvalues --   -0.44128  -0.43900  -0.43679  -0.43508  -0.43287
 Alpha  occ. eigenvalues --   -0.43198  -0.43031  -0.42829  -0.42765  -0.42696
 Alpha  occ. eigenvalues --   -0.42560  -0.42490  -0.42212  -0.42182  -0.42070
 Alpha  occ. eigenvalues --   -0.41974  -0.41844  -0.41656  -0.41611  -0.41514
 Alpha  occ. eigenvalues --   -0.41413  -0.41320  -0.41111  -0.40934  -0.40692
 Alpha  occ. eigenvalues --   -0.40348  -0.40095  -0.39959  -0.39156  -0.39017
 Alpha  occ. eigenvalues --   -0.38798  -0.38754  -0.38110  -0.37682  -0.37519
 Alpha  occ. eigenvalues --   -0.37476  -0.36990  -0.36340  -0.36279  -0.35730
 Alpha  occ. eigenvalues --   -0.35713  -0.35379  -0.34892  -0.34137  -0.33983
 Alpha  occ. eigenvalues --   -0.33752  -0.33207  -0.33059  -0.31859  -0.31691
 Alpha  occ. eigenvalues --   -0.31144  -0.31015  -0.30622  -0.30434  -0.29878
 Alpha  occ. eigenvalues --   -0.29673  -0.28478  -0.28256  -0.24587  -0.23682
 Alpha  occ. eigenvalues --   -0.21844  -0.21285
 Alpha virt. eigenvalues --   -0.09788  -0.08443  -0.02083  -0.01980  -0.00080
 Alpha virt. eigenvalues --    0.00027   0.00886   0.02568   0.02762   0.03054
 Alpha virt. eigenvalues --    0.04473   0.04784   0.04854   0.05781   0.05806

 Mulliken charges:
               1
     1  Mg  12.003241
     2  C    6.005404
     3  C    5.977559
     4  C    5.977384
     5  C    6.020810
     6  N    6.992870
     7  C    5.972065
     8  C    6.010526
     9  C    5.984621
    10  C    6.039437
    11  C    5.998870
    12  C    6.000801
    13  C    6.003189
    14  H    0.988631
    15  N    6.993006
    16  C    6.050416
    17  C    6.023894
    18  C    6.007216
    19  C    6.047450
    20  C    5.993700
    21  C    6.010916
    22  O    8.020464
    23  C    6.000180
    24  N    7.004052
    25  C    6.030856
    26  C    5.989666
    27  C    6.013049
    28  C    5.960415
    29  C    5.999543
    30  C    6.001948
    31  C    5.998637
    32  N    7.004377
    33  C    5.959554
    34  C    5.976680
    35  C    5.990525
    36  C    5.971007
    37  C    6.003691
    38  C    5.984540
    39  O    7.964059
    40  C    6.000961
    41  C    5.993950
    42  O    7.988634
    43  O    8.005397
    44  C    6.005701
    45  H    1.008868
    46  H    1.006701
    47  H    0.992402
    48  H    1.001469
    49  H    1.005818
    50  H    0.994036
    51  H    1.004260
    52  H    1.009579
    53  H    1.002945
    54  H    0.989906
    55  H    1.004522
    56  H    1.003882
    57  H    1.020235
    58  H    1.016894
    59  H    1.023699
    60  H    1.004791
    61  H    1.012534
    62  H    1.013543
    63  H    1.004522
    64  H    0.995816
    65  H    1.008521
    66  H    1.001182
    67  H    0.992959
    68  H    1.003112
    69  H    0.989325
    70  H    0.994988
    71  H    0.998882
    72  H    1.005110
    73  H    0.985537
    74  H    0.980811
    75  H    0.980741
    76  H    0.991347
    77  H    0.992520
    78  H    0.992990
    79  H    0.995658
    80  Mg  12.000102
    81  C    5.999485
    82  C    5.999447
    83  C    6.000654
    84  C    6.000280
    85  N    6.999772
    86  C    6.000418
    87  C    5.999948
    88  C    6.000075
    89  C    6.000013
    90  C    6.000095
    91  C    6.000051
    92  C    6.000425
    93  H    0.998999
    94  N    7.000143
    95  C    5.999827
    96  C    5.999617
    97  C    6.000168
    98  C    5.999629
    99  C    6.000329
   100  C    5.999967
   101  O    8.000046
   102  C    5.999899
   103  N    7.000188
   104  C    5.999617
   105  C    6.000053
   106  C    5.999963
   107  C    6.000102
   108  C    5.999885
   109  C    5.999844
   110  C    5.999950
   111  N    6.999948
   112  C    6.000264
   113  C    6.000484
   114  C    6.000162
   115  C    6.000341
   116  C    5.999878
   117  C    6.000172
   118  O    8.000486
   119  C    6.000059
   120  C    5.999793
   121  O    7.999583
   122  O    8.000233
   123  C    5.999999
   124  H    0.999422
   125  H    1.000241
   126  H    1.000445
   127  H    1.000212
   128  H    0.998341
   129  H    1.000490
   130  H    1.000994
   131  H    0.998820
   132  H    0.999843
   133  H    1.000340
   134  H    0.998439
   135  H    1.000158
   136  H    0.998809
   137  H    1.000181
   138  H    0.999571
   139  H    0.999667
   140  H    1.000166
   141  H    1.000330
   142  H    1.000015
   143  H    1.000385
   144  H    1.000268
   145  H    1.000238
   146  H    1.000146
   147  H    0.999863
   148  H    1.000207
   149  H    1.000169
   150  H    0.999963
   151  H    1.000303
   152  H    1.000470
   153  H    1.000363
   154  H    1.000191
   155  H    1.000495
   156  H    0.999470
   157  H    0.999850
   158  H    1.000740
 Sum of Mulliken charges = 624.00000

 Dipole moment (field-independent basis, Debye):
    X=              4.1609    Y=              2.5865    Z=             10.0059  Tot=             11.1410
 Quadrupole moment (field-independent basis, Debye-Ang):
   XX=            -65.3819   YY=             -2.5076   ZZ=              8.5384
   XY=            -23.2304   XZ=            -85.3485   YZ=              3.7555

 Normal termination of Gaussian 16 at Wed Sep 22 00:51:06 2021.
