 Gaussian 16, Revision A.03,
 Gaussian 16:  ES64L-G16RevA.03 25-Dec-2016

 -----------------------------------
 #p cam-b3lyp/Def2SVP td=(nstates=5)
 -----------------------------------

 --------------------------------
 TDDFT excited states in gaussian
 --------------------------------
 Symbolic Z-matrix:
 Charge =  0 Multiplicity = 1

                         Standard orientation:
 ---------------------------------------------------------------------
 Center     Atomic      Atomic             Coordinates (Angstroms)
 Number     Number       Type             X           Y           Z
 ---------------------------------------------------------------------
      1         12           0      -11.178099   -0.091372    0.021245
      2          6           0       -8.068961   -1.007237    1.269243
      3          6           0      -10.352230    3.296291    0.653885
      4          6           0      -13.533022    0.891686   -2.135624
      5          6           0      -11.538792   -3.395906   -1.152903
      6          7           0       -9.197606    1.061112    0.570356
      7          6           0       -8.209159    0.404627    1.263417
      8          6           0       -7.217661    1.362737    1.845251
      9          6           0       -8.064718    2.716872    1.879833
     10          6           0       -9.290950    2.392940    0.955059
     11          6           0       -8.521454    3.225977    3.338901
     12          6           0       -5.841802    1.341444    1.000265
     13          6           0       -4.667715    1.732249    1.745253
     14          1           0       -3.883982    2.894532    1.099523
     15          7           0      -11.980238    1.789612   -0.521312
     16          6           0      -11.501181    3.075764   -0.145361
     17          6           0      -12.396701    4.062373   -0.725305
     18          6           0      -13.354202    3.398630   -1.530303
     19          6           0      -13.034130    1.942212   -1.353907
     20          6           0      -12.156266    5.519604   -0.588269
     21          6           0      -14.440548    4.136714   -2.419359
     22          8           0      -14.449105    5.366090   -2.379986
     23          6           0      -15.619048    3.393559   -3.038983
     24          7           0      -12.256865   -1.123245   -1.476128
     25          6           0      -13.254565   -0.474007   -2.128007
     26          6           0      -14.008298   -1.423806   -3.251037
     27          6           0      -13.501172   -2.866277   -2.767617
     28          6           0      -12.390904   -2.508130   -1.729731
     29          6           0      -15.582683   -1.361464   -3.258170
     30          6           0      -12.947133   -3.722147   -3.908211
     31          6           0      -13.561187   -5.105002   -4.232993
     32          7           0      -10.199789   -1.889997    0.289010
     33          6           0      -10.482940   -3.128046   -0.210443
     34          6           0       -9.573547   -4.083862    0.358999
     35          6           0       -8.550781   -3.229809    0.919735
     36          6           0       -8.995056   -1.902489    0.794148
     37          6           0       -9.562893   -5.564672    0.111332
     38          6           0       -7.224769   -3.243495    1.501398
     39          8           0       -6.575205   -4.157912    1.909194
     40          6           0       -6.822156   -1.754698    1.837049
     41          6           0       -6.677982   -1.448671    3.344163
     42          8           0       -7.503505   -1.729530    4.186300
     43          8           0       -5.406913   -0.891255    3.593625
     44          6           0       -5.041121   -0.707907    4.965684
     45          1           0      -10.070550    4.311329    0.938923
     46          1           0      -14.129071    1.164598   -3.008755
     47          1           0      -11.702138   -4.409675   -1.523103
     48          1           0       -7.069211    1.208731    2.914558
     49          1           0       -7.465907    3.499560    1.412684
     50          1           0       -8.070590    4.212131    3.449172
     51          1           0       -8.208357    2.556181    4.139206
     52          1           0       -9.607487    3.316305    3.302673
     53          1           0       -6.020558    2.075256    0.214526
     54          1           0       -5.876845    0.338102    0.574933
     55          1           0       -4.038204    0.844941    1.800604
     56          1           0       -4.953825    2.085035    2.736065
     57          1           0      -11.414687    5.734356    0.180970
     58          1           0      -13.060090    6.013371   -0.230468
     59          1           0      -11.787973    5.949699   -1.519950
     60          1           0      -15.331824    2.682652   -3.814359
     61          1           0      -16.302644    4.143036   -3.439183
     62          1           0      -16.141235    2.884773   -2.228621
     63          1           0      -13.519187   -1.140098   -4.182504
     64          1           0      -14.216076   -3.426219   -2.164332
     65          1           0      -15.927906   -0.904328   -4.185048
     66          1           0      -15.925619   -0.756496   -2.417964
     67          1           0      -15.934666   -2.390597   -3.179124
     68          1           0      -11.865930   -3.837338   -3.835289
     69          1           0      -12.929699   -3.229368   -4.880172
     70          1           0      -12.958840   -5.987371   -4.015177
     71          1           0      -13.688030   -5.105835   -5.315856
     72          1           0      -14.512702   -5.245901   -3.718877
     73          1           0       -8.971986   -6.015554    0.908983
     74          1           0       -8.910676   -5.893455   -0.697139
     75          1           0      -10.543535   -6.013811   -0.043654
     76          1           0       -5.841370   -1.659278    1.370314
     77          1           0       -4.343910    0.124833    4.867736
     78          1           0       -4.424706   -1.526248    5.337361
     79          1           0       -5.923584   -0.567398    5.588594
     80         12           0       10.787034    0.025550   -0.657667
     81          6           0        8.166773    0.724225    1.616673
     82          6           0       10.662063   -3.196841    0.337240
     83          6           0       13.302782   -0.534040   -2.676621
     84          6           0       11.223043    3.570712   -0.988682
     85          7           0        9.608900   -1.136629    0.912441
     86          6           0        8.449647   -0.652476    1.495107
     87          6           0        7.729245   -1.826939    2.063851
     88          6           0        8.783731   -2.931472    2.140557
     89          6           0        9.768612   -2.444660    1.048254
     90          6           0        9.482800   -2.945039    3.551523
     91          6           0        6.401632   -2.322538    1.273653
     92          6           0        5.120258   -2.734516    2.061187
     93          1           0        5.312235   -3.735188    3.237308
     94          7           0       11.839231   -1.680761   -1.080083
     95          6           0       11.618353   -2.864283   -0.588589
     96          6           0       12.621728   -3.789087   -1.143806
     97          6           0       13.289418   -3.102505   -2.202835
     98          6           0       12.843195   -1.693582   -2.009262
     99          6           0       12.918198   -5.277972   -0.735476
    100          6           0       14.251507   -3.591916   -3.284836
    101          8           0       14.852743   -2.843721   -4.079114
    102          6           0       14.656573   -4.989090   -3.267987
    103          7           0       12.206164    1.410041   -1.565900
    104          6           0       13.116277    0.884511   -2.479295
    105          6           0       13.769815    2.070559   -3.288262
    106          6           0       12.973200    3.309465   -2.808583
    107          6           0       12.036532    2.737751   -1.741954
    108          6           0       15.291938    2.119084   -3.152769
    109          6           0       12.294829    4.156733   -3.914372
    110          6           0       12.316770    5.695242   -3.758599
    111          7           0        9.928166    1.809213    0.129241
    112          6           0       10.230330    3.155684   -0.047983
    113          6           0        9.218799    3.942673    0.610358
    114          6           0        8.430413    3.033754    1.317648
    115          6           0        8.873328    1.720294    0.999413
    116          6           0        9.048563    5.334122    0.538510
    117          6           0        7.258013    2.877351    2.191154
    118          8           0        6.469352    3.675853    2.671558
    119          6           0        7.031505    1.343673    2.395872
    120          6           0        7.050657    1.080641    3.891093
    121          8           0        7.938813    0.898417    4.692704
    122          8           0        5.718848    0.977828    4.171939
    123          6           0        5.332365    0.386135    5.475018
    124          1           0       10.575068   -4.257506    0.583499
    125          1           0       13.991389   -0.789117   -3.484756
    126          1           0       11.195882    4.630212   -1.249938
    127          1           0        7.328983   -1.701069    3.070165
    128          1           0        8.414351   -3.891803    1.781628
    129          1           0        9.791614   -3.936195    3.881986
    130          1           0        8.818369   -2.649045    4.363693
    131          1           0       10.379584   -2.339693    3.423983
    132          1           0        6.678077   -3.093111    0.554756
    133          1           0        6.069090   -1.537242    0.593795
    134          1           0        4.556195   -3.283752    1.306474
    135          1           0        4.725564   -1.763100    2.359055
    136          1           0       12.648048   -6.028513   -1.477968
    137          1           0       12.365159   -5.468851    0.184634
    138          1           0       13.972663   -5.524310   -0.610608
    139          1           0       13.787280   -5.647078   -3.281341
    140          1           0       15.264436   -5.205586   -2.389413
    141          1           0       15.125579   -5.191484   -4.230388
    142          1           0       13.459662    1.930915   -4.323941
    143          1           0       13.596971    3.946457   -2.181784
    144          1           0       15.553086    2.734531   -2.291251
    145          1           0       15.805773    2.604890   -3.981655
    146          1           0       15.649774    1.141672   -2.830850
    147          1           0       11.275481    3.849082   -4.147057
    148          1           0       12.746013    3.959050   -4.887645
    149          1           0       11.342097    5.931403   -3.331334
    150          1           0       12.338071    6.075494   -4.780405
    151          1           0       13.144046    5.996679   -3.116649
    152          1           0        8.512223    5.859747    1.328224
    153          1           0        8.606797    5.543997   -0.436112
    154          1           0       10.055327    5.747911    0.583214
    155          1           0        6.080977    1.044771    1.954380
    156          1           0        4.511259   -0.289052    5.235885
    157          1           0        4.971612    1.081791    6.232235
    158          1           0        6.158688   -0.199306    5.877338
 ---------------------------------------------------------------------

 SCF Done:  E(RCAM-B3LYP) =  -4069.77625093     A.U. after   17 cycles

 Excitation energies and oscillator strengths:

 Excited State   1:      Singlet-A      1.6847 eV  735.95 nm  f=0.3902  <S**2>=0.000
     309 -> 316       -0.17397
     311 -> 313        0.68818
     309 <- 316       -0.10829
 This state for optimization and/or second-order correction.
 Total Energy, E(TD-HF/TD-DFT) =  -4069.71433998
 Copying the excited state density for this state as the 1-particle RhoCI density.

 Excited State   2:      Singlet-A      1.7327 eV  715.55 nm  f=0.3809  <S**2>=0.000
     310 -> 315       -0.19044
     312 -> 314        0.68154
     310 <- 315       -0.10753

 Excited State   3:      Singlet-A      2.2458 eV  552.07 nm  f=0.1109  <S**2>=0.000
     309 -> 313        0.63651
     311 -> 316        0.29147

 Excited State   4:      Singlet-A      2.2616 eV  548.21 nm  f=0.0670  <S**2>=0.000
     310 -> 314        0.62136
     312 -> 315        0.32187

 Excited State   5:      Singlet-A      2.8696 eV  432.06 nm  f=0.0000  <S**2>=0.000
     312 -> 313        0.70705

 The electronic state is 1-A.
 Alpha  occ. eigenvalues --  -46.89811 -46.89326 -19.25143 -19.24324 -19.20757
 Alpha  occ. eigenvalues --  -19.19994 -19.19704 -19.19217 -19.18645 -19.18282
 Alpha  occ. eigenvalues --  -14.42318 -14.42024 -14.41736 -14.41378 -14.40208
 Alpha  occ. eigenvalues --  -14.39814 -14.39094 -14.38913 -10.40097 -10.39195
 Alpha  occ. eigenvalues --  -10.36388 -10.35483 -10.34779 -10.34042 -10.31819
 Alpha  occ. eigenvalues --  -10.31659 -10.31636 -10.31467 -10.31422 -10.31202
 Alpha  occ. eigenvalues --  -10.30982 -10.30766 -10.30709 -10.30565 -10.30488
 Alpha  occ. eigenvalues --  -10.30300 -10.29994 -10.29943 -10.29766 -10.29664
 Alpha  occ. eigenvalues --  -10.29502 -10.29412 -10.29298 -10.28667 -10.28525
 Alpha  occ. eigenvalues --  -10.28519 -10.28468 -10.28230 -10.28170 -10.28141
 Alpha  occ. eigenvalues --  -10.28128 -10.28119 -10.27876 -10.27862 -10.27822
 Alpha  occ. eigenvalues --  -10.27669 -10.27665 -10.27621 -10.27609 -10.27522
 Alpha  occ. eigenvalues --  -10.27469 -10.27437 -10.27280 -10.27274 -10.27142
 Alpha  occ. eigenvalues --  -10.27050 -10.26882 -10.26677 -10.26648 -10.26500
 Alpha  occ. eigenvalues --  -10.26455 -10.26450 -10.26411 -10.26341 -10.26274
 Alpha  occ. eigenvalues --  -10.26158 -10.26009 -10.25887 -10.25776 -10.25727
 Alpha  occ. eigenvalues --  -10.25656 -10.25595 -10.25459 -10.25226 -10.24756
 Alpha  occ. eigenvalues --  -10.24645  -3.18229  -3.17714  -1.93079  -1.92739
 Alpha  occ. eigenvalues --   -1.92611  -1.92496  -1.92171  -1.92006  -1.16093
 Alpha  occ. eigenvalues --   -1.16079  -1.10821  -1.10299  -1.09555  -1.09323
 Alpha  occ. eigenvalues --   -1.08749  -1.07724  -1.05108  -1.04925  -1.03892
 Alpha  occ. eigenvalues --   -1.03014  -1.02926  -1.02392  -1.02027  -1.01608
 Alpha  occ. eigenvalues --   -0.92724  -0.92257  -0.89234  -0.88842  -0.88427
 Alpha  occ. eigenvalues --   -0.88368  -0.88189  -0.87936  -0.87521  -0.87081
 Alpha  occ. eigenvalues --   -0.86883  -0.86841  -0.86440  -0.85828  -0.84181
 Alpha  occ. eigenvalues --   -0.84091  -0.83556  -0.83389  -0.82700  -0.82672
 Alpha  occ. eigenvalues --   -0.82425  -0.82245  -0.81458  -0.81160  -0.80552
 Alpha  occ. eigenvalues --   -0.80263  -0.78344  -0.77854  -0.77413  -0.77343
 Alpha  occ. eigenvalues --   -0.76980  -0.76762  -0.76139  -0.75820  -0.75070
 Alpha  occ. eigenvalues --   -0.74940  -0.72675  -0.72465  -0.71773  -0.71354
 Alpha  occ. eigenvalues --   -0.69263  -0.68851  -0.68714  -0.68446  -0.67652
 Alpha  occ. eigenvalues --   -0.67451  -0.67300  -0.66507  -0.65937  -0.65439
 Alpha  occ. eigenvalues --   -0.65266  -0.64988  -0.64825  -0.64502  -0.64283
 Alpha  occ. eigenvalues --   -0.64107  -0.62836  -0.61899  -0.60439  -0.59664
 Alpha  occ. eigenvalues --   -0.59554  -0.59493  -0.59189  -0.59002  -0.58578
 Alpha  occ. eigenvalues --   -0.58278  -0.58018  -0.57903  -0.57479  -0.57459
 Alpha  occ. eigenvalues --   -0.56343  -0.56111  -0.55853  -0.55345  -0.55162
 Alpha  occ. eigenvalues --   -0.54977  -0.54847  -0.54427  -0.54023  -0.53659
 Alpha  occ. eigenvalues --   -0.53520  -0.53246  -0.53201  -0.53163  -0.52901
 Alpha  occ. eigenvalues --   -0.52736  -0.52593  -0.52455  -0.52373  -0.52098
 Alpha  occ. eigenvalues --   -0.52071  -0.51745  -0.51652  -0.51648  -0.51531
 Alpha  occ. eigenvalues --   -0.51168  -0.51061  -0.50816  -0.50763  -0.50375
 Alpha  occ. eigenvalues --   -0.50218  -0.50097  -0.49936  -0.49704  -0.49622
 Alpha  occ. eigenvalues --   -0.49562  -0.49316  -0.49231  -0.49167  -0.48938
 Alpha  occ. eigenvalues --   -0.48777  -0.48776  -0.48451  -0.48138  -0.48027
 Alpha  occ. eigenvalues --   -0.47909  -0.47624  -0.47337  -0.47316  -0.47091
 Alpha  occ. eigenvalues --   -0.47036  -0.46962  -0.46847  -0.46603  -0.46430
 Alpha  occ. eigenvalues --   -0.46212  -0.46169  -0.45926  -0.45873  -0.45691
 Alpha  occ. eigenvalues --   -0.45505  -0.45233  -0.44989  -0.44972  -0.44882
 Alpha  occ. eigenvalues --   -0.44776  -0.44652  -0.44530  -0.44310  -0.44080
 Alpha  occ. eigenvalues --   -0.43996  -0.43983  -0.43810  -0.43639  -0.43550
 Alpha  occ. eigenvalues --   -0.43399  -0.43121  -0.42977  -0.42921  -0.42729
 Alpha  occ. eigenvalues --   -0.42688  -0.42673  -0.42507  -0.42245  -0.42202
 Alpha  occ. eigenvalues --   -0.42122  -0.41872  -0.41497  -0.41444  -0.41175
 Alpha  occ. eigenvalues --   -0.41084  -0.40974  -0.40828  -0.40498  -0.40457
 Alpha  occ. eigenvalues --   -0.40206  -0.39822  -0.39786  -0.39576  -0.38736
 Alpha  occ. eigenvalues --   -0.38666  -0.38183  -0.37728  -0.37605  -0.37340
 Alpha  occ. eigenvalues --   -0.37075  -0.36698  -0.36464  -0.36413  -0.36232
 Alpha  occ. eigenvalues --   -0.35883  -0.35599  -0.34799  -0.34625  -0.34274
 Alpha  occ. eigenvalues --   -0.33856  -0.33292  -0.33059  -0.31646  -0.31593
 Alpha  occ. eigenvalues --   -0.31262  -0.31126  -0.30515  -0.30426  -0.30231
 Alpha  occ. eigenvalues --   -0.29990  -0.29218  -0.29192  -0.24329  -0.23926
 Alpha  occ. eigenvalues --   -0.21181  -0.20926
 Alpha virt. eigenvalues --   -0.08795  -0.08235  -0.02015  -0.01659  -0.00094
 Alpha virt. eigenvalues --    0.00379   0.01323   0.01798   0.02147   0.02361
 Alpha virt. eigenvalues --    0.04560   0.04675   0.05287   0.05829   0.05865

 Mulliken charges:
               1
     1  Mg   0.828021
     2  C   -0.072514
     3  C   -0.057761
     4  C   -0.081688
     5  C   -0.081515
     6  N   -0.265493
     7  C   -0.081194
     8  C   -0.050692
     9  C   -0.081918
    10  C    0.007786
    11  C    0.060749
    12  C    0.092650
    13  C   -0.035749
    14  H    0.004304
    15  N   -0.385539
    16  C    0.158148
    17  C   -0.142403
    18  C   -0.067423
    19  C    0.178953
    20  C    0.143990
    21  C    0.031901
    22  O   -0.206380
    23  C    0.035028
    24  N   -0.335728
    25  C    0.049523
    26  C   -0.075325
    27  C    0.031373
    28  C    0.005852
    29  C    0.071064
    30  C    0.014045
    31  C   -0.000408
    32  N   -0.323355
    33  C    0.132876
    34  C   -0.155355
    35  C   -0.033090
    36  C    0.194990
    37  C    0.109708
    38  C    0.027169
    39  O   -0.144477
    40  C   -0.009921
    41  C    0.212529
    42  O   -0.191240
    43  O   -0.358144
    44  C    0.169289
    45  H   -0.013542
    46  H   -0.041841
    47  H   -0.033124
    48  H    0.008120
    49  H    0.010605
    50  H    0.022383
    51  H    0.030885
    52  H    0.021730
    53  H    0.012239
    54  H    0.013777
    55  H    0.039917
    56  H    0.028401
    57  H   -0.012056
    58  H    0.032781
    59  H    0.042314
    60  H    0.049807
    61  H    0.031316
    62  H    0.045632
    63  H    0.029919
    64  H    0.018142
    65  H    0.017704
    66  H    0.025685
    67  H    0.023935
    68  H    0.007527
    69  H   -0.005529
    70  H    0.018641
    71  H    0.012193
    72  H    0.011931
    73  H    0.025986
    74  H    0.020491
    75  H    0.022561
    76  H    0.044129
    77  H    0.028857
    78  H    0.035301
    79  H    0.050545
    80  Mg   0.808108
    81  C   -0.038008
    82  C   -0.089757
    83  C   -0.053028
    84  C   -0.086929
    85  N   -0.255126
    86  C    0.011590
    87  C   -0.052330
    88  C   -0.029168
    89  C   -0.033290
    90  C    0.087606
    91  C    0.015827
    92  C   -0.056941
    93  H    0.015758
    94  N   -0.338761
    95  C    0.178110
    96  C   -0.150767
    97  C   -0.029510
    98  C    0.090575
    99  C    0.102830
   100  C    0.020455
   101  O   -0.219932
   102  C    0.059524
   103  N   -0.286782
   104  C    0.009223
   105  C   -0.007525
   106  C   -0.009743
   107  C    0.041937
   108  C    0.096756
   109  C    0.007960
   110  C    0.017130
   111  N   -0.353013
   112  C    0.116908
   113  C   -0.178670
   114  C    0.026870
   115  C    0.138526
   116  C    0.109258
   117  C    0.030088
   118  O   -0.163120
   119  C   -0.011571
   120  C    0.215687
   121  O   -0.195447
   122  O   -0.342965
   123  C    0.168194
   124  H   -0.039140
   125  H   -0.000929
   126  H   -0.037037
   127  H    0.001967
   128  H   -0.005492
   129  H    0.006561
   130  H    0.024731
   131  H    0.035806
   132  H   -0.001440
   133  H   -0.000277
   134  H    0.042834
   135  H    0.048931
   136  H    0.022081
   137  H    0.018410
   138  H    0.019633
   139  H    0.017097
   140  H    0.053744
   141  H    0.028105
   142  H    0.011518
   143  H    0.009060
   144  H   -0.005927
   145  H    0.023735
   146  H    0.026169
   147  H    0.000004
   148  H   -0.001241
   149  H    0.023389
   150  H    0.015872
   151  H    0.024037
   152  H    0.034837
   153  H    0.030384
   154  H    0.016792
   155  H    0.051354
   156  H    0.030028
   157  H    0.045516
   158  H    0.042352
 Sum of Mulliken charges =  -0.00000

 Dipole moment (field-independent basis, Debye):
    X=             -2.7785    Y=             -3.0219    Z=             -3.9768  Tot=              5.7155
 Quadrupole moment (field-independent basis, Debye-Ang):
   XX=           -470.8934   YY=           -511.6721   ZZ=           -511.3991
   XY=              3.5401   XZ=              9.1716   YZ=              5.0072

 Normal termination of Gaussian 16 at Wed Sep 15 04:59:31 2021.
