 Gaussian 16, Revision A.03,
 Gaussian 16:  ES64L-G16RevA.03 25-Dec-2016

 -----------------------------------------------------
 #p cam-b3lyp/Def2SVP td=(nstates=5) density=(current)
 -----------------------------------------------------

 --------------------------------
 TDDFT excited states in gaussian
 --------------------------------
 Symbolic Z-matrix:
 Charge =  0 Multiplicity = 1

                         Standard orientation:
 ---------------------------------------------------------------------
 Center     Atomic      Atomic             Coordinates (Angstroms)
 Number     Number       Type             X           Y           Z
 ---------------------------------------------------------------------
      1         12           0       -0.669162    0.111640   -0.344415
      2          6           0        2.743321    0.356243    0.259134
      3          6           0       -0.245904   -3.423484    0.023412
      4          6           0       -3.936369   -0.244209   -0.407755
      5          6           0       -0.913674    3.595635    0.055226
      6          7           0        1.033569   -1.323268    0.209713
      7          6           0        2.353862   -0.945705    0.309955
      8          6           0        3.229622   -2.166085    0.606582
      9          6           0        2.274558   -3.336075    0.241610
     10          6           0        0.917207   -2.685589    0.188976
     11          6           0        2.541746   -4.140034   -1.091069
     12          6           0        3.727223   -2.212512    2.060627
     13          6           0        4.714353   -3.273108    2.366995
     14          1           0        5.632847   -3.056432    3.629737
     15          7           0       -1.955933   -1.607718   -0.199128
     16          6           0       -1.589661   -2.957542   -0.081153
     17          6           0       -2.790975   -3.744815   -0.068964
     18          6           0       -3.897632   -2.817852   -0.056130
     19          6           0       -3.271122   -1.465018   -0.252861
     20          6           0       -2.786758   -5.290407    0.089222
     21          6           0       -5.356864   -3.272448    0.048655
     22          8           0       -5.672538   -4.448665   -0.021162
     23          6           0       -6.415110   -2.252536    0.231365
     24          7           0       -2.181710    1.516891   -0.417363
     25          6           0       -3.450941    1.100838   -0.483900
     26          6           0       -4.426364    2.339914   -0.353539
     27          6           0       -3.499823    3.599118   -0.145862
     28          6           0       -2.057703    2.850042   -0.112493
     29          6           0       -5.510217    2.517918   -1.449090
     30          6           0       -3.821380    4.283018    1.200200
     31          6           0       -3.565493    5.794452    1.242445
     32          7           0        0.603424    1.729464    0.071168
     33          6           0        0.399997    3.081017    0.078432
     34          6           0        1.704824    3.745995    0.176941
     35          6           0        2.622189    2.729960    0.154741
     36          6           0        1.941819    1.533414    0.159006
     37          6           0        1.951504    5.257842    0.148277
     38          6           0        4.023279    2.441886    0.222508
     39          8           0        4.995508    3.155337    0.256286
     40          6           0        4.160943    0.883689    0.278327
     41          6           0        4.873331    0.452029   -0.955618
     42          8           0        4.622411    0.765975   -2.086072
     43          8           0        5.827729   -0.518053   -0.603492
     44          6           0        6.552774   -1.100672   -1.696564
     45          1           0       -0.001282   -4.486830    0.054801
     46          1           0       -5.027014   -0.205273   -0.456228
     47          1           0       -0.945563    4.685784    0.112368
     48          1           0        4.028619   -2.143678   -0.133261
     49          1           0        2.153319   -4.106705    1.002077
     50          1           0        2.546957   -5.181818   -0.771212
     51          1           0        3.279582   -3.741194   -1.787737
     52          1           0        1.632451   -4.054601   -1.685854
     53          1           0        2.968531   -2.435276    2.811360
     54          1           0        4.142724   -1.244180    2.339757
     55          1           0        5.336431   -3.384800    1.478939
     56          1           0        4.189476   -4.222795    2.468955
     57          1           0       -3.111090   -5.317425    1.129990
     58          1           0       -1.806024   -5.765976    0.111768
     59          1           0       -3.394729   -5.959635   -0.519831
     60          1           0       -6.056766   -1.631657    1.052453
     61          1           0       -7.321733   -2.755256    0.568514
     62          1           0       -6.448223   -1.748205   -0.734689
     63          1           0       -4.998994    2.160799    0.556907
     64          1           0       -3.511934    4.323547   -0.959586
     65          1           0       -6.473044    2.243633   -1.016835
     66          1           0       -5.212874    1.944689   -2.326584
     67          1           0       -5.621015    3.575628   -1.687904
     68          1           0       -3.200663    3.763805    1.929983
     69          1           0       -4.829642    4.090473    1.567400
     70          1           0       -4.540152    6.197058    1.520340
     71          1           0       -3.156476    6.211701    0.322192
     72          1           0       -2.883207    6.039446    2.056517
     73          1           0        2.664247    5.646150    0.875065
     74          1           0        0.945244    5.649262    0.299577
     75          1           0        2.140030    5.509476   -0.895508
     76          1           0        4.743259    0.661262    1.172575
     77          1           0        7.571105   -0.718101   -1.627094
     78          1           0        6.193575   -0.955850   -2.715721
     79          1           0        6.542280   -2.180559   -1.551299
 ---------------------------------------------------------------------

 SCF Done:  E(RCAM-B3LYP) =  -2034.90936045     A.U. after   17 cycles

 Excitation energies and oscillator strengths:

 Excited State   1:      Singlet-A      1.7655 eV  702.26 nm  f=0.3955  <S**2>=0.000
     155 ->158        -0.17246
     156 ->157         0.68747
     155 <-158        -0.10346
 This state for optimization and/or second-order correction.
 Total Energy, E(TD-HF/TD-DFT) =  -2034.84447927
 Copying the excited state density for this state as the 1-particle RhoCI density.

 Excited State   2:      Singlet-A      2.2942 eV  540.42 nm  f=0.1179  <S**2>=0.000
     155 ->157         0.63730
     156 ->158         0.29068

 Excited State   3:      Singlet-A      3.2826 eV  377.70 nm  f=0.0029  <S**2>=0.000
     153 ->157         0.20703
     154 ->157         0.64973

 Excited State   4:      Singlet-A      3.5320 eV  351.03 nm  f=0.0057  <S**2>=0.000
     151 ->157         0.45024
     151 ->158         0.10589
     151 ->159        -0.18765
     151 ->161        -0.14348
     153 ->157         0.39309
     154 ->157        -0.14314
     156 ->158        -0.10959

 Excited State   5:      Singlet-A      3.5616 eV  348.11 nm  f=0.0357  <S**2>=0.000
     151 ->157        -0.37630
     151 ->159         0.13396
     151 ->161         0.10499
     152 ->157        -0.15399
     152 ->159        -0.10298
     153 ->157         0.40775
     154 ->157        -0.16397
     156 ->158        -0.23383

 The electronic state is 1-A.
 Alpha  occ. eigenvalues --  -46.89669 -19.24953 -19.20505 -19.18699 -19.18535
 Alpha  occ. eigenvalues --  -14.42665 -14.42353 -14.40235 -14.39103 -10.39514
 Alpha  occ. eigenvalues --  -10.34867 -10.34162 -10.32369 -10.31601 -10.31233
 Alpha  occ. eigenvalues --  -10.31185 -10.31127 -10.31085 -10.30570 -10.29550
 Alpha  occ. eigenvalues --  -10.29241 -10.28597 -10.28356 -10.28257 -10.28238
 Alpha  occ. eigenvalues --  -10.28194 -10.28177 -10.27911 -10.27796 -10.27754
 Alpha  occ. eigenvalues --  -10.27751 -10.27533 -10.27420 -10.26929 -10.26807
 Alpha  occ. eigenvalues --  -10.26543 -10.26506 -10.26413 -10.26249 -10.26084
 Alpha  occ. eigenvalues --  -10.26067 -10.25634 -10.23992  -3.18090  -1.92997
 Alpha  occ. eigenvalues --   -1.92548  -1.92378  -1.16627  -1.10346  -1.10125
 Alpha  occ. eigenvalues --   -1.08838  -1.04602  -1.03798  -1.03730  -1.02832
 Alpha  occ. eigenvalues --   -0.93274  -0.89424  -0.89242  -0.88846  -0.88101
 Alpha  occ. eigenvalues --   -0.86468  -0.85957  -0.85222  -0.84056  -0.83172
 Alpha  occ. eigenvalues --   -0.82595  -0.81309  -0.80861  -0.77769  -0.77360
 Alpha  occ. eigenvalues --   -0.77121  -0.76214  -0.75535  -0.73256  -0.72055
 Alpha  occ. eigenvalues --   -0.69345  -0.69080  -0.67798  -0.66775  -0.66107
 Alpha  occ. eigenvalues --   -0.65589  -0.64989  -0.64624  -0.62706  -0.60249
 Alpha  occ. eigenvalues --   -0.59907  -0.59322  -0.58864  -0.58468  -0.57582
 Alpha  occ. eigenvalues --   -0.56514  -0.55912  -0.55486  -0.54939  -0.54398
 Alpha  occ. eigenvalues --   -0.54035  -0.53582  -0.53328  -0.53159  -0.52655
 Alpha  occ. eigenvalues --   -0.51915  -0.51732  -0.51666  -0.50850  -0.50746
 Alpha  occ. eigenvalues --   -0.50375  -0.50296  -0.49886  -0.49327  -0.49056
 Alpha  occ. eigenvalues --   -0.48868  -0.48307  -0.48111  -0.47549  -0.47389
 Alpha  occ. eigenvalues --   -0.47164  -0.47104  -0.46475  -0.46412  -0.46158
 Alpha  occ. eigenvalues --   -0.45817  -0.45336  -0.45141  -0.44684  -0.44177
 Alpha  occ. eigenvalues --   -0.43923  -0.43703  -0.43328  -0.43246  -0.42966
 Alpha  occ. eigenvalues --   -0.42725  -0.42391  -0.42304  -0.42042  -0.41872
 Alpha  occ. eigenvalues --   -0.41549  -0.40618  -0.40273  -0.39929  -0.39724
 Alpha  occ. eigenvalues --   -0.38827  -0.38056  -0.37684  -0.36916  -0.36529
 Alpha  occ. eigenvalues --   -0.36099  -0.35257  -0.34255  -0.33733  -0.31773
 Alpha  occ. eigenvalues --   -0.31044  -0.30665  -0.30132  -0.29956  -0.24677
 Alpha  occ. eigenvalues --   -0.21671
 Alpha virt. eigenvalues --   -0.09041  -0.01948   0.00910   0.02022   0.02720
 Alpha virt. eigenvalues --    0.04406   0.05390   0.05814   0.06515   0.07771
 Alpha virt. eigenvalues --    0.08364   0.08706   0.08982   0.09254   0.10072

 Mulliken charges:
               1
     1  Mg   0.807995
     2  C   -0.008735
     3  C   -0.068497
     4  C   -0.094521
     5  C   -0.076573
     6  N   -0.280754
     7  C   -0.083885
     8  C    0.072566
     9  C   -0.105013
    10  C    0.016351
    11  C    0.085007
    12  C    0.078829
    13  C   -0.054609
    14  H    0.026777
    15  N   -0.351659
    16  C    0.162525
    17  C   -0.126230
    18  C   -0.080826
    19  C    0.208648
    20  C    0.110196
    21  C   -0.029612
    22  O   -0.204791
    23  C    0.068493
    24  N   -0.331750
    25  C    0.048005
    26  C   -0.073546
    27  C   -0.051125
    28  C    0.095827
    29  C    0.072159
    30  C    0.008736
    31  C    0.015545
    32  N   -0.339862
    33  C    0.085546
    34  C   -0.215173
    35  C    0.071711
    36  C    0.113894
    37  C    0.148833
    38  C    0.007323
    39  O   -0.146887
    40  C    0.001847
    41  C    0.188757
    42  O   -0.182563
    43  O   -0.348558
    44  C    0.163750
    45  H   -0.034981
    46  H   -0.045835
    47  H   -0.031225
    48  H    0.000611
    49  H    0.009245
    50  H    0.022204
    51  H    0.024978
    52  H    0.011119
    53  H    0.006908
    54  H    0.012907
    55  H    0.014870
    56  H    0.019191
    57  H    0.032134
    58  H   -0.007806
    59  H    0.046353
    60  H    0.028456
    61  H    0.027616
    62  H    0.055952
    63  H    0.019528
    64  H    0.021773
    65  H    0.016275
    66  H    0.030155
    67  H    0.012269
    68  H    0.010037
    69  H    0.009928
    70  H    0.016888
    71  H    0.023321
    72  H    0.017027
    73  H    0.051332
    74  H   -0.013500
    75  H    0.038429
    76  H    0.041740
    77  H    0.038708
    78  H    0.045289
    79  H    0.023955
 Sum of Mulliken charges =  -0.00000

 Dipole moment (field-independent basis, Debye):
    X=             -1.6973    Y=              0.9676    Z=              0.1954  Tot=              1.9635
 Quadrupole moment (field-independent basis, Debye-Ang):
   XX=           -270.1620   YY=           -255.6936   ZZ=           -257.9465
   XY=            -53.0197   XZ=             -3.2455   YZ=              2.6236

 Normal termination of Gaussian 16 at Fri Oct  8 15:53:41 2021.
