 Gaussian 16, Revision A.03,
 Gaussian 16:  ES64L-G16RevA.03 25-Dec-2016

 ----------------------------------------------------------
 #p cam-b3lyp/Def2SVP td=(nstates=5) density=(transition=1)
 ----------------------------------------------------------

 --------------------------------
 TDDFT excited states in gaussian
 --------------------------------
 Symbolic Z-matrix:
 Charge =  0 Multiplicity = 1

                         Standard orientation:
 ---------------------------------------------------------------------
 Center     Atomic      Atomic             Coordinates (Angstroms)
 Number     Number       Type             X           Y           Z
 ---------------------------------------------------------------------
      1         12           0        9.834839   -0.308809    0.864195
      2          6           0        9.181277    2.042226   -1.737955
      3          6           0        6.672285    0.125291    1.770727
      4          6           0       10.017317   -3.171828    2.650623
      5          6           0       12.752624   -1.164691   -0.994350
      6          7           0        8.224700    0.980989    0.204256
      7          6           0        8.174892    1.943782   -0.827035
      8          6           0        6.794357    2.666053   -0.926029
      9          6           0        6.038217    2.037708    0.278727
     10          6           0        7.060651    1.039555    0.862062
     11          6           0        5.588425    3.189798    1.192560
     12          6           0        5.983030    2.523531   -2.285543
     13          6           0        5.787036    3.794679   -3.103646
     14          1           0        4.340112    4.197110   -3.454831
     15          7           0        8.608332   -1.325421    2.100470
     16          6           0        7.283401   -0.964685    2.344788
     17          6           0        6.727227   -1.778977    3.348406
     18          6           0        7.698245   -2.671916    3.762640
     19          6           0        8.816882   -2.459357    2.866627
     20          6           0        5.285944   -1.722729    3.978026
     21          6           0        7.488562   -3.650061    4.894699
     22          8           0        6.525591   -3.662917    5.602283
     23          6           0        8.730221   -4.622106    5.206304
     24          7           0       11.143266   -1.982035    0.797466
     25          6           0       11.014371   -3.018403    1.681428
     26          6           0       12.091367   -4.106295    1.276612
     27          6           0       13.029025   -3.462386    0.241720
     28          6           0       12.263781   -2.111905   -0.032507
     29          6           0       12.759857   -4.795484    2.432088
     30          6           0       13.037720   -4.303633   -1.028586
     31          6           0       14.231403   -4.171183   -1.936639
     32          7           0       10.933389    0.459759   -0.857631
     33          6           0       12.092911    0.023093   -1.452650
     34          6           0       12.445812    0.879093   -2.526349
     35          6           0       11.372671    1.786938   -2.688840
     36          6           0       10.430408    1.383521   -1.701028
     37          6           0       13.608636    0.759847   -3.427668
     38          6           0       10.767449    2.899617   -3.433192
     39          8           0       11.253291    3.564396   -4.358150
     40          6           0        9.325479    3.144160   -2.843639
     41          6           0        9.305729    4.406614   -2.154084
     42          8           0        9.846498    4.540078   -1.030816
     43          8           0        8.684578    5.292689   -2.957128
     44          6           0        8.350744    6.636732   -2.411122
     45          1           0        5.647821    0.269912    2.121026
     46          1           0       10.071518   -4.053322    3.293053
     47          1           0       13.695058   -1.303420   -1.527618
     48          1           0        6.924921    3.733493   -0.748467
     49          1           0        5.165731    1.453266   -0.011752
     50          1           0        5.208901    2.734966    2.107084
     51          1           0        4.810601    3.839893    0.792199
     52          1           0        6.411587    3.853467    1.459602
     53          1           0        4.972429    2.277945   -1.959170
     54          1           0        6.399985    1.715982   -2.887400
     55          1           0        6.366815    3.681213   -4.020301
     56          1           0        6.182481    4.643559   -2.544745
     57          1           0        4.885003   -2.731841    3.880771
     58          1           0        4.637162   -1.023615    3.450597
     59          1           0        5.226025   -1.337578    4.995917
     60          1           0        8.455301   -5.166806    6.109038
     61          1           0        9.559928   -3.925073    5.326292
     62          1           0        8.781399   -5.217686    4.294890
     63          1           0       11.492826   -4.873261    0.783807
     64          1           0       14.062858   -3.301133    0.546993
     65          1           0       13.762258   -5.088600    2.121231
     66          1           0       12.136345   -5.659128    2.664145
     67          1           0       12.756834   -4.225455    3.360419
     68          1           0       12.151840   -4.154739   -1.646639
     69          1           0       12.929557   -5.367545   -0.817752
     70          1           0       15.054854   -3.623665   -1.478466
     71          1           0       13.909962   -3.636961   -2.830953
     72          1           0       14.515977   -5.141359   -2.343801
     73          1           0       14.453551    0.278453   -2.934228
     74          1           0       13.863604    1.781810   -3.709223
     75          1           0       13.273294    0.125621   -4.248600
     76          1           0        8.512211    3.017845   -3.558316
     77          1           0        8.467862    7.240456   -3.312248
     78          1           0        8.983344    6.948183   -1.580430
     79          1           0        7.282056    6.735296   -2.217657
     80         12           0       -9.833362   -0.634781   -0.126867
     81          6           0       -8.215475    1.944645    1.546295
     82          6           0       -6.767444   -1.655920   -1.280367
     83          6           0      -11.444069   -3.041866   -2.004756
     84          6           0      -12.936739    0.772523    0.607387
     85          7           0       -7.739382    0.023872    0.199685
     86          6           0       -7.294381    1.012582    0.993824
     87          6           0       -5.757717    1.072828    1.157108
     88          6           0       -5.295429    0.044103    0.038234
     89          6           0       -6.694292   -0.574919   -0.442677
     90          6           0       -4.489352    0.816534   -1.066102
     91          6           0       -5.424662    0.616282    2.669355
     92          6           0       -4.551022    1.590176    3.513680
     93          1           0       -3.704747    2.598665    2.655479
     94          7           0       -9.252104   -2.102131   -1.514553
     95          6           0       -7.902879   -2.413140   -1.782066
     96          6           0       -7.852612   -3.641236   -2.546381
     97          6           0       -9.172740   -4.028394   -2.809235
     98          6           0      -10.054067   -3.083356   -2.028377
     99          6           0       -6.545241   -4.125232   -3.189582
    100          6           0       -9.666029   -5.213902   -3.680515
    101          8           0      -10.859098   -5.513847   -3.873453
    102          6           0       -8.611458   -6.146541   -4.300755
    103          7           0      -11.908560   -0.983802   -0.662331
    104          6           0      -12.284330   -2.127263   -1.431044
    105          6           0      -13.793056   -2.085724   -1.751727
    106          6           0      -14.291057   -1.017347   -0.670273
    107          6           0      -12.961492   -0.393077   -0.171323
    108          6           0      -13.990072   -1.754224   -3.221770
    109          6           0      -15.061695   -1.717660    0.527111
    110          6           0      -14.513931   -2.912329    1.379936
    111          7           0      -10.484661    1.030388    0.785333
    112          6           0      -11.778259    1.510554    1.011547
    113          6           0      -11.700402    2.723773    1.758660
    114          6           0      -10.357306    2.914380    2.028895
    115          6           0       -9.624217    1.921160    1.333599
    116          6           0      -12.839700    3.650133    2.131786
    117          6           0       -9.444397    3.761064    2.688708
    118          8           0       -9.684183    4.788185    3.239171
    119          6           0       -8.006132    3.223072    2.297034
    120          6           0       -7.382676    4.291362    1.441905
    121          8           0       -7.248511    4.205434    0.239112
    122          8           0       -7.063817    5.312650    2.245845
    123          6           0       -6.880745    6.553040    1.532723
    124          1           0       -5.791952   -2.038124   -1.587468
    125          1           0      -11.923408   -3.643567   -2.778911
    126          1           0      -13.900834    1.232524    0.836341
    127          1           0       -5.315658    2.059584    1.020615
    128          1           0       -4.692807   -0.788461    0.401984
    129          1           0       -4.732703    0.542724   -2.092976
    130          1           0       -3.484705    0.503554   -0.783213
    131          1           0       -4.576123    1.877322   -0.832148
    132          1           0       -5.030644   -0.398470    2.617504
    133          1           0       -6.382933    0.504334    3.177181
    134          1           0       -3.919297    0.884140    4.051605
    135          1           0       -5.098656    2.184065    4.244856
    136          1           0       -6.732026   -4.216744   -4.259852
    137          1           0       -6.320695   -5.132256   -2.835477
    138          1           0       -5.738852   -3.429788   -2.958857
    139          1           0       -8.140494   -5.591561   -5.113161
    140          1           0       -9.175786   -6.945152   -4.781978
    141          1           0       -8.030071   -6.617230   -3.508327
    142          1           0      -14.166378   -3.061434   -1.439363
    143          1           0      -15.032822   -0.357011   -1.118088
    144          1           0      -13.164281   -2.087698   -3.850445
    145          1           0      -14.105690   -0.679493   -3.360207
    146          1           0      -14.857994   -2.277267   -3.622790
    147          1           0      -16.052264   -1.992294    0.164412
    148          1           0      -15.121906   -0.917909    1.265310
    149          1           0      -14.791302   -3.841506    0.881943
    150          1           0      -15.015711   -2.830156    2.344787
    151          1           0      -13.457077   -2.869074    1.645099
    152          1           0      -13.591958    3.153299    2.744721
    153          1           0      -13.277678    3.920277    1.171118
    154          1           0      -12.579107    4.477863    2.792865
    155          1           0       -7.295902    3.037513    3.102991
    156          1           0       -7.145792    7.438362    2.110221
    157          1           0       -7.229661    6.681532    0.508199
    158          1           0       -5.838727    6.764509    1.291789
 ---------------------------------------------------------------------

 SCF Done:  E(RCAM-B3LYP) =  -4069.81412879     A.U. after   18 cycles

 Excitation energies and oscillator strengths:

 Excited State   1:      Singlet-A      1.7042 eV  727.51 nm  f=0.3935  <S**2>=0.000
     310 -> 316        0.17574
     312 -> 314        0.68614
     310 <- 316        0.10653
 This state for optimization and/or second-order correction.
 Total Energy, E(TD-HF/TD-DFT) =  -4069.75149945
 Copying the excited state density for this state as the 1-particle RhoCI density.

 Excited State   2:      Singlet-A      1.7217 eV  720.13 nm  f=0.3830  <S**2>=0.000
     309 -> 315        0.17103
     311 -> 313        0.68713
     309 <- 315        0.10386

 Excited State   3:      Singlet-A      2.2267 eV  556.81 nm  f=0.1327  <S**2>=0.000
     310 -> 314        0.64559
     312 -> 316       -0.27533

 Excited State   4:      Singlet-A      2.2580 eV  549.09 nm  f=0.1151  <S**2>=0.000
     309 -> 313        0.63656
     311 -> 315       -0.28936

 Excited State   5:      Singlet-A      2.8200 eV  439.66 nm  f=0.0000  <S**2>=0.000
     312 -> 313        0.70697

 The electronic state is 1-A.
 Alpha  occ. eigenvalues --  -46.88611 -46.88130 -19.26589 -19.26235 -19.20144
 Alpha  occ. eigenvalues --  -19.19776 -19.19725 -19.19417 -19.18826 -19.18654
 Alpha  occ. eigenvalues --  -14.42634 -14.42301 -14.42281 -14.41483 -14.39608
 Alpha  occ. eigenvalues --  -14.39606 -14.39111 -14.38567 -10.39593 -10.39401
 Alpha  occ. eigenvalues --  -10.35588 -10.35482 -10.35162 -10.34885 -10.32916
 Alpha  occ. eigenvalues --  -10.31730 -10.31659 -10.31594 -10.31444 -10.31086
 Alpha  occ. eigenvalues --  -10.30713 -10.30705 -10.30577 -10.30411 -10.30205
 Alpha  occ. eigenvalues --  -10.30000 -10.29876 -10.29718 -10.29711 -10.29689
 Alpha  occ. eigenvalues --  -10.29106 -10.28937 -10.28789 -10.28601 -10.28484
 Alpha  occ. eigenvalues --  -10.28445 -10.28319 -10.28250 -10.28203 -10.28193
 Alpha  occ. eigenvalues --  -10.28125 -10.28048 -10.27893 -10.27867 -10.27745
 Alpha  occ. eigenvalues --  -10.27711 -10.27709 -10.27649 -10.27411 -10.27284
 Alpha  occ. eigenvalues --  -10.27217 -10.27190 -10.27105 -10.27068 -10.27021
 Alpha  occ. eigenvalues --  -10.26943 -10.26780 -10.26764 -10.26734 -10.26562
 Alpha  occ. eigenvalues --  -10.26554 -10.26463 -10.26397 -10.26298 -10.26105
 Alpha  occ. eigenvalues --  -10.25928 -10.25926 -10.25839 -10.25824 -10.25638
 Alpha  occ. eigenvalues --  -10.25522 -10.25295 -10.25252 -10.25244 -10.24935
 Alpha  occ. eigenvalues --  -10.24733  -3.17208  -3.16732  -1.92086  -1.91644
 Alpha  occ. eigenvalues --   -1.91633  -1.91535  -1.91166  -1.91054  -1.18239
 Alpha  occ. eigenvalues --   -1.16726  -1.12094  -1.12072  -1.09161  -1.08756
 Alpha  occ. eigenvalues --   -1.08373  -1.07482  -1.04219  -1.04210  -1.03373
 Alpha  occ. eigenvalues --   -1.03281  -1.02936  -1.02760  -1.01844  -1.01213
 Alpha  occ. eigenvalues --   -0.92857  -0.92309  -0.89756  -0.89454  -0.88810
 Alpha  occ. eigenvalues --   -0.88582  -0.88213  -0.87799  -0.87433  -0.87128
 Alpha  occ. eigenvalues --   -0.86749  -0.86603  -0.86550  -0.86068  -0.84915
 Alpha  occ. eigenvalues --   -0.84326  -0.83996  -0.83464  -0.83395  -0.82343
 Alpha  occ. eigenvalues --   -0.82007  -0.81260  -0.81234  -0.80954  -0.80414
 Alpha  occ. eigenvalues --   -0.79985  -0.77819  -0.77762  -0.77483  -0.77158
 Alpha  occ. eigenvalues --   -0.76805  -0.76791  -0.76353  -0.75924  -0.75236
 Alpha  occ. eigenvalues --   -0.75016  -0.73011  -0.72852  -0.71821  -0.71239
 Alpha  occ. eigenvalues --   -0.69362  -0.68932  -0.68709  -0.68704  -0.68045
 Alpha  occ. eigenvalues --   -0.67854  -0.67342  -0.66425  -0.65927  -0.65802
 Alpha  occ. eigenvalues --   -0.65693  -0.65099  -0.64652  -0.64612  -0.64534
 Alpha  occ. eigenvalues --   -0.63982  -0.62443  -0.62330  -0.60250  -0.60056
 Alpha  occ. eigenvalues --   -0.59731  -0.59532  -0.59460  -0.59013  -0.58613
 Alpha  occ. eigenvalues --   -0.58483  -0.58309  -0.58056  -0.57307  -0.57244
 Alpha  occ. eigenvalues --   -0.56508  -0.56330  -0.56140  -0.55737  -0.55077
 Alpha  occ. eigenvalues --   -0.54970  -0.54776  -0.54442  -0.54367  -0.54012
 Alpha  occ. eigenvalues --   -0.53916  -0.53435  -0.53262  -0.53190  -0.52974
 Alpha  occ. eigenvalues --   -0.52629  -0.52581  -0.52506  -0.52261  -0.52041
 Alpha  occ. eigenvalues --   -0.51913  -0.51793  -0.51781  -0.51575  -0.51327
 Alpha  occ. eigenvalues --   -0.51028  -0.50672  -0.50663  -0.50451  -0.50253
 Alpha  occ. eigenvalues --   -0.50070  -0.49961  -0.49956  -0.49879  -0.49571
 Alpha  occ. eigenvalues --   -0.49281  -0.49218  -0.49016  -0.48895  -0.48642
 Alpha  occ. eigenvalues --   -0.48526  -0.48377  -0.48350  -0.48163  -0.48002
 Alpha  occ. eigenvalues --   -0.47804  -0.47608  -0.47598  -0.47533  -0.47183
 Alpha  occ. eigenvalues --   -0.47058  -0.46718  -0.46523  -0.46401  -0.46327
 Alpha  occ. eigenvalues --   -0.46227  -0.46186  -0.45777  -0.45711  -0.45630
 Alpha  occ. eigenvalues --   -0.45400  -0.45245  -0.45235  -0.45036  -0.44994
 Alpha  occ. eigenvalues --   -0.44829  -0.44681  -0.44603  -0.44410  -0.44385
 Alpha  occ. eigenvalues --   -0.44227  -0.43824  -0.43820  -0.43651  -0.43562
 Alpha  occ. eigenvalues --   -0.43474  -0.43385  -0.43177  -0.43110  -0.43077
 Alpha  occ. eigenvalues --   -0.42895  -0.42699  -0.42664  -0.42439  -0.42401
 Alpha  occ. eigenvalues --   -0.42029  -0.41968  -0.41804  -0.41757  -0.41733
 Alpha  occ. eigenvalues --   -0.41373  -0.40851  -0.40760  -0.40688  -0.40330
 Alpha  occ. eigenvalues --   -0.40302  -0.40204  -0.39603  -0.39259  -0.39225
 Alpha  occ. eigenvalues --   -0.38488  -0.38317  -0.37747  -0.37702  -0.37530
 Alpha  occ. eigenvalues --   -0.37306  -0.37162  -0.37119  -0.36798  -0.36521
 Alpha  occ. eigenvalues --   -0.36174  -0.36097  -0.34875  -0.34424  -0.34262
 Alpha  occ. eigenvalues --   -0.34146  -0.33031  -0.32716  -0.31893  -0.31699
 Alpha  occ. eigenvalues --   -0.31015  -0.31002  -0.30849  -0.30657  -0.30484
 Alpha  occ. eigenvalues --   -0.30318  -0.29632  -0.29025  -0.24370  -0.23819
 Alpha  occ. eigenvalues --   -0.21351  -0.21027
 Alpha virt. eigenvalues --   -0.08855  -0.08600  -0.01798  -0.01391   0.00472
 Alpha virt. eigenvalues --    0.00508   0.02092   0.02432   0.02517   0.02632
 Alpha virt. eigenvalues --    0.04423   0.04466   0.04650   0.05540   0.06062

 Mulliken charges:
               1
     1  Mg  11.999919
     2  C    6.000993
     3  C    5.999870
     4  C    5.999259
     5  C    6.000339
     6  N    7.000504
     7  C    5.998965
     8  C    6.000282
     9  C    5.999625
    10  C    6.000914
    11  C    6.000008
    12  C    6.000045
    13  C    6.000128
    14  H    0.999830
    15  N    6.999746
    16  C    6.001337
    17  C    6.000790
    18  C    6.000275
    19  C    6.001376
    20  C    5.999881
    21  C    6.000391
    22  O    8.000459
    23  C    6.000030
    24  N    6.999895
    25  C    6.001020
    26  C    5.999834
    27  C    6.000197
    28  C    5.999024
    29  C    5.999951
    30  C    6.000151
    31  C    5.999969
    32  N    7.000009
    33  C    5.998845
    34  C    5.999156
    35  C    5.999707
    36  C    5.998942
    37  C    6.000110
    38  C    5.999503
    39  O    7.998921
    40  C    5.999753
    41  C    5.999885
    42  O    7.999671
    43  O    8.000078
    44  C    6.000258
    45  H    1.000386
    46  H    1.000229
    47  H    0.999685
    48  H    0.999562
    49  H    1.000707
    50  H    0.999466
    51  H    0.999972
    52  H    1.000006
    53  H    1.000097
    54  H    1.000566
    55  H    1.000299
    56  H    0.999541
    57  H    1.001146
    58  H    1.000650
    59  H    1.000034
    60  H    1.000305
    61  H    0.999984
    62  H    1.000599
    63  H    1.000331
    64  H    0.999720
    65  H    1.000227
    66  H    1.000013
    67  H    0.999727
    68  H    1.000226
    69  H    0.999728
    70  H    0.999805
    71  H    1.000261
    72  H    0.999892
    73  H    0.999293
    74  H    0.999342
    75  H    0.999474
    76  H    0.999885
    77  H    0.999838
    78  H    0.999651
    79  H    0.999507
    80  Mg  12.002728
    81  C    5.976946
    82  C    6.018010
    83  C    6.026164
    84  C    5.997458
    85  N    6.993460
    86  C    6.032253
    87  C    5.989893
    88  C    6.008995
    89  C    5.969641
    90  C    6.003791
    91  C    5.995567
    92  C    5.997611
    93  H    1.004409
    94  N    7.008425
    95  C    5.947953
    96  C    5.984811
    97  C    5.982203
    98  C    5.955162
    99  C    6.003430
   100  C    5.987038
   101  O    7.969455
   102  C    6.006284
   103  N    7.010267
   104  C    5.963897
   105  C    6.008953
   106  C    5.988723
   107  C    6.024805
   108  C    6.004509
   109  C    5.992732
   110  C    6.004191
   111  N    6.992003
   112  C    6.036991
   113  C    6.030914
   114  C    6.000137
   115  C    6.037023
   116  C    5.999337
   117  C    6.016749
   118  O    8.028584
   119  C    6.002003
   120  C    6.001800
   121  O    8.009509
   122  O    7.999086
   123  C    5.994485
   124  H    0.988730
   125  H    0.995951
   126  H    1.012588
   127  H    1.000670
   128  H    0.999833
   129  H    1.004052
   130  H    0.994914
   131  H    0.986365
   132  H    1.012584
   133  H    0.995882
   134  H    1.004475
   135  H    0.996450
   136  H    0.982973
   137  H    0.981036
   138  H    0.981485
   139  H    0.991432
   140  H    0.984458
   141  H    0.992336
   142  H    1.001093
   143  H    1.003851
   144  H    1.008620
   145  H    0.987579
   146  H    0.994884
   147  H    1.009790
   148  H    0.993747
   149  H    1.008751
   150  H    0.998761
   151  H    1.001741
   152  H    1.020199
   153  H    1.017258
   154  H    1.014551
   155  H    1.010977
   156  H    1.002786
   157  H    1.003098
   158  H    1.007715
 Sum of Mulliken charges = 624.00000

 Dipole moment (field-independent basis, Debye):
    X=             -3.7407    Y=              8.2551    Z=              6.2966  Tot=             11.0357
 Quadrupole moment (field-independent basis, Debye-Ang):
   XX=             67.0145   YY=             -8.3235   ZZ=             -5.7504
   XY=            -81.0613   XZ=            -55.1942   YZ=             -8.1098

 Normal termination of Gaussian 16 at Wed Sep 22 15:26:27 2021.
