 Gaussian 16, Revision A.03,
 Gaussian 16:  ES64L-G16RevA.03 25-Dec-2016

 ----------------------------------------------------------
 #p cam-b3lyp/Def2SVP td=(nstates=5) density=(transition=1)
 ----------------------------------------------------------

 --------------------------------
 TDDFT excited states in gaussian
 --------------------------------
 Symbolic Z-matrix:
 Charge =  0 Multiplicity = 1

                         Standard orientation:
 ---------------------------------------------------------------------
 Center     Atomic      Atomic             Coordinates (Angstroms)
 Number     Number       Type             X           Y           Z
 ---------------------------------------------------------------------
      1         12           0       -8.628106   -0.954866    0.640694
      2          6           0       -9.994978    1.941554   -0.505390
      3          6           0       -7.001550    0.733735    3.158597
      4          6           0       -7.199436   -3.884506    1.555507
      5          6           0       -9.921729   -2.567202   -2.226128
      6          7           0       -8.340040    1.152814    1.119111
      7          6           0       -9.250665    2.077596    0.713413
      8          6           0       -9.247645    3.317101    1.542350
      9          6           0       -8.054850    2.949302    2.568503
     10          6           0       -7.759470    1.513384    2.283140
     11          6           0       -6.766031    3.869082    2.371073
     12          6           0      -10.660220    3.447192    2.281640
     13          6           0      -11.085303    4.843359    2.741678
     14          1           0      -10.135147    6.063898    2.825273
     15          7           0       -7.366009   -1.567926    2.191716
     16          6           0       -6.781875   -0.691956    3.121205
     17          6           0       -5.945976   -1.491253    3.986708
     18          6           0       -6.017820   -2.830967    3.553849
     19          6           0       -6.930782   -2.787800    2.419893
     20          6           0       -5.206953   -0.860499    5.189957
     21          6           0       -5.191115   -4.098847    4.124516
     22          8           0       -5.425896   -5.262174    3.773783
     23          6           0       -4.084068   -4.001162    5.161162
     24          7           0       -8.643819   -2.993962   -0.220600
     25          6           0       -7.928594   -3.986338    0.360974
     26          6           0       -7.840802   -5.214763   -0.543126
     27          6           0       -9.017238   -4.901263   -1.635921
     28          6           0       -9.326943   -3.429368   -1.320919
     29          6           0       -6.390482   -5.569062   -1.110278
     30          6           0      -10.409566   -5.690032   -1.438866
     31          6           0      -11.048697   -6.399271   -2.618544
     32          7           0       -9.783266   -0.504632   -1.040299
     33          6           0      -10.214296   -1.212592   -2.098987
     34          6           0      -11.091160   -0.356511   -2.957968
     35          6           0      -11.048176    0.889481   -2.288548
     36          6           0      -10.136970    0.744170   -1.214051
     37          6           0      -11.875865   -0.678677   -4.180261
     38          6           0      -11.569775    2.199884   -2.400904
     39          8           0      -12.342009    2.690979   -3.249699
     40          6           0      -10.907046    2.950908   -1.248833
     41          6           0      -10.123275    4.037522   -1.790270
     42          8           0       -9.252244    4.039962   -2.602931
     43          8           0      -10.494122    5.174240   -1.078093
     44          6           0       -9.844909    6.520844   -1.311663
     45          1           0       -6.642574    1.153664    4.100118
     46          1           0       -6.659124   -4.801645    1.800583
     47          1           0      -10.185605   -2.941309   -3.216917
     48          1           0       -9.061170    4.297267    1.103934
     49          1           0       -8.376797    3.054982    3.604479
     50          1           0       -6.224358    4.130584    3.279793
     51          1           0       -7.034526    4.732080    1.761967
     52          1           0       -6.064049    3.285203    1.774860
     53          1           0      -10.715150    2.798025    3.155737
     54          1           0      -11.390686    3.078575    1.561025
     55          1           0      -11.538235    4.700568    3.723599
     56          1           0      -11.920163    5.171101    2.123418
     57          1           0       -5.419606    0.197512    5.342655
     58          1           0       -4.143565   -1.028911    5.023077
     59          1           0       -5.487841   -1.435379    6.072708
     60          1           0       -4.597618   -3.719295    6.079612
     61          1           0       -3.463772   -3.114600    5.027957
     62          1           0       -3.435635   -4.875555    5.109632
     63          1           0       -8.173990   -6.075394    0.038103
     64          1           0       -8.667174   -5.090834   -2.650812
     65          1           0       -6.382879   -5.578434   -2.200468
     66          1           0       -6.061386   -6.531651   -0.720510
     67          1           0       -5.671718   -4.796445   -0.836216
     68          1           0      -11.166868   -5.063865   -0.967383
     69          1           0      -10.221821   -6.440727   -0.671793
     70          1           0      -12.051439   -5.985592   -2.719868
     71          1           0      -11.068270   -7.482772   -2.504651
     72          1           0      -10.525603   -6.127862   -3.536570
     73          1           0      -11.862372   -1.728982   -4.470959
     74          1           0      -11.502075   -0.122110   -5.040080
     75          1           0      -12.912137   -0.389023   -4.007223
     76          1           0      -11.636823    3.358381   -0.548589
     77          1           0       -9.046153    6.434377   -2.048604
     78          1           0       -9.374574    6.864378   -0.389352
     79          1           0      -10.647414    7.171566   -1.658903
     80         12           0        8.942706   -0.349559   -0.047848
     81          6           0        6.995866    2.538408   -0.350507
     82          6           0       11.576063    1.660334    0.917808
     83          6           0       11.056615   -3.004690   -0.412168
     84          6           0        6.430551   -2.119792   -1.644198
     85          7           0        9.163488    1.796910    0.313751
     86          6           0        8.194324    2.720852    0.332923
     87          6           0        8.590332    4.052595    0.987159
     88          6           0       10.133084    3.833191    1.228373
     89          6           0       10.340697    2.254639    0.881681
     90          6           0       11.107118    4.733068    0.437693
     91          6           0        7.801376    4.402608    2.249049
     92          6           0        7.721422    5.916669    2.516078
     93          1           0        8.425904    6.886714    1.557113
     94          7           0       10.990816   -0.685274    0.313604
     95          6           0       11.919553    0.272511    0.782076
     96          6           0       13.198724   -0.384331    0.961811
     97          6           0       13.085421   -1.752204    0.510807
     98          6           0       11.675738   -1.884285    0.146127
     99          6           0       14.351085    0.328915    1.613899
    100          6           0       14.141645   -2.946021    0.550053
    101          8           0       13.873865   -4.089056    0.269236
    102          6           0       15.553608   -2.578638    0.951855
    103          7           0        8.800164   -2.232797   -0.981314
    104          6           0        9.780153   -3.181837   -0.975249
    105          6           0        9.309408   -4.529627   -1.635973
    106          6           0        7.844492   -4.217075   -1.936810
    107          6           0        7.692521   -2.772484   -1.499001
    108          6           0       10.113212   -5.191869   -2.826579
    109          6           0        6.898932   -5.167175   -1.165099
    110          6           0        6.561068   -4.849364    0.308417
    111          7           0        6.996440    0.006584   -0.735631
    112          6           0        6.086308   -0.803427   -1.363890
    113          6           0        4.880517   -0.100936   -1.650080
    114          6           0        5.186125    1.281071   -1.264252
    115          6           0        6.431326    1.265334   -0.768159
    116          6           0        3.609943   -0.542805   -2.229077
    117          6           0        4.724168    2.661777   -1.299309
    118          8           0        3.620705    3.122382   -1.610797
    119          6           0        5.853609    3.555672   -0.707767
    120          6           0        6.273297    4.584508   -1.653802
    121          8           0        7.010028    4.419527   -2.620368
    122          8           0        5.538660    5.722848   -1.435155
    123          6           0        5.457527    6.754500   -2.487386
    124          1           0       12.355069    2.375264    1.191477
    125          1           0       11.669634   -3.906964   -0.362118
    126          1           0        5.600994   -2.696179   -2.058915
    127          1           0        8.554585    4.875982    0.274176
    128          1           0       10.411418    3.839007    2.281616
    129          1           0       11.713442    5.125241    1.253999
    130          1           0       10.567849    5.533669   -0.068034
    131          1           0       11.660370    4.145913   -0.295391
    132          1           0        8.198928    3.903833    3.132123
    133          1           0        6.777621    4.036965    2.165087
    134          1           0        8.156868    5.964648    3.514384
    135          1           0        6.694095    6.248554    2.672914
    136          1           0       14.044455    1.372707    1.682530
    137          1           0       15.240729    0.205378    0.995979
    138          1           0       14.593326   -0.065285    2.601967
    139          1           0       16.161446   -2.057514    0.211501
    140          1           0       16.047243   -3.488629    1.292926
    141          1           0       15.377955   -1.935990    1.814484
    142          1           0        9.424871   -5.215379   -0.796929
    143          1           0        7.721103   -4.336869   -3.012553
    144          1           0        9.501835   -5.494358   -3.675949
    145          1           0       10.564113   -6.112322   -2.457058
    146          1           0       10.918687   -4.509641   -3.100007
    147          1           0        7.357482   -6.152189   -1.243292
    148          1           0        5.987074   -5.191153   -1.762514
    149          1           0        6.591877   -5.817267    0.808082
    150          1           0        5.554358   -4.455250    0.445465
    151          1           0        7.204905   -4.098843    0.765639
    152          1           0        2.808285   -0.067287   -1.665065
    153          1           0        3.448284   -1.620685   -2.244393
    154          1           0        3.478049   -0.099165   -3.216100
    155          1           0        5.411260    3.972068    0.197119
    156          1           0        6.073913    6.509388   -3.353006
    157          1           0        5.839430    7.685307   -2.067323
    158          1           0        4.389914    6.741139   -2.703919
 ---------------------------------------------------------------------

 SCF Done:  E(RCAM-B3LYP) =  -4069.82381717     A.U. after   19 cycles

 Excitation energies and oscillator strengths:

 Excited State   1:      Singlet-A      1.7169 eV  722.14 nm  f=0.5332  <S**2>=0.000
     310 -> 316        0.17879
     311 -> 313        0.67437
     312 -> 314       -0.11469
     310 <- 316        0.10525
 This state for optimization and/or second-order correction.
 Total Energy, E(TD-HF/TD-DFT) =  -4069.76072249
 Copying the excited state density for this state as the 1-particle RhoCI density.

 Excited State   2:      Singlet-A      1.7393 eV  712.85 nm  f=0.2866  <S**2>=0.000
     309 -> 315        0.18921
     311 -> 313        0.11433
     312 -> 314        0.67325
     309 <- 315        0.10826

 Excited State   3:      Singlet-A      2.1357 eV  580.52 nm  f=0.1466  <S**2>=0.000
     310 -> 313        0.65915
     311 -> 316       -0.23572

 Excited State   4:      Singlet-A      2.2283 eV  556.40 nm  f=0.1042  <S**2>=0.000
     309 -> 314        0.63900
     312 -> 315       -0.29464

 Excited State   5:      Singlet-A      2.7570 eV  449.71 nm  f=0.0000  <S**2>=0.000
     312 -> 313        0.70690

 The electronic state is 1-A.
 Alpha  occ. eigenvalues --  -46.89311 -46.88260 -19.23886 -19.23573 -19.19956
 Alpha  occ. eigenvalues --  -19.19477 -19.19136 -19.18997 -19.18716 -19.18691
 Alpha  occ. eigenvalues --  -14.42385 -14.42294 -14.41909 -14.41585 -14.39465
 Alpha  occ. eigenvalues --  -14.39446 -14.39301 -14.38179 -10.38695 -10.38541
 Alpha  occ. eigenvalues --  -10.36200 -10.36173 -10.35097 -10.34385 -10.31788
 Alpha  occ. eigenvalues --  -10.31653 -10.31174 -10.30898 -10.30896 -10.30730
 Alpha  occ. eigenvalues --  -10.30685 -10.30578 -10.30564 -10.30332 -10.30134
 Alpha  occ. eigenvalues --  -10.29909 -10.29884 -10.29780 -10.29663 -10.28930
 Alpha  occ. eigenvalues --  -10.28922 -10.28866 -10.28768 -10.28683 -10.28589
 Alpha  occ. eigenvalues --  -10.28288 -10.28197 -10.28182 -10.28167 -10.28129
 Alpha  occ. eigenvalues --  -10.28107 -10.28096 -10.27897 -10.27864 -10.27801
 Alpha  occ. eigenvalues --  -10.27714 -10.27691 -10.27589 -10.27587 -10.27437
 Alpha  occ. eigenvalues --  -10.27430 -10.27372 -10.27321 -10.27272 -10.27141
 Alpha  occ. eigenvalues --  -10.27045 -10.26963 -10.26921 -10.26618 -10.26605
 Alpha  occ. eigenvalues --  -10.26353 -10.26351 -10.26335 -10.26129 -10.26056
 Alpha  occ. eigenvalues --  -10.26028 -10.26008 -10.25987 -10.25932 -10.25871
 Alpha  occ. eigenvalues --  -10.25810 -10.25792 -10.25486 -10.25310 -10.24771
 Alpha  occ. eigenvalues --  -10.24660  -3.17717  -3.16785  -1.92637  -1.92155
 Alpha  occ. eigenvalues --   -1.92029  -1.91686  -1.91238  -1.91091  -1.15520
 Alpha  occ. eigenvalues --   -1.15101  -1.11595  -1.09459  -1.08877  -1.08237
 Alpha  occ. eigenvalues --   -1.07091  -1.06655  -1.05473  -1.04463  -1.04365
 Alpha  occ. eigenvalues --   -1.03491  -1.03346  -1.02547  -1.02464  -1.01036
 Alpha  occ. eigenvalues --   -0.93401  -0.92091  -0.89192  -0.88841  -0.88523
 Alpha  occ. eigenvalues --   -0.88167  -0.88154  -0.87429  -0.87111  -0.86987
 Alpha  occ. eigenvalues --   -0.86830  -0.86473  -0.86138  -0.86097  -0.84235
 Alpha  occ. eigenvalues --   -0.84222  -0.83453  -0.83391  -0.82360  -0.82282
 Alpha  occ. eigenvalues --   -0.81979  -0.81543  -0.81108  -0.81014  -0.80214
 Alpha  occ. eigenvalues --   -0.80187  -0.78330  -0.78141  -0.77390  -0.77151
 Alpha  occ. eigenvalues --   -0.77027  -0.76863  -0.76108  -0.75917  -0.75100
 Alpha  occ. eigenvalues --   -0.75027  -0.72503  -0.72445  -0.71893  -0.71108
 Alpha  occ. eigenvalues --   -0.69831  -0.69168  -0.68560  -0.68472  -0.68146
 Alpha  occ. eigenvalues --   -0.67714  -0.66098  -0.65907  -0.65264  -0.65114
 Alpha  occ. eigenvalues --   -0.64782  -0.64721  -0.64459  -0.64428  -0.64165
 Alpha  occ. eigenvalues --   -0.63741  -0.61715  -0.61414  -0.60367  -0.59836
 Alpha  occ. eigenvalues --   -0.59786  -0.59109  -0.59097  -0.59095  -0.58705
 Alpha  occ. eigenvalues --   -0.58375  -0.58332  -0.57682  -0.57677  -0.57428
 Alpha  occ. eigenvalues --   -0.55943  -0.55869  -0.55452  -0.55427  -0.55197
 Alpha  occ. eigenvalues --   -0.55186  -0.54676  -0.54136  -0.53718  -0.53676
 Alpha  occ. eigenvalues --   -0.53373  -0.52959  -0.52903  -0.52893  -0.52698
 Alpha  occ. eigenvalues --   -0.52667  -0.52340  -0.52153  -0.52139  -0.52039
 Alpha  occ. eigenvalues --   -0.51995  -0.51635  -0.51626  -0.51543  -0.51317
 Alpha  occ. eigenvalues --   -0.50815  -0.50721  -0.50650  -0.50470  -0.50240
 Alpha  occ. eigenvalues --   -0.49735  -0.49684  -0.49604  -0.49600  -0.49378
 Alpha  occ. eigenvalues --   -0.49312  -0.49070  -0.49041  -0.49019  -0.48806
 Alpha  occ. eigenvalues --   -0.48560  -0.48249  -0.48228  -0.48137  -0.48072
 Alpha  occ. eigenvalues --   -0.47868  -0.47637  -0.47531  -0.47186  -0.47133
 Alpha  occ. eigenvalues --   -0.46851  -0.46763  -0.46495  -0.46363  -0.46268
 Alpha  occ. eigenvalues --   -0.46173  -0.46143  -0.46073  -0.45835  -0.45660
 Alpha  occ. eigenvalues --   -0.45505  -0.45260  -0.45108  -0.45042  -0.44655
 Alpha  occ. eigenvalues --   -0.44598  -0.44290  -0.44277  -0.44173  -0.43982
 Alpha  occ. eigenvalues --   -0.43904  -0.43818  -0.43656  -0.43617  -0.43422
 Alpha  occ. eigenvalues --   -0.43200  -0.43073  -0.43058  -0.42804  -0.42692
 Alpha  occ. eigenvalues --   -0.42570  -0.42379  -0.42230  -0.41943  -0.41653
 Alpha  occ. eigenvalues --   -0.41534  -0.41523  -0.41238  -0.41121  -0.41058
 Alpha  occ. eigenvalues --   -0.40964  -0.40899  -0.40714  -0.40627  -0.40254
 Alpha  occ. eigenvalues --   -0.40134  -0.39933  -0.39647  -0.39319  -0.38539
 Alpha  occ. eigenvalues --   -0.38411  -0.38350  -0.37873  -0.37706  -0.37697
 Alpha  occ. eigenvalues --   -0.37446  -0.36667  -0.36644  -0.36483  -0.36137
 Alpha  occ. eigenvalues --   -0.35972  -0.35684  -0.34380  -0.34337  -0.34149
 Alpha  occ. eigenvalues --   -0.33812  -0.33290  -0.33064  -0.31616  -0.31164
 Alpha  occ. eigenvalues --   -0.31035  -0.30938  -0.30899  -0.30828  -0.30088
 Alpha  occ. eigenvalues --   -0.29963  -0.29619  -0.28667  -0.23743  -0.23529
 Alpha  occ. eigenvalues --   -0.21332  -0.21044
 Alpha virt. eigenvalues --   -0.08927  -0.08428  -0.01611  -0.01327   0.00081
 Alpha virt. eigenvalues --    0.00588   0.02382   0.02476   0.02583   0.02874
 Alpha virt. eigenvalues --    0.04764   0.05107   0.05314   0.05432   0.05989

 Mulliken charges:
               1
     1  Mg  11.999241
     2  C    5.995433
     3  C    6.003397
     4  C    6.003543
     5  C    5.997379
     6  N    6.999822
     7  C    6.006995
     8  C    5.996580
     9  C    6.002727
    10  C    5.993102
    11  C    6.000707
    12  C    5.999172
    13  C    5.999631
    14  H    1.001158
    15  N    7.001667
    16  C    5.990220
    17  C    5.997995
    18  C    5.995774
    19  C    5.994634
    20  C    6.000424
    21  C    5.997445
    22  O    7.995748
    23  C    6.000650
    24  N    7.000269
    25  C    5.994371
    26  C    6.001921
    27  C    5.998201
    28  C    6.005199
    29  C    6.000465
    30  C    5.998276
    31  C    6.000093
    32  N    6.998675
    33  C    6.007290
    34  C    6.005488
    35  C    6.000606
    36  C    6.005621
    37  C    5.998830
    38  C    6.002643
    39  O    8.005600
    40  C    5.999893
    41  C    6.000778
    42  O    7.999974
    43  O    8.000427
    44  C    5.999711
    45  H    0.998616
    46  H    0.999057
    47  H    1.001661
    48  H    1.000727
    49  H    1.000141
    50  H    0.999941
    51  H    0.997385
    52  H    0.998453
    53  H    1.002441
    54  H    0.998913
    55  H    1.001289
    56  H    0.999831
    57  H    0.996960
    58  H    0.995944
    59  H    0.997910
    60  H    0.999600
    61  H    0.997741
    62  H    0.997620
    63  H    1.000659
    64  H    1.000531
    65  H    0.997793
    66  H    1.000335
    67  H    0.999327
    68  H    1.000221
    69  H    1.002720
    70  H    0.999963
    71  H    1.001474
    72  H    0.999749
    73  H    1.003659
    74  H    1.003584
    75  H    1.003725
    76  H    1.002015
    77  H    1.000083
    78  H    1.001158
    79  H    1.000998
    80  Mg  12.003069
    81  C    5.978938
    82  C    6.020584
    83  C    6.023047
    84  C    5.993922
    85  N    6.993799
    86  C    6.034982
    87  C    5.985463
    88  C    6.002672
    89  C    5.971578
    90  C    6.002939
    91  C    5.997672
    92  C    5.998767
    93  H    1.004499
    94  N    7.005396
    95  C    5.954442
    96  C    5.981816
    97  C    5.979230
    98  C    5.965115
    99  C    6.006153
   100  C    5.986074
   101  O    7.974078
   102  C    6.004528
   103  N    7.007739
   104  C    5.960826
   105  C    6.009789
   106  C    5.988474
   107  C    6.031466
   108  C    5.998519
   109  C    5.995064
   110  C    5.993279
   111  N    6.999207
   112  C    6.029641
   113  C    6.038705
   114  C    6.002140
   115  C    6.025117
   116  C    5.992454
   117  C    6.013239
   118  O    8.026190
   119  C    6.002362
   120  C    6.005137
   121  O    8.006542
   122  O    8.000485
   123  C    5.998247
   124  H    0.989740
   125  H    0.994091
   126  H    1.010954
   127  H    1.001713
   128  H    1.000929
   129  H    0.998658
   130  H    0.987232
   131  H    1.003018
   132  H    1.008833
   133  H    0.992261
   134  H    1.004622
   135  H    0.997757
   136  H    0.981397
   137  H    0.980223
   138  H    0.978116
   139  H    0.989575
   140  H    0.984832
   141  H    0.997991
   142  H    1.001337
   143  H    1.003941
   144  H    0.989613
   145  H    0.999961
   146  H    1.003934
   147  H    1.012235
   148  H    0.996915
   149  H    1.008767
   150  H    0.994713
   151  H    1.007450
   152  H    1.021716
   153  H    1.021402
   154  H    1.025633
   155  H    1.007349
   156  H    1.003378
   157  H    1.006225
   158  H    1.000107
 Sum of Mulliken charges = 624.00000

 Dipole moment (field-independent basis, Debye):
    X=            -11.8349    Y=              2.2823    Z=             -4.3044  Tot=             12.7985
 Quadrupole moment (field-independent basis, Debye-Ang):
   XX=           -170.3927   YY=              1.2457   ZZ=              1.2880
   XY=             16.8664   XZ=            -11.4569   YZ=              0.9380

 Normal termination of Gaussian 16 at Wed Sep 22 14:12:10 2021.
