 Gaussian 16, Revision A.03,
 Gaussian 16:  ES64L-G16RevA.03 25-Dec-2016

 ----------------------------------------------------------
 #p cam-b3lyp/Def2SVP td=(nstates=5) density=(transition=1)
 ----------------------------------------------------------

 --------------------------------
 TDDFT excited states in gaussian
 --------------------------------
 Symbolic Z-matrix:
 Charge =  0 Multiplicity = 1

                         Standard orientation:
 ---------------------------------------------------------------------
 Center     Atomic      Atomic             Coordinates (Angstroms)
 Number     Number       Type             X           Y           Z
 ---------------------------------------------------------------------
      1         12           0       29.882837    0.445291    0.405056
      2          6           0       30.219714   -2.395758   -1.428098
      3          6           0       28.027866    2.050079   -2.021219
      4          6           0       29.849162    3.264157    2.348307
      5          6           0       32.177586   -0.957734    2.825083
      6          7           0       29.395655   -0.050309   -1.569857
      7          6           0       29.409480   -1.401485   -2.053611
      8          6           0       28.557310   -1.542350   -3.250984
      9          6           0       28.241491   -0.017118   -3.591764
     10          6           0       28.565013    0.757191   -2.333444
     11          6           0       29.090044    0.541946   -4.840602
     12          6           0       27.364723   -2.534729   -3.091302
     13          6           0       27.157723   -3.472810   -4.236564
     14          1           0       27.361226   -2.863279   -5.679457
     15          7           0       28.989023    2.368915    0.222472
     16          6           0       28.294654    2.779346   -0.876511
     17          6           0       27.843398    4.105310   -0.626663
     18          6           0       28.277468    4.494685    0.700436
     19          6           0       29.041668    3.314635    1.227071
     20          6           0       27.111018    4.940556   -1.699509
     21          6           0       28.062330    5.722855    1.528481
     22          8           0       28.564049    6.010891    2.620898
     23          6           0       27.021697    6.750594    0.942595
     24          7           0       30.975946    1.135466    2.313230
     25          6           0       30.694211    2.264773    2.913897
     26          6           0       31.254142    2.325235    4.333566
     27          6           0       31.995597    0.964359    4.466437
     28          6           0       31.721400    0.328518    3.104993
     29          6           0       32.224080    3.587187    4.593514
     30          6           0       31.347341    0.143320    5.666804
     31          6           0       29.895224   -0.387833    5.578782
     32          7           0       31.115009   -1.251401    0.589959
     33          6           0       31.917418   -1.679486    1.630678
     34          6           0       32.319375   -3.062702    1.303669
     35          6           0       31.707221   -3.442438    0.147119
     36          6           0       30.970136   -2.269417   -0.253356
     37          6           0       33.357918   -3.828364    2.048636
     38          6           0       31.507296   -4.505832   -0.837122
     39          8           0       31.961534   -5.635791   -0.902635
     40          6           0       30.530632   -3.831691   -1.897791
     41          6           0       31.257997   -3.771953   -3.181937
     42          8           0       32.359484   -3.243938   -3.414095
     43          8           0       30.437808   -4.447044   -4.063069
     44          6           0       30.859044   -4.366780   -5.467834
     45          1           0       27.394527    2.573089   -2.740594
     46          1           0       29.698610    4.151088    2.968350
     47          1           0       32.808525   -1.427482    3.581691
     48          1           0       29.219736   -1.973254   -4.002796
     49          1           0       27.174816    0.064559   -3.798427
     50          1           0       29.563571   -0.241148   -5.432748
     51          1           0       29.940519    1.071695   -4.411694
     52          1           0       28.387916    1.204843   -5.344549
     53          1           0       26.437348   -1.976207   -2.963982
     54          1           0       27.642732   -3.098072   -2.200653
     55          1           0       26.137312   -3.848554   -4.300847
     56          1           0       27.690921   -4.421381   -4.301396
     57          1           0       26.063506    4.688531   -1.864336
     58          1           0       27.743939    4.796776   -2.575045
     59          1           0       27.004118    5.989111   -1.422479
     60          1           0       27.472078    7.262798    0.092320
     61          1           0       26.624918    7.335695    1.772046
     62          1           0       26.091377    6.289003    0.610992
     63          1           0       30.418805    2.347732    5.033023
     64          1           0       33.060942    1.065635    4.673726
     65          1           0       31.650419    4.280541    5.209600
     66          1           0       32.468071    4.074223    3.648837
     67          1           0       33.157088    3.448275    5.138192
     68          1           0       31.410142    0.625500    6.642199
     69          1           0       31.970900   -0.751284    5.662333
     70          1           0       30.039877   -1.468210    5.591207
     71          1           0       29.368484   -0.028606    4.695588
     72          1           0       29.266051   -0.095776    6.419549
     73          1           0       33.008934   -4.855902    1.951018
     74          1           0       33.445580   -3.521463    3.091025
     75          1           0       34.253713   -3.842736    1.429170
     76          1           0       29.768918   -4.609145   -1.950310
     77          1           0       30.158964   -5.047320   -5.953318
     78          1           0       31.851773   -4.815257   -5.506160
     79          1           0       30.955567   -3.361136   -5.877575
     80         12           0      -30.615003   -0.637062   -0.297013
     81          6           0      -27.805780    1.561380   -0.325469
     82          6           0      -28.951264   -2.402312    1.967463
     83          6           0      -33.510276   -2.156821    0.556934
     84          6           0      -32.365507    1.995623   -1.941673
     85          7           0      -28.637642   -0.513334    0.578418
     86          6           0      -27.592920    0.414162    0.375143
     87          6           0      -26.314622    0.091531    1.211334
     88          6           0      -26.730098   -1.241874    1.895010
     89          6           0      -28.170961   -1.469073    1.390773
     90          6           0      -25.682516   -2.301298    1.514339
     91          6           0      -25.826657    1.179551    2.262498
     92          6           0      -24.484185    1.846505    1.985978
     93          1           0      -23.409518    1.763733    3.089204
     94          7           0      -31.159323   -2.111008    0.966867
     95          6           0      -30.282405   -2.729552    1.857754
     96          6           0      -30.915690   -3.805308    2.506868
     97          6           0      -32.211359   -3.889710    2.031553
     98          6           0      -32.378751   -2.731561    1.177129
     99          6           0      -30.319251   -4.810428    3.560850
    100          6           0      -33.168667   -4.984800    2.439757
    101          8           0      -32.865009   -5.929189    3.106148
    102          6           0      -34.638833   -4.891977    1.796576
    103          7           0      -32.659635   -0.127299   -0.572228
    104          6           0      -33.660620   -0.959021   -0.149936
    105          6           0      -35.029363   -0.218202   -0.441538
    106          6           0      -34.713462    1.001504   -1.323210
    107          6           0      -33.138007    0.985262   -1.275538
    108          6           0      -36.140606   -1.107862   -0.921777
    109          6           0      -35.225219    2.265587   -0.643761
    110          6           0      -35.494603    3.460056   -1.519922
    111          7           0      -30.142201    1.280099   -1.226072
    112          6           0      -30.947441    2.193401   -1.863787
    113          6           0      -30.172421    3.278188   -2.346166
    114          6           0      -28.861715    3.092017   -1.846559
    115          6           0      -28.957584    1.904091   -1.068087
    116          6           0      -30.648228    4.470372   -3.074903
    117          6           0      -27.483280    3.583183   -1.715863
    118          8           0      -26.962076    4.571565   -2.249688
    119          6           0      -26.715331    2.606829   -0.744453
    120          6           0      -25.728452    1.875844   -1.493717
    121          8           0      -26.058679    0.940321   -2.260347
    122          8           0      -24.529794    2.430377   -1.226227
    123          6           0      -23.302722    1.746326   -1.718554
    124          1           0      -28.418880   -3.028706    2.686732
    125          1           0      -34.417185   -2.713979    0.801428
    126          1           0      -32.822789    2.774681   -2.554667
    127          1           0      -25.475611   -0.096700    0.541533
    128          1           0      -26.788893   -1.174500    2.980912
    129          1           0      -26.067533   -3.260901    1.858124
    130          1           0      -24.689282   -2.164612    1.941801
    131          1           0      -25.527967   -2.363795    0.436577
    132          1           0      -25.636412    0.599638    3.165633
    133          1           0      -26.614311    1.913089    2.434956
    134          1           0      -24.685608    2.892124    1.750638
    135          1           0      -24.024407    1.376434    1.115931
    136          1           0      -30.998032   -4.776876    4.413286
    137          1           0      -29.319771   -4.518624    3.882952
    138          1           0      -30.136760   -5.823374    3.202143
    139          1           0      -35.147908   -5.806847    2.098345
    140          1           0      -34.432117   -4.813208    0.728995
    141          1           0      -35.019589   -3.973023    2.242174
    142          1           0      -35.336606    0.128217    0.545853
    143          1           0      -35.099862    0.985836   -2.342256
    144          1           0      -36.799302   -0.517924   -1.558528
    145          1           0      -36.649250   -1.459180   -0.023805
    146          1           0      -35.807138   -2.028467   -1.399298
    147          1           0      -34.580724    2.606666    0.166939
    148          1           0      -36.140291    2.087045   -0.079116
    149          1           0      -35.475307    3.220053   -2.582840
    150          1           0      -34.723435    4.202702   -1.314272
    151          1           0      -36.397973    3.978380   -1.198566
    152          1           0      -31.541640    4.254363   -3.661639
    153          1           0      -29.824302    4.759446   -3.727799
    154          1           0      -30.901955    5.197704   -2.303387
    155          1           0      -26.326733    3.074583    0.160158
    156          1           0      -22.670332    2.613100   -1.916072
    157          1           0      -23.467942    1.107992   -2.586003
    158          1           0      -22.762432    1.260573   -0.905308
 ---------------------------------------------------------------------

 SCF Done:  E(RCAM-B3LYP) =  -4069.80589369     A.U. after   19 cycles

 Excitation energies and oscillator strengths:

 Excited State   1:      Singlet-A      1.6991 eV  729.70 nm  f=0.3780  <S**2>=0.000
     309 -> 315       -0.18621
     312 -> 314        0.68409
     309 <- 315       -0.10902
 This state for optimization and/or second-order correction.
 Total Energy, E(TD-HF/TD-DFT) =  -4069.74345269
 Copying the excited state density for this state as the 1-particle RhoCI density.

 Excited State   2:      Singlet-A      1.7225 eV  719.79 nm  f=0.3900  <S**2>=0.000
     310 -> 316       -0.17109
     311 -> 313        0.68745
     310 <- 316       -0.10386

 Excited State   3:      Singlet-A      2.2584 eV  549.00 nm  f=0.1175  <S**2>=0.000
     310 -> 313        0.63725
     311 -> 316        0.28974

 Excited State   4:      Singlet-A      2.2666 eV  547.01 nm  f=0.0453  <S**2>=0.000
     309 -> 314        0.60928
     312 -> 315        0.34928

 Excited State   5:      Singlet-A      3.1679 eV  391.38 nm  f=0.0000  <S**2>=0.000
     312 -> 313        0.70711

 The electronic state is 1-A.
 Alpha  occ. eigenvalues --  -46.89275 -46.88529 -19.26528 -19.25675 -19.20279
 Alpha  occ. eigenvalues --  -19.19682 -19.19660 -19.19577 -19.19522 -19.18753
 Alpha  occ. eigenvalues --  -14.42552 -14.42316 -14.42216 -14.42200 -14.39526
 Alpha  occ. eigenvalues --  -14.39524 -14.39506 -14.38487 -10.39543 -10.39527
 Alpha  occ. eigenvalues --  -10.35729 -10.35495 -10.35431 -10.35410 -10.32863
 Alpha  occ. eigenvalues --  -10.32005 -10.31855 -10.31797 -10.31655 -10.31513
 Alpha  occ. eigenvalues --  -10.31008 -10.30893 -10.30619 -10.30496 -10.30359
 Alpha  occ. eigenvalues --  -10.30200 -10.29918 -10.29635 -10.29613 -10.29259
 Alpha  occ. eigenvalues --  -10.29108 -10.29030 -10.28841 -10.28705 -10.28358
 Alpha  occ. eigenvalues --  -10.28357 -10.28356 -10.28231 -10.28157 -10.28153
 Alpha  occ. eigenvalues --  -10.28042 -10.27975 -10.27911 -10.27863 -10.27795
 Alpha  occ. eigenvalues --  -10.27780 -10.27637 -10.27608 -10.27581 -10.27518
 Alpha  occ. eigenvalues --  -10.27438 -10.27401 -10.27374 -10.27331 -10.27203
 Alpha  occ. eigenvalues --  -10.27128 -10.27107 -10.26939 -10.26856 -10.26611
 Alpha  occ. eigenvalues --  -10.26515 -10.26461 -10.26377 -10.26275 -10.26251
 Alpha  occ. eigenvalues --  -10.26018 -10.25871 -10.25865 -10.25861 -10.25771
 Alpha  occ. eigenvalues --  -10.25594 -10.25515 -10.25455 -10.25183 -10.24854
 Alpha  occ. eigenvalues --  -10.24755  -3.17678  -3.17127  -1.92581  -1.92123
 Alpha  occ. eigenvalues --   -1.92004  -1.91979  -1.91563  -1.91454  -1.16664
 Alpha  occ. eigenvalues --   -1.15986  -1.11999  -1.10221  -1.09629  -1.08685
 Alpha  occ. eigenvalues --   -1.07495  -1.07417  -1.05151  -1.04136  -1.03801
 Alpha  occ. eigenvalues --   -1.03199  -1.02917  -1.02854  -1.01764  -1.01738
 Alpha  occ. eigenvalues --   -0.92401  -0.92231  -0.89684  -0.89367  -0.89124
 Alpha  occ. eigenvalues --   -0.88818  -0.88728  -0.88031  -0.87351  -0.87302
 Alpha  occ. eigenvalues --   -0.86933  -0.86662  -0.86524  -0.86273  -0.84836
 Alpha  occ. eigenvalues --   -0.84673  -0.84257  -0.83398  -0.83315  -0.82442
 Alpha  occ. eigenvalues --   -0.81929  -0.81562  -0.81233  -0.81153  -0.80331
 Alpha  occ. eigenvalues --   -0.79990  -0.78109  -0.77747  -0.77396  -0.77382
 Alpha  occ. eigenvalues --   -0.77226  -0.76703  -0.76276  -0.75828  -0.75148
 Alpha  occ. eigenvalues --   -0.75001  -0.72771  -0.72491  -0.72202  -0.71741
 Alpha  occ. eigenvalues --   -0.69893  -0.69287  -0.69277  -0.68635  -0.68376
 Alpha  occ. eigenvalues --   -0.67775  -0.67457  -0.67261  -0.65717  -0.65621
 Alpha  occ. eigenvalues --   -0.65259  -0.65025  -0.65016  -0.64730  -0.64579
 Alpha  occ. eigenvalues --   -0.64416  -0.62561  -0.62258  -0.60325  -0.60164
 Alpha  occ. eigenvalues --   -0.59652  -0.59450  -0.59444  -0.58941  -0.58802
 Alpha  occ. eigenvalues --   -0.58539  -0.58231  -0.57998  -0.57508  -0.57164
 Alpha  occ. eigenvalues --   -0.56429  -0.56064  -0.55949  -0.55562  -0.55090
 Alpha  occ. eigenvalues --   -0.54993  -0.54903  -0.54711  -0.54445  -0.54297
 Alpha  occ. eigenvalues --   -0.53834  -0.53565  -0.53216  -0.53186  -0.53178
 Alpha  occ. eigenvalues --   -0.52893  -0.52496  -0.52423  -0.52419  -0.52310
 Alpha  occ. eigenvalues --   -0.52153  -0.51967  -0.51700  -0.51527  -0.51497
 Alpha  occ. eigenvalues --   -0.51255  -0.51079  -0.50914  -0.50595  -0.50368
 Alpha  occ. eigenvalues --   -0.50175  -0.49983  -0.49884  -0.49880  -0.49677
 Alpha  occ. eigenvalues --   -0.49359  -0.49193  -0.48942  -0.48941  -0.48608
 Alpha  occ. eigenvalues --   -0.48543  -0.48498  -0.48445  -0.48275  -0.48144
 Alpha  occ. eigenvalues --   -0.48080  -0.47722  -0.47536  -0.47501  -0.47407
 Alpha  occ. eigenvalues --   -0.47263  -0.46976  -0.46870  -0.46769  -0.46437
 Alpha  occ. eigenvalues --   -0.46313  -0.46163  -0.46106  -0.45900  -0.45641
 Alpha  occ. eigenvalues --   -0.45632  -0.45324  -0.45212  -0.45171  -0.44941
 Alpha  occ. eigenvalues --   -0.44796  -0.44751  -0.44557  -0.44336  -0.44142
 Alpha  occ. eigenvalues --   -0.43933  -0.43731  -0.43486  -0.43484  -0.43306
 Alpha  occ. eigenvalues --   -0.43243  -0.43100  -0.43011  -0.42932  -0.42815
 Alpha  occ. eigenvalues --   -0.42793  -0.42578  -0.42331  -0.42324  -0.42161
 Alpha  occ. eigenvalues --   -0.42128  -0.41960  -0.41953  -0.41712  -0.41678
 Alpha  occ. eigenvalues --   -0.41657  -0.41560  -0.40766  -0.40604  -0.40563
 Alpha  occ. eigenvalues --   -0.40230  -0.40129  -0.39816  -0.39540  -0.39176
 Alpha  occ. eigenvalues --   -0.38405  -0.38242  -0.37894  -0.37624  -0.37517
 Alpha  occ. eigenvalues --   -0.37236  -0.37168  -0.36746  -0.36721  -0.36418
 Alpha  occ. eigenvalues --   -0.36284  -0.36019  -0.34690  -0.34358  -0.34232
 Alpha  occ. eigenvalues --   -0.34183  -0.33502  -0.32950  -0.31808  -0.31243
 Alpha  occ. eigenvalues --   -0.31134  -0.31007  -0.30911  -0.30775  -0.30571
 Alpha  occ. eigenvalues --   -0.30401  -0.29904  -0.28947  -0.24433  -0.24289
 Alpha  occ. eigenvalues --   -0.21270  -0.20978
 Alpha virt. eigenvalues --   -0.08771  -0.08509  -0.02379  -0.01716  -0.00265
 Alpha virt. eigenvalues --    0.00550   0.01927   0.02150   0.02165   0.02719
 Alpha virt. eigenvalues --    0.04536   0.04711   0.04730   0.04917   0.05418

 Mulliken charges:
               1
     1  Mg  12.002864
     2  C    6.028365
     3  C    5.972516
     4  C    5.990203
     5  C    6.022074
     6  N    7.002850
     7  C    5.959030
     8  C    6.013549
     9  C    5.988577
    10  C    6.038548
    11  C    5.998305
    12  C    6.002546
    13  C    6.004283
    14  H    0.990853
    15  N    6.986805
    16  C    6.045224
    17  C    6.020045
    18  C    6.019218
    19  C    6.032166
    20  C    5.998782
    21  C    6.011058
    22  O    8.030521
    23  C    5.994938
    24  N    7.002476
    25  C    6.030570
    26  C    5.988982
    27  C    6.012420
    28  C    5.965671
    29  C    5.998638
    30  C    6.002663
    31  C    6.005239
    32  N    7.006679
    33  C    5.947606
    34  C    5.974474
    35  C    5.995425
    36  C    5.961664
    37  C    6.003342
    38  C    5.983525
    39  O    7.972523
    40  C    5.997135
    41  C    5.996652
    42  O    7.996283
    43  O    7.998329
    44  C    6.002087
    45  H    1.007063
    46  H    1.007054
    47  H    0.991031
    48  H    0.998316
    49  H    1.001526
    50  H    1.015097
    51  H    1.000529
    52  H    0.999362
    53  H    0.986814
    54  H    1.005422
    55  H    0.996145
    56  H    1.003333
    57  H    1.021240
    58  H    1.015574
    59  H    1.014174
    60  H    1.008941
    61  H    1.014695
    62  H    1.007896
    63  H    1.001187
    64  H    0.997382
    65  H    0.998367
    66  H    0.997077
    67  H    1.010478
    68  H    0.989557
    69  H    1.004752
    70  H    1.005904
    71  H    0.990480
    72  H    0.992699
    73  H    0.983464
    74  H    0.980360
    75  H    0.978583
    76  H    0.992654
    77  H    0.995499
    78  H    0.998671
    79  H    0.992971
    80  Mg  12.000008
    81  C    6.000255
    82  C    5.999907
    83  C    5.999814
    84  C    6.000129
    85  N    7.000120
    86  C    5.999712
    87  C    6.000076
    88  C    5.999906
    89  C    6.000234
    90  C    5.999973
    91  C    6.000026
    92  C    6.000039
    93  H    0.999922
    94  N    6.999968
    95  C    6.000271
    96  C    6.000175
    97  C    6.000093
    98  C    6.000281
    99  C    5.999960
   100  C    6.000066
   101  O    8.000140
   102  C    6.000010
   103  N    6.999955
   104  C    6.000220
   105  C    5.999990
   106  C    6.000024
   107  C    5.999778
   108  C    5.999984
   109  C    6.000061
   110  C    6.000011
   111  N    6.999972
   112  C    5.999741
   113  C    5.999795
   114  C    5.999927
   115  C    5.999743
   116  C    6.000044
   117  C    5.999883
   118  O    7.999752
   119  C    5.999953
   120  C    5.999990
   121  O    7.999974
   122  O    7.999987
   123  C    6.000032
   124  H    1.000104
   125  H    1.000071
   126  H    0.999932
   127  H    0.999982
   128  H    1.000025
   129  H    0.999976
   130  H    1.000069
   131  H    1.000072
   132  H    0.999937
   133  H    1.000012
   134  H    1.000016
   135  H    1.000001
   136  H    1.000124
   137  H    1.000122
   138  H    1.000151
   139  H    1.000095
   140  H    1.000049
   141  H    1.000053
   142  H    1.000007
   143  H    0.999984
   144  H    1.000067
   145  H    0.999985
   146  H    0.999998
   147  H    0.999976
   148  H    0.999921
   149  H    1.000001
   150  H    1.000026
   151  H    0.999966
   152  H    0.999875
   153  H    0.999879
   154  H    0.999839
   155  H    0.999911
   156  H    0.999957
   157  H    0.999980
   158  H    0.999942
 Sum of Mulliken charges = 624.00000

 Dipole moment (field-independent basis, Debye):
    X=             -4.7440    Y=              9.7222    Z=             -0.5457  Tot=             10.8317
 Quadrupole moment (field-independent basis, Debye-Ang):
   XX=           -283.5803   YY=             11.4557   ZZ=             -2.1162
   XY=            292.5679   XZ=            -21.2523   YZ=              2.4858

 Normal termination of Gaussian 16 at Tue Sep 21 18:15:00 2021.
