 Gaussian 16, Revision A.03,
 Gaussian 16:  ES64L-G16RevA.03 25-Dec-2016

 -----------------------------------
 #p cam-b3lyp/Def2SVP td=(nstates=5)
 -----------------------------------

 --------------------------------
 TDDFT excited states in gaussian
 --------------------------------
 Symbolic Z-matrix:
 Charge =  0 Multiplicity = 1

                         Standard orientation:
 ---------------------------------------------------------------------
 Center     Atomic      Atomic             Coordinates (Angstroms)
 Number     Number       Type             X           Y           Z
 ---------------------------------------------------------------------
      1         12           0      -11.823133    0.160623   -0.543995
      2          6           0       -8.961454   -1.901764   -0.435662
      3          6           0      -13.706994   -2.484425    0.729768
      4          6           0      -14.228084    2.429621    0.281980
      5          6           0       -9.599255    2.852985   -1.341120
      6          7           0      -11.374730   -1.910128    0.022966
      7          6           0      -10.166355   -2.511811    0.011667
      8          6           0      -10.244452   -3.940963    0.640640
      9          6           0      -11.825270   -4.172163    0.624275
     10          6           0      -12.398605   -2.734341    0.407370
     11          6           0      -12.482822   -5.078389   -0.441133
     12          6           0       -9.607219   -3.899360    2.080929
     13          6           0       -8.829916   -5.188287    2.467118
     14          1           0       -9.020154   -5.679314    3.959886
     15          7           0      -13.841742   -0.021304    0.213037
     16          6           0      -14.389800   -1.210550    0.614702
     17          6           0      -15.725845   -0.935335    0.985432
     18          6           0      -15.935674    0.475282    0.949922
     19          6           0      -14.657679    1.053380    0.414699
     20          6           0      -16.728567   -1.969209    1.440517
     21          6           0      -17.111785    1.218566    1.485207
     22          8           0      -18.012986    0.655015    2.085201
     23          6           0      -17.281918    2.646757    1.420777
     24          7           0      -11.825234    2.378139   -0.441751
     25          6           0      -13.042618    3.038807   -0.220108
     26          6           0      -12.906895    4.501853   -0.505360
     27          6           0      -11.412940    4.682287   -0.965228
     28          6           0      -10.892374    3.255932   -0.923369
     29          6           0      -13.946807    4.903458   -1.559190
     30          6           0      -10.648651    5.829147   -0.202592
     31          6           0      -10.050824    6.918392   -1.040532
     32          7           0       -9.682051    0.471496   -0.881485
     33          6           0       -8.987804    1.600171   -1.242114
     34          6           0       -7.584049    1.261762   -1.564113
     35          6           0       -7.562928   -0.105632   -1.181169
     36          6           0       -8.840726   -0.532990   -0.872440
     37          6           0       -6.437654    2.173252   -1.973192
     38          6           0       -6.662589   -1.201943   -0.941036
     39          8           0       -5.426759   -1.253740   -1.040521
     40          6           0       -7.470001   -2.414244   -0.477809
     41          6           0       -7.231353   -3.580366   -1.348621
     42          8           0       -6.803648   -4.598675   -0.940332
     43          8           0       -7.732105   -3.433592   -2.609845
     44          6           0       -7.695317   -4.718997   -3.340523
     45          1           0      -14.342942   -3.311186    1.054440
     46          1           0      -15.074134    3.089882    0.479022
     47          1           0       -8.774229    3.538325   -1.549042
     48          1           0       -9.697946   -4.625636   -0.008172
     49          1           0      -12.283223   -4.324107    1.601530
     50          1           0      -11.865365   -5.117636   -1.339245
     51          1           0      -13.503063   -4.825646   -0.729981
     52          1           0      -12.484395   -6.080005   -0.012496
     53          1           0      -10.362955   -3.667802    2.832030
     54          1           0       -8.919904   -3.053901    2.049441
     55          1           0       -7.789850   -4.916295    2.286309
     56          1           0       -9.144577   -5.894773    1.698706
     57          1           0      -17.780063   -1.698763    1.343147
     58          1           0      -16.472263   -2.124132    2.488218
     59          1           0      -16.560637   -2.992661    1.105131
     60          1           0      -17.303936    2.912607    0.363148
     61          1           0      -16.495375    3.162938    1.971988
     62          1           0      -18.232927    2.901635    1.888545
     63          1           0      -12.966430    5.079408    0.416819
     64          1           0      -11.223603    4.801327   -2.032264
     65          1           0      -14.727193    4.155498   -1.701467
     66          1           0      -13.493953    5.041852   -2.540960
     67          1           0      -14.556391    5.720507   -1.174408
     68          1           0       -9.872593    5.310103    0.359941
     69          1           0      -11.287007    6.434786    0.439647
     70          1           0       -8.993748    6.976424   -0.782462
     71          1           0      -10.479170    7.892960   -0.805621
     72          1           0      -10.259489    6.805824   -2.104478
     73          1           0       -5.963718    2.661831   -1.121613
     74          1           0       -6.717611    2.901270   -2.735621
     75          1           0       -5.711196    1.440921   -2.325181
     76          1           0       -7.092246   -2.759646    0.483674
     77          1           0       -8.105039   -4.544908   -4.335812
     78          1           0       -8.271839   -5.478849   -2.813117
     79          1           0       -6.692150   -5.077312   -3.568945
     80         12           0       10.965869    0.822395    0.030080
     81          6           0       12.226789   -2.398449    0.128984
     82          6           0        8.050298   -0.301669    1.513214
     83          6           0       10.126551    4.043374    0.591931
     84          6           0       14.137776    1.807356   -1.155879
     85          7           0       10.341400   -1.096792    1.002212
     86          6           0       10.953494   -2.250448    0.720719
     87          6           0       10.209264   -3.433300    1.414022
     88          6           0        8.750352   -2.802179    1.608206
     89          6           0        9.017161   -1.282025    1.286345
     90          6           0        7.665687   -3.521922    0.770962
     91          6           0       10.833249   -3.734220    2.757713
     92          6           0       10.962064   -5.209180    3.104857
     93          1           0       10.747432   -5.764360    4.563226
     94          7           0        9.185264    1.717863    0.795807
     95          6           0        8.147377    1.130433    1.415869
     96          6           0        7.210469    2.153966    1.748650
     97          6           0        7.708237    3.425315    1.330581
     98          6           0        9.057227    3.121316    0.837372
     99          6           0        5.852680    1.831665    2.253477
    100          6           0        7.026313    4.719222    1.601141
    101          8           0        5.923636    4.733994    2.122493
    102          6           0        7.639875    6.048931    1.179244
    103          7           0       12.019650    2.734154   -0.345713
    104          6           0       11.427641    3.890409    0.065209
    105          6           0       12.395540    5.027353    0.009236
    106          6           0       13.696093    4.281104   -0.553823
    107          6           0       13.298055    2.844247   -0.783583
    108          6           0       11.917697    6.243136   -0.806630
    109          6           0       15.015639    4.418648    0.327551
    110          6           0       16.342936    4.889053   -0.312466
    111          7           0       12.777702   -0.056272   -0.445255
    112          6           0       13.924380    0.448711   -0.972863
    113          6           0       14.718447   -0.584952   -1.471393
    114          6           0       14.103997   -1.771670   -1.096462
    115          6           0       12.972748   -1.399186   -0.414620
    116          6           0       16.093583   -0.382263   -2.172609
    117          6           0       14.163738   -3.157410   -1.136639
    118          8           0       15.079050   -3.862618   -1.546564
    119          6           0       12.935287   -3.734656   -0.281189
    120          6           0       12.028919   -4.472311   -1.085098
    121          8           0       11.172428   -4.096892   -1.889201
    122          8           0       12.260626   -5.812592   -0.791471
    123          6           0       11.497307   -6.860675   -1.447000
    124          1           0        7.073535   -0.668924    1.834232
    125          1           0        9.995014    5.121538    0.708717
    126          1           0       15.046418    2.216936   -1.602292
    127          1           0       10.274989   -4.299491    0.756204
    128          1           0        8.426179   -2.744463    2.646777
    129          1           0        8.097395   -4.271072    0.107550
    130          1           0        7.109233   -2.787192    0.188168
    131          1           0        6.954328   -3.963514    1.468484
    132          1           0       10.402657   -3.250439    3.634674
    133          1           0       11.794376   -3.220928    2.728813
    134          1           0       11.929049   -5.531866    2.719338
    135          1           0       10.204361   -5.643262    2.452529
    136          1           0        5.243179    1.892470    1.352054
    137          1           0        5.531889    2.538073    3.019341
    138          1           0        5.782434    0.836161    2.691945
    139          1           0        8.383496    6.283503    1.941041
    140          1           0        6.855980    6.791740    1.325007
    141          1           0        8.049479    5.983761    0.171319
    142          1           0       12.472875    5.259147    1.071002
    143          1           0       14.043300    4.729138   -1.484869
    144          1           0       11.665235    7.011073   -0.074694
    145          1           0       11.074786    6.012798   -1.459022
    146          1           0       12.747901    6.629214   -1.397574
    147          1           0       15.234496    3.444994    0.765722
    148          1           0       14.910123    5.139859    1.138295
    149          1           0       16.750760    3.922404   -0.607768
    150          1           0       16.993495    5.327489    0.443161
    151          1           0       16.335147    5.417482   -1.265685
    152          1           0       16.829106   -0.113159   -1.415603
    153          1           0       16.152021    0.439467   -2.886628
    154          1           0       16.420979   -1.300916   -2.660213
    155          1           0       13.385064   -4.304715    0.531875
    156          1           0       12.150949   -7.729163   -1.522061
    157          1           0       11.027842   -6.574284   -2.388484
    158          1           0       10.719345   -7.180159   -0.753454
 ---------------------------------------------------------------------

 SCF Done:  E(RCAM-B3LYP) =  -4069.76355506     A.U. after   19 cycles

 Excitation energies and oscillator strengths:

 Excited State   1:      Singlet-A      1.6792 eV  738.37 nm  f=0.5702  <S**2>=0.000
     309 -> 315       -0.16715
     311 -> 313        0.66563
     312 -> 314       -0.17015
     309 <- 315       -0.10318
 This state for optimization and/or second-order correction.
 Total Energy, E(TD-HF/TD-DFT) =  -4069.70184731
 Copying the excited state density for this state as the 1-particle RhoCI density.

 Excited State   2:      Singlet-A      1.7004 eV  729.15 nm  f=0.2559  <S**2>=0.000
     310 -> 316        0.17957
     311 -> 313        0.17010
     312 -> 314        0.66339
     310 <- 316        0.10655

 Excited State   3:      Singlet-A      2.2019 eV  563.08 nm  f=0.1072  <S**2>=0.000
     309 -> 313        0.64170
     311 -> 315        0.28109

 Excited State   4:      Singlet-A      2.2276 eV  556.58 nm  f=0.1038  <S**2>=0.000
     310 -> 314        0.63639
     312 -> 316       -0.29368

 Excited State   5:      Singlet-A      2.8652 eV  432.72 nm  f=0.0000  <S**2>=0.000
     312 -> 313        0.70698

 The electronic state is 1-A.
 Alpha  occ. eigenvalues --  -46.90811 -46.89591 -19.25098 -19.24537 -19.20089
 Alpha  occ. eigenvalues --  -19.19903 -19.19151 -19.18815 -19.18261 -19.17300
 Alpha  occ. eigenvalues --  -14.42949 -14.42678 -14.42248 -14.41927 -14.39881
 Alpha  occ. eigenvalues --  -14.39707 -14.39274 -14.39104 -10.39520 -10.38715
 Alpha  occ. eigenvalues --  -10.35136 -10.34744 -10.34531 -10.33484 -10.32222
 Alpha  occ. eigenvalues --  -10.31959 -10.31831 -10.31811 -10.31479 -10.31438
 Alpha  occ. eigenvalues --  -10.31286 -10.31217 -10.31056 -10.31035 -10.30964
 Alpha  occ. eigenvalues --  -10.30812 -10.30157 -10.29830 -10.29676 -10.29341
 Alpha  occ. eigenvalues --  -10.29280 -10.29059 -10.29016 -10.28884 -10.28762
 Alpha  occ. eigenvalues --  -10.28721 -10.28621 -10.28483 -10.28433 -10.28401
 Alpha  occ. eigenvalues --  -10.28394 -10.28264 -10.28242 -10.28231 -10.28144
 Alpha  occ. eigenvalues --  -10.28131 -10.28058 -10.28046 -10.27722 -10.27721
 Alpha  occ. eigenvalues --  -10.27697 -10.27661 -10.27515 -10.27452 -10.27261
 Alpha  occ. eigenvalues --  -10.26991 -10.26946 -10.26931 -10.26795 -10.26793
 Alpha  occ. eigenvalues --  -10.26730 -10.26635 -10.26506 -10.26493 -10.26451
 Alpha  occ. eigenvalues --  -10.26378 -10.25956 -10.25956 -10.25842 -10.25709
 Alpha  occ. eigenvalues --  -10.25692 -10.25421 -10.25270 -10.25240 -10.24768
 Alpha  occ. eigenvalues --  -10.24753  -3.18959  -3.17914  -1.93872  -1.93394
 Alpha  occ. eigenvalues --   -1.93254  -1.92827  -1.92364  -1.92207  -1.17958
 Alpha  occ. eigenvalues --   -1.15645  -1.09939  -1.09896  -1.09532  -1.09026
 Alpha  occ. eigenvalues --   -1.08927  -1.07421  -1.05414  -1.05089  -1.03982
 Alpha  occ. eigenvalues --   -1.03771  -1.03727  -1.03409  -1.02515  -1.02510
 Alpha  occ. eigenvalues --   -0.93801  -0.92605  -0.89393  -0.89390  -0.89041
 Alpha  occ. eigenvalues --   -0.88995  -0.88331  -0.88216  -0.88041  -0.87793
 Alpha  occ. eigenvalues --   -0.86984  -0.86784  -0.86088  -0.85800  -0.85330
 Alpha  occ. eigenvalues --   -0.84858  -0.84629  -0.84551  -0.82960  -0.82691
 Alpha  occ. eigenvalues --   -0.82496  -0.82158  -0.81391  -0.80904  -0.80710
 Alpha  occ. eigenvalues --   -0.80531  -0.78630  -0.78098  -0.77591  -0.77527
 Alpha  occ. eigenvalues --   -0.76848  -0.76479  -0.76463  -0.76411  -0.75411
 Alpha  occ. eigenvalues --   -0.75074  -0.73420  -0.73119  -0.72496  -0.72292
 Alpha  occ. eigenvalues --   -0.69729  -0.69346  -0.69238  -0.69185  -0.68025
 Alpha  occ. eigenvalues --   -0.67939  -0.67322  -0.66881  -0.66324  -0.66103
 Alpha  occ. eigenvalues --   -0.65813  -0.65694  -0.65394  -0.64973  -0.64766
 Alpha  occ. eigenvalues --   -0.64627  -0.63293  -0.62611  -0.60408  -0.60054
 Alpha  occ. eigenvalues --   -0.59999  -0.59796  -0.59035  -0.59007  -0.58970
 Alpha  occ. eigenvalues --   -0.58863  -0.58290  -0.58092  -0.57903  -0.57057
 Alpha  occ. eigenvalues --   -0.56490  -0.56261  -0.56061  -0.56060  -0.55536
 Alpha  occ. eigenvalues --   -0.55365  -0.55113  -0.54797  -0.54532  -0.54286
 Alpha  occ. eigenvalues --   -0.53485  -0.53442  -0.53358  -0.53296  -0.53167
 Alpha  occ. eigenvalues --   -0.52807  -0.52638  -0.52571  -0.52257  -0.52247
 Alpha  occ. eigenvalues --   -0.52002  -0.51989  -0.51742  -0.51738  -0.51443
 Alpha  occ. eigenvalues --   -0.51412  -0.51309  -0.51209  -0.50864  -0.50306
 Alpha  occ. eigenvalues --   -0.50038  -0.50025  -0.49925  -0.49829  -0.49542
 Alpha  occ. eigenvalues --   -0.49496  -0.49350  -0.49246  -0.49014  -0.48936
 Alpha  occ. eigenvalues --   -0.48905  -0.48596  -0.48378  -0.48283  -0.48186
 Alpha  occ. eigenvalues --   -0.48184  -0.47507  -0.47467  -0.47305  -0.46933
 Alpha  occ. eigenvalues --   -0.46801  -0.46771  -0.46666  -0.46659  -0.46607
 Alpha  occ. eigenvalues --   -0.46523  -0.46338  -0.46312  -0.46032  -0.45858
 Alpha  occ. eigenvalues --   -0.45737  -0.45730  -0.45367  -0.45202  -0.45114
 Alpha  occ. eigenvalues --   -0.45062  -0.44980  -0.44835  -0.44655  -0.44596
 Alpha  occ. eigenvalues --   -0.44425  -0.44327  -0.43991  -0.43811  -0.43573
 Alpha  occ. eigenvalues --   -0.43518  -0.43307  -0.43307  -0.43065  -0.42979
 Alpha  occ. eigenvalues --   -0.42861  -0.42778  -0.42625  -0.42274  -0.42103
 Alpha  occ. eigenvalues --   -0.41963  -0.41827  -0.41764  -0.41743  -0.41371
 Alpha  occ. eigenvalues --   -0.41259  -0.41000  -0.40978  -0.40768  -0.40178
 Alpha  occ. eigenvalues --   -0.40102  -0.39615  -0.39611  -0.39216  -0.38649
 Alpha  occ. eigenvalues --   -0.38200  -0.38124  -0.37883  -0.37882  -0.37622
 Alpha  occ. eigenvalues --   -0.37273  -0.37213  -0.37173  -0.36869  -0.36378
 Alpha  occ. eigenvalues --   -0.36174  -0.35576  -0.34905  -0.34819  -0.34266
 Alpha  occ. eigenvalues --   -0.34110  -0.33523  -0.33467  -0.31735  -0.31468
 Alpha  occ. eigenvalues --   -0.31112  -0.30946  -0.30627  -0.30406  -0.30362
 Alpha  occ. eigenvalues --   -0.29987  -0.29346  -0.29175  -0.24484  -0.24457
 Alpha  occ. eigenvalues --   -0.21549  -0.21451
 Alpha virt. eigenvalues --   -0.09357  -0.09089  -0.02227  -0.02181  -0.00083
 Alpha virt. eigenvalues --    0.00311   0.01234   0.02430   0.02453   0.02616
 Alpha virt. eigenvalues --    0.04150   0.04704   0.04745   0.05464   0.05599

 Mulliken charges:
               1
     1  Mg   0.801102
     2  C    0.004353
     3  C   -0.071569
     4  C   -0.019762
     5  C   -0.048213
     6  N   -0.286833
     7  C   -0.055417
     8  C   -0.042483
     9  C   -0.052319
    10  C    0.057976
    11  C    0.080582
    12  C    0.048726
    13  C   -0.050645
    14  H    0.026110
    15  N   -0.365205
    16  C    0.114055
    17  C   -0.149699
    18  C   -0.022462
    19  C    0.090897
    20  C    0.140545
    21  C   -0.050277
    22  O   -0.214657
    23  C    0.079059
    24  N   -0.287358
    25  C    0.025697
    26  C   -0.009770
    27  C   -0.012931
    28  C    0.028466
    29  C    0.074456
    30  C    0.039521
    31  C   -0.004137
    32  N   -0.281394
    33  C    0.026194
    34  C   -0.154904
    35  C    0.014948
    36  C    0.076334
    37  C    0.107464
    38  C    0.020351
    39  O   -0.189883
    40  C    0.052725
    41  C    0.149217
    42  O   -0.180266
    43  O   -0.336437
    44  C    0.181972
    45  H   -0.018086
    46  H   -0.053384
    47  H   -0.027002
    48  H    0.012452
    49  H    0.009832
    50  H    0.010194
    51  H    0.025039
    52  H    0.017107
    53  H    0.017891
    54  H    0.013070
    55  H    0.042870
    56  H    0.031714
    57  H    0.047095
    58  H    0.015772
    59  H   -0.005046
    60  H    0.029943
    61  H    0.043513
    62  H    0.024683
    63  H    0.021302
    64  H    0.015133
    65  H    0.014877
    66  H    0.018878
    67  H    0.014555
    68  H    0.017161
    69  H    0.015930
    70  H    0.020940
    71  H    0.008590
    72  H    0.012623
    73  H    0.041921
    74  H    0.029844
    75  H    0.041958
    76  H    0.031422
    77  H    0.027476
    78  H    0.035898
    79  H    0.039705
    80  Mg   0.803409
    81  C   -0.053527
    82  C   -0.077427
    83  C   -0.031698
    84  C   -0.114064
    85  N   -0.266432
    86  C   -0.028561
    87  C   -0.077947
    88  C   -0.056819
    89  C    0.065482
    90  C    0.082939
    91  C    0.065228
    92  C   -0.060456
    93  H    0.028790
    94  N   -0.375700
    95  C    0.137226
    96  C   -0.161385
    97  C   -0.019025
    98  C    0.178204
    99  C    0.123863
   100  C   -0.042894
   101  O   -0.204872
   102  C    0.068062
   103  N   -0.281936
   104  C   -0.040088
   105  C   -0.032410
   106  C   -0.000338
   107  C    0.029854
   108  C    0.073927
   109  C   -0.008352
   110  C   -0.012552
   111  N   -0.343782
   112  C    0.184223
   113  C   -0.180615
   114  C    0.103139
   115  C    0.131936
   116  C    0.117916
   117  C   -0.022281
   118  O   -0.171466
   119  C   -0.002464
   120  C    0.227915
   121  O   -0.227654
   122  O   -0.357640
   123  C    0.177829
   124  H   -0.024265
   125  H   -0.050914
   126  H   -0.029819
   127  H    0.016152
   128  H    0.020393
   129  H    0.026881
   130  H    0.013429
   131  H    0.014490
   132  H    0.013072
   133  H    0.002550
   134  H    0.032496
   135  H    0.023839
   136  H    0.037438
   137  H    0.042040
   138  H    0.002804
   139  H    0.036744
   140  H    0.024665
   141  H    0.043382
   142  H    0.026425
   143  H   -0.001459
   144  H    0.020504
   145  H    0.031745
   146  H    0.017425
   147  H    0.019592
   148  H    0.006081
   149  H    0.003098
   150  H    0.024359
   151  H    0.018921
   152  H    0.024303
   153  H    0.016455
   154  H    0.037662
   155  H    0.052279
   156  H    0.038419
   157  H    0.051887
   158  H    0.019369
 Sum of Mulliken charges =  -0.00000

 Dipole moment (field-independent basis, Debye):
    X=             -0.6750    Y=              5.3556    Z=             -2.6137  Tot=              5.9974
 Quadrupole moment (field-independent basis, Debye-Ang):
   XX=           -524.4148   YY=           -461.7874   ZZ=           -516.0112
   XY=             35.2912   XZ=             56.5987   YZ=            -11.4250

 Normal termination of Gaussian 16 at Wed Sep  1 01:40:12 2021.
