 Gaussian 16, Revision A.03,
 Gaussian 16:  ES64L-G16RevA.03 25-Dec-2016

 ----------------------------------------------------------
 #p cam-b3lyp/Def2SVP td=(nstates=5) density=(transition=1)
 ----------------------------------------------------------

 --------------------------------
 TDDFT excited states in gaussian
 --------------------------------
 Symbolic Z-matrix:
 Charge =  0 Multiplicity = 1

                         Standard orientation:
 ---------------------------------------------------------------------
 Center     Atomic      Atomic             Coordinates (Angstroms)
 Number     Number       Type             X           Y           Z
 ---------------------------------------------------------------------
      1         12           0      -11.535608    0.087141   -0.594741
      2          6           0       -8.283307   -1.150207    0.264279
      3          6           0      -12.747260   -3.186469   -0.016427
      4          6           0      -14.652318    1.330167   -0.630710
      5          6           0      -10.256721    3.289708   -0.448490
      6          7           0      -10.629584   -1.969459    0.044990
      7          6           0       -9.306603   -2.129635    0.348703
      8          6           0       -9.096777   -3.478619    1.018079
      9          6           0      -10.478786   -4.152509    0.629094
     10          6           0      -11.397002   -3.077970    0.186080
     11          6           0      -10.444888   -5.287819   -0.448480
     12          6           0       -8.734441   -3.280115    2.524879
     13          6           0       -7.552151   -4.114816    3.168498
     14          1           0       -7.845751   -5.084518    4.327310
     15          7           0      -13.380319   -0.759973   -0.552733
     16          6           0      -13.701544   -2.123655   -0.322154
     17          6           0      -15.136316   -2.327653   -0.399398
     18          6           0      -15.680415   -0.990221   -0.572009
     19          6           0      -14.542737   -0.090158   -0.598686
     20          6           0      -15.746441   -3.645375   -0.159562
     21          6           0      -17.187631   -0.716255   -0.715525
     22          8           0      -17.953934   -1.713170   -0.571276
     23          6           0      -17.824252    0.656879   -1.018021
     24          7           0      -12.440947    2.059443   -0.282119
     25          6           0      -13.711336    2.324756   -0.518859
     26          6           0      -13.919969    3.799257   -0.391752
     27          6           0      -12.483491    4.387167   -0.395926
     28          6           0      -11.636240    3.157256   -0.282500
     29          6           0      -14.873213    4.556707   -1.411988
     30          6           0      -12.173903    5.461109    0.770151
     31          6           0      -11.859262    6.921933    0.364636
     32          7           0       -9.686019    0.920189   -0.386462
     33          6           0       -9.312324    2.210305   -0.347233
     34          6           0       -7.913241    2.342072   -0.165333
     35          6           0       -7.470979    1.032033    0.032810
     36          6           0       -8.601173    0.181768   -0.067061
     37          6           0       -7.043461    3.534435   -0.167015
     38          6           0       -6.277293    0.303787    0.334204
     39          8           0       -5.168080    0.734276    0.557530
     40          6           0       -6.807280   -1.251223    0.553196
     41          6           0       -6.136568   -2.145277   -0.398155
     42          8           0       -5.943808   -1.906039   -1.596957
     43          8           0       -5.804766   -3.286925    0.299746
     44          6           0       -5.114096   -4.331570   -0.454569
     45          1           0      -13.181500   -4.174493    0.143831
     46          1           0      -15.635963    1.795108   -0.541151
     47          1           0       -9.772307    4.253318   -0.620604
     48          1           0       -8.341793   -3.997484    0.426859
     49          1           0      -10.790384   -4.438605    1.634348
     50          1           0      -11.116822   -4.989711   -1.254574
     51          1           0      -10.802881   -6.253295   -0.091674
     52          1           0       -9.484753   -5.440565   -0.942286
     53          1           0       -9.682393   -3.577758    2.972541
     54          1           0       -8.567184   -2.251439    2.843386
     55          1           0       -6.824960   -3.365200    3.480002
     56          1           0       -7.006125   -4.602367    2.361448
     57          1           0      -15.353805   -3.994008    0.795919
     58          1           0      -15.394173   -4.359114   -0.903977
     59          1           0      -16.830440   -3.728806   -0.241853
     60          1           0      -17.729389    1.274517   -0.124769
     61          1           0      -18.767798    0.409330   -1.503265
     62          1           0      -17.177851    1.050661   -1.803093
     63          1           0      -14.405614    3.961097    0.569770
     64          1           0      -12.379005    4.706367   -1.432967
     65          1           0      -15.256725    5.403642   -0.842471
     66          1           0      -15.648993    3.864292   -1.738460
     67          1           0      -14.237620    4.905237   -2.226206
     68          1           0      -11.337562    5.016568    1.309358
     69          1           0      -12.990328    5.403706    1.489932
     70          1           0      -10.962096    7.309620    0.845380
     71          1           0      -12.716142    7.545027    0.622151
     72          1           0      -11.769298    7.068037   -0.711937
     73          1           0       -5.997983    3.271517   -0.324958
     74          1           0       -7.250407    3.863281    0.851549
     75          1           0       -7.543678    4.313838   -0.741694
     76          1           0       -6.745710   -1.546658    1.599975
     77          1           0       -4.247494   -3.939150   -0.987133
     78          1           0       -5.809104   -4.804753   -1.149792
     79          1           0       -4.749102   -5.082724    0.245934
     80         12           0       10.435551    0.924190   -0.499962
     81          6           0       11.869439   -2.317133   -0.690361
     82          6           0        7.487512   -0.605936    0.565356
     83          6           0        9.597619    3.846607    0.762375
     84          6           0       13.767789    2.195525   -1.326923
     85          7           0        9.848568   -1.275743    0.133726
     86          6           0       10.508915   -2.379193   -0.296918
     87          6           0        9.607873   -3.592426   -0.151845
     88          6           0        8.197664   -3.031276   -0.335264
     89          6           0        8.500329   -1.541973    0.206376
     90          6           0        7.620073   -2.955017   -1.749800
     91          6           0        9.921377   -4.328419    1.223243
     92          6           0       10.013692   -5.795472    1.067801
     93          1           0        9.364287   -6.670758    2.157350
     94          7           0        8.759742    1.583126    0.595416
     95          6           0        7.607129    0.802351    0.859740
     96          6           0        6.667020    1.675309    1.516482
     97          6           0        7.168674    3.003829    1.530876
     98          6           0        8.565728    2.888396    0.979709
     99          6           0        5.331143    1.140153    2.022423
    100          6           0        6.498645    4.184928    2.113647
    101          8           0        5.396997    4.043418    2.629859
    102          6           0        7.053898    5.565920    2.236539
    103          7           0       11.645268    2.786992   -0.234589
    104          6           0       10.912099    3.855670    0.135756
    105          6           0       11.722859    5.154172   -0.026737
    106          6           0       13.041961    4.669950   -0.854793
    107          6           0       12.819814    3.135309   -0.862008
    108          6           0       10.901514    6.376312   -0.639386
    109          6           0       14.412340    5.128756   -0.265178
    110          6           0       15.205936    4.105642    0.617034
    111          7           0       12.351741    0.179669   -0.916799
    112          6           0       13.564386    0.823999   -1.293883
    113          6           0       14.550769   -0.240389   -1.771274
    114          6           0       13.899731   -1.429709   -1.485092
    115          6           0       12.581765   -1.117158   -0.993752
    116          6           0       15.969008   -0.154779   -2.367506
    117          6           0       14.005506   -2.851682   -1.571139
    118          8           0       14.894110   -3.558409   -2.049691
    119          6           0       12.776861   -3.383754   -0.924168
    120          6           0       13.308121   -3.958656    0.408816
    121          8           0       13.598435   -3.332991    1.426279
    122          8           0       13.476719   -5.359019    0.223788
    123          6           0       14.067670   -6.101528    1.261958
    124          1           0        6.508687   -1.021955    0.813448
    125          1           0        9.158757    4.803591    1.051521
    126          1           0       14.741963    2.479326   -1.728816
    127          1           0        9.717469   -4.310661   -0.964252
    128          1           0        7.354326   -3.471909    0.195216
    129          1           0        8.122227   -3.605090   -2.465703
    130          1           0        7.456387   -1.923280   -2.061933
    131          1           0        6.629285   -3.390528   -1.615194
    132          1           0        9.101677   -4.134183    1.915040
    133          1           0       10.756782   -3.902232    1.778830
    134          1           0       11.091938   -5.940835    1.012352
    135          1           0        9.549170   -6.067625    0.120158
    136          1           0        4.490643    1.433606    1.393801
    137          1           0        5.209848    1.434754    3.063798
    138          1           0        5.336143    0.050069    2.021491
    139          1           0        7.135220    5.989505    1.235206
    140          1           0        8.020152    5.647975    2.735760
    141          1           0        6.322366    6.256280    2.654738
    142          1           0       12.038438    5.371186    0.993539
    143          1           0       12.929010    4.977161   -1.893940
    144          1           0        9.832489    6.258361   -0.462800
    145          1           0       11.091336    6.679709   -1.669642
    146          1           0       11.368547    7.235532   -0.155470
    147          1           0       14.330975    6.055559    0.302146
    148          1           0       14.999230    5.301883   -1.166900
    149          1           0       15.663710    4.855178    1.263013
    150          1           0       15.987358    3.513487    0.140263
    151          1           0       14.476074    3.507571    1.163050
    152          1           0       16.009782   -0.627121   -3.348380
    153          1           0       16.434242   -0.866524   -1.686207
    154          1           0       16.321589    0.867163   -2.229859
    155          1           0       12.374003   -4.199065   -1.525171
    156          1           0       14.179926   -7.166123    1.052946
    157          1           0       13.428120   -6.000273    2.137876
    158          1           0       15.048487   -5.647781    1.406928
 ---------------------------------------------------------------------

 SCF Done:  E(RCAM-B3LYP) =  -4069.74437805     A.U. after   17 cycles

 Excitation energies and oscillator strengths:

 Excited State   1:      Singlet-A      1.6818 eV  737.21 nm  f=0.5443  <S**2>=0.000
     310 -> 315        0.18401
     311 -> 313       -0.24183
     312 -> 314        0.63679
     310 <- 315        0.10486
 This state for optimization and/or second-order correction.
 Total Energy, E(TD-HF/TD-DFT) =  -4069.68257253
 Copying the excited state density for this state as the 1-particle RhoCI density.

 Excited State   2:      Singlet-A      1.7013 eV  728.76 nm  f=0.2211  <S**2>=0.000
     309 -> 316       -0.17398
     311 -> 313        0.64129
     312 -> 314        0.23909
     309 <- 316       -0.10444

 Excited State   3:      Singlet-A      2.1918 eV  565.67 nm  f=0.0535  <S**2>=0.000
     310 -> 314        0.61428
     312 -> 315       -0.33975

 Excited State   4:      Singlet-A      2.2524 eV  550.45 nm  f=0.1326  <S**2>=0.000
     309 -> 313        0.64082
     311 -> 316        0.28932

 Excited State   5:      Singlet-A      2.8443 eV  435.90 nm  f=0.0000  <S**2>=0.000
     312 -> 313        0.70696

 The electronic state is 1-A.
 Alpha  occ. eigenvalues --  -46.91220 -46.88886 -19.26278 -19.24661 -19.21348
 Alpha  occ. eigenvalues --  -19.20558 -19.19707 -19.18842 -19.18115 -19.17462
 Alpha  occ. eigenvalues --  -14.42328 -14.41914 -14.41864 -14.41380 -14.40164
 Alpha  occ. eigenvalues --  -14.39912 -14.39805 -14.39675 -10.40537 -10.40094
 Alpha  occ. eigenvalues --  -10.35417 -10.35229 -10.34492 -10.34017 -10.32473
 Alpha  occ. eigenvalues --  -10.31755 -10.31342 -10.31327 -10.31225 -10.31173
 Alpha  occ. eigenvalues --  -10.31014 -10.30888 -10.30755 -10.30750 -10.30614
 Alpha  occ. eigenvalues --  -10.30377 -10.30307 -10.30286 -10.30000 -10.29736
 Alpha  occ. eigenvalues --  -10.29384 -10.29310 -10.29061 -10.28926 -10.28710
 Alpha  occ. eigenvalues --  -10.28710 -10.28542 -10.28450 -10.28338 -10.28305
 Alpha  occ. eigenvalues --  -10.28157 -10.28079 -10.28052 -10.27842 -10.27763
 Alpha  occ. eigenvalues --  -10.27611 -10.27583 -10.27572 -10.27528 -10.27494
 Alpha  occ. eigenvalues --  -10.27471 -10.27466 -10.27451 -10.27433 -10.27278
 Alpha  occ. eigenvalues --  -10.27206 -10.27176 -10.27098 -10.27046 -10.27002
 Alpha  occ. eigenvalues --  -10.26975 -10.26769 -10.26711 -10.26662 -10.26415
 Alpha  occ. eigenvalues --  -10.26399 -10.26281 -10.26190 -10.26176 -10.26048
 Alpha  occ. eigenvalues --  -10.25670 -10.25610 -10.25127 -10.25032 -10.24897
 Alpha  occ. eigenvalues --  -10.24537  -3.19420  -3.17441  -1.94261  -1.93927
 Alpha  occ. eigenvalues --   -1.93675  -1.92331  -1.91885  -1.91758  -1.16546
 Alpha  occ. eigenvalues --   -1.15769  -1.10787  -1.09532  -1.09245  -1.08599
 Alpha  occ. eigenvalues --   -1.08170  -1.07226  -1.05431  -1.04705  -1.04122
 Alpha  occ. eigenvalues --   -1.03724  -1.03371  -1.02757  -1.02318  -1.01191
 Alpha  occ. eigenvalues --   -0.94306  -0.93162  -0.89305  -0.89102  -0.88646
 Alpha  occ. eigenvalues --   -0.88263  -0.88114  -0.87949  -0.87727  -0.87452
 Alpha  occ. eigenvalues --   -0.87190  -0.86766  -0.85987  -0.85480  -0.84697
 Alpha  occ. eigenvalues --   -0.84621  -0.83842  -0.83591  -0.82709  -0.82626
 Alpha  occ. eigenvalues --   -0.82001  -0.81562  -0.81354  -0.80779  -0.80465
 Alpha  occ. eigenvalues --   -0.80196  -0.78199  -0.77960  -0.77634  -0.77199
 Alpha  occ. eigenvalues --   -0.76861  -0.76784  -0.76288  -0.75932  -0.75327
 Alpha  occ. eigenvalues --   -0.75123  -0.73173  -0.72667  -0.72197  -0.71758
 Alpha  occ. eigenvalues --   -0.69849  -0.69789  -0.69368  -0.68630  -0.68463
 Alpha  occ. eigenvalues --   -0.67253  -0.66789  -0.66733  -0.66135  -0.65621
 Alpha  occ. eigenvalues --   -0.65270  -0.65099  -0.64894  -0.64747  -0.64635
 Alpha  occ. eigenvalues --   -0.64467  -0.62953  -0.62149  -0.60124  -0.59883
 Alpha  occ. eigenvalues --   -0.59854  -0.59689  -0.59529  -0.59192  -0.58898
 Alpha  occ. eigenvalues --   -0.58835  -0.58416  -0.58170  -0.57573  -0.56948
 Alpha  occ. eigenvalues --   -0.56228  -0.56135  -0.55974  -0.55880  -0.55639
 Alpha  occ. eigenvalues --   -0.55563  -0.54879  -0.54846  -0.54496  -0.54489
 Alpha  occ. eigenvalues --   -0.53678  -0.53606  -0.53327  -0.53275  -0.52962
 Alpha  occ. eigenvalues --   -0.52920  -0.52618  -0.52570  -0.52112  -0.52078
 Alpha  occ. eigenvalues --   -0.51863  -0.51741  -0.51591  -0.51396  -0.51309
 Alpha  occ. eigenvalues --   -0.51233  -0.51202  -0.50562  -0.50467  -0.50315
 Alpha  occ. eigenvalues --   -0.50111  -0.50014  -0.49960  -0.49898  -0.49545
 Alpha  occ. eigenvalues --   -0.49391  -0.49333  -0.49112  -0.48853  -0.48767
 Alpha  occ. eigenvalues --   -0.48445  -0.48381  -0.48192  -0.47923  -0.47723
 Alpha  occ. eigenvalues --   -0.47680  -0.47637  -0.47572  -0.47421  -0.47395
 Alpha  occ. eigenvalues --   -0.47091  -0.47012  -0.46766  -0.46629  -0.46436
 Alpha  occ. eigenvalues --   -0.46100  -0.46012  -0.45916  -0.45849  -0.45828
 Alpha  occ. eigenvalues --   -0.45786  -0.45603  -0.45359  -0.45352  -0.45207
 Alpha  occ. eigenvalues --   -0.45073  -0.44962  -0.44523  -0.44497  -0.44373
 Alpha  occ. eigenvalues --   -0.44060  -0.43755  -0.43722  -0.43640  -0.43538
 Alpha  occ. eigenvalues --   -0.43396  -0.43256  -0.43206  -0.43071  -0.42936
 Alpha  occ. eigenvalues --   -0.42927  -0.42789  -0.42301  -0.42249  -0.41945
 Alpha  occ. eigenvalues --   -0.41524  -0.41506  -0.41208  -0.41193  -0.41087
 Alpha  occ. eigenvalues --   -0.40954  -0.40900  -0.40835  -0.40359  -0.40315
 Alpha  occ. eigenvalues --   -0.40206  -0.40003  -0.39104  -0.38906  -0.38723
 Alpha  occ. eigenvalues --   -0.38492  -0.38227  -0.38197  -0.37851  -0.37723
 Alpha  occ. eigenvalues --   -0.37620  -0.37556  -0.36451  -0.36430  -0.36257
 Alpha  occ. eigenvalues --   -0.35831  -0.35705  -0.35185  -0.35157  -0.34137
 Alpha  occ. eigenvalues --   -0.34091  -0.33262  -0.32996  -0.31390  -0.31310
 Alpha  occ. eigenvalues --   -0.31093  -0.30730  -0.30481  -0.30316  -0.30104
 Alpha  occ. eigenvalues --   -0.30082  -0.29382  -0.29349  -0.24149  -0.23968
 Alpha  occ. eigenvalues --   -0.21290  -0.20954
 Alpha virt. eigenvalues --   -0.08905  -0.08445  -0.02534  -0.01711  -0.00517
 Alpha virt. eigenvalues --    0.00215   0.00306   0.02263   0.02313   0.02448
 Alpha virt. eigenvalues --    0.04256   0.04768   0.05032   0.05237   0.05853

 Mulliken charges:
               1
     1  Mg  11.999797
     2  C    5.992778
     3  C    6.008843
     4  C    6.007656
     5  C    5.990575
     6  N    7.001657
     7  C    6.010473
     8  C    5.997287
     9  C    6.003325
    10  C    5.988398
    11  C    6.001048
    12  C    5.997021
    13  C    5.999821
    14  H    1.003189
    15  N    7.002525
    16  C    5.980446
    17  C    5.993112
    18  C    5.994972
    19  C    5.986294
    20  C    6.002210
    21  C    5.995543
    22  O    7.991684
    23  C    5.999478
    24  N    6.999860
    25  C    5.987748
    26  C    6.004366
    27  C    5.995618
    28  C    6.013382
    29  C    6.000575
    30  C    5.999409
    31  C    5.999556
    32  N    6.998263
    33  C    6.015300
    34  C    6.009561
    35  C    6.002707
    36  C    6.012017
    37  C    5.999950
    38  C    6.005471
    39  O    8.011609
    40  C    6.001712
    41  C    6.002046
    42  O    8.001507
    43  O    8.000889
    44  C    5.998960
    45  H    0.996595
    46  H    0.997141
    47  H    1.002400
    48  H    1.000170
    49  H    0.998943
    50  H    1.001665
    51  H    0.999021
    52  H    0.995247
    53  H    1.004408
    54  H    0.998291
    55  H    0.999349
    56  H    1.000108
    57  H    0.992558
    58  H    0.992205
    59  H    0.994299
    60  H    0.996019
    61  H    0.995298
    62  H    0.997225
    63  H    0.999267
    64  H    1.000983
    65  H    0.997757
    66  H    1.002542
    67  H    0.997219
    68  H    0.998098
    69  H    1.003433
    70  H    0.999516
    71  H    1.001897
    72  H    1.000421
    73  H    1.006018
    74  H    1.007260
    75  H    1.006991
    76  H    1.003909
    77  H    1.001390
    78  H    1.001767
    79  H    1.001947
    80  Mg  11.998429
    81  C    5.977247
    82  C    6.018837
    83  C    6.019694
    84  C    5.978365
    85  N    6.996694
    86  C    6.026709
    87  C    5.997157
    88  C    6.001616
    89  C    5.971222
    90  C    6.001529
    91  C    5.994867
    92  C    5.999148
    93  H    1.006305
    94  N    7.013774
    95  C    5.950751
    96  C    5.984704
    97  C    5.987264
    98  C    5.962044
    99  C    6.005849
   100  C    5.991608
   101  O    7.978429
   102  C    6.003165
   103  N    6.996313
   104  C    5.968262
   105  C    6.012053
   106  C    5.986036
   107  C    6.037948
   108  C    6.003080
   109  C    6.000981
   110  C    5.991385
   111  N    6.992777
   112  C    6.050993
   113  C    6.024290
   114  C    6.003583
   115  C    6.030766
   116  C    6.000261
   117  C    6.016213
   118  O    8.029755
   119  C    5.998165
   120  C    6.001981
   121  O    8.004572
   122  O    8.001359
   123  C    5.997735
   124  H    0.991348
   125  H    0.997417
   126  H    1.009429
   127  H    0.998991
   128  H    0.999124
   129  H    0.986198
   130  H    1.001961
   131  H    0.997924
   132  H    1.012357
   133  H    0.997610
   134  H    0.994648
   135  H    1.002795
   136  H    0.980162
   137  H    0.984117
   138  H    0.982360
   139  H    0.989453
   140  H    0.989162
   141  H    0.988525
   142  H    0.999258
   143  H    1.005252
   144  H    1.008109
   145  H    0.993950
   146  H    0.995412
   147  H    1.010298
   148  H    1.000620
   149  H    1.008966
   150  H    0.996669
   151  H    1.001826
   152  H    1.016609
   153  H    1.012756
   154  H    1.015212
   155  H    1.008436
   156  H    1.004296
   157  H    1.005577
   158  H    0.999256
 Sum of Mulliken charges = 624.00000

 Dipole moment (field-independent basis, Debye):
    X=             12.5980    Y=             -1.7354    Z=             -2.9933  Tot=             13.0645
 Quadrupole moment (field-independent basis, Debye-Ang):
   XX=             99.1510   YY=             -1.6056   ZZ=              0.5675
   XY=            -43.7882   XZ=            -39.8689   YZ=             -5.1061

 Normal termination of Gaussian 16 at Wed Sep 22 05:47:22 2021.
