 Gaussian 16, Revision A.03,
 Gaussian 16:  ES64L-G16RevA.03 25-Dec-2016

 ----------------------------------------------------------
 #p cam-b3lyp/Def2SVP td=(nstates=5) density=(transition=1)
 ----------------------------------------------------------

 --------------------------------
 TDDFT excited states in gaussian
 --------------------------------
 Symbolic Z-matrix:
 Charge =  0 Multiplicity = 1

                         Standard orientation:
 ---------------------------------------------------------------------
 Center     Atomic      Atomic             Coordinates (Angstroms)
 Number     Number       Type             X           Y           Z
 ---------------------------------------------------------------------
      1         12           0      -26.588797    0.157739    0.008472
      2          6           0      -23.293761    1.009954    0.088851
      3          6           0      -26.394249    0.287464   -3.451957
      4          6           0      -29.720427   -1.050090   -0.073031
      5          6           0      -26.495710   -0.591678    3.445838
      6          7           0      -24.930499    0.351208   -1.509616
      7          6           0      -23.682058    0.741715   -1.183619
      8          6           0      -22.781640    0.813012   -2.362407
      9          6           0      -23.925390    0.948211   -3.548179
     10          6           0      -25.203554    0.498837   -2.809338
     11          6           0      -23.988255    2.375515   -4.167733
     12          6           0      -21.978414   -0.473173   -2.473394
     13          6           0      -22.748638   -1.872857   -2.531488
     14          1           0      -22.269699   -2.978410   -3.464103
     15          7           0      -27.878341   -0.317203   -1.528734
     16          6           0      -27.667617   -0.063375   -2.907662
     17          6           0      -28.911269   -0.283788   -3.567129
     18          6           0      -29.875760   -0.713614   -2.664160
     19          6           0      -29.228392   -0.682728   -1.341837
     20          6           0      -28.975082   -0.048818   -5.062625
     21          6           0      -31.275508   -1.190804   -2.969484
     22          8           0      -31.599983   -1.182195   -4.183098
     23          6           0      -32.162266   -1.829474   -2.055812
     24          7           0      -27.830762   -0.902434    1.463398
     25          6           0      -29.122326   -1.234933    1.177720
     26          6           0      -29.827412   -1.854576    2.408004
     27          6           0      -28.751009   -1.691236    3.533465
     28          6           0      -27.585569   -1.092289    2.764434
     29          6           0      -31.161338   -1.213647    2.726444
     30          6           0      -28.417149   -3.113128    4.236531
     31          6           0      -28.272770   -3.038000    5.760831
     32          7           0      -25.189451    0.183785    1.573931
     33          6           0      -25.317715    0.060776    2.920430
     34          6           0      -24.108232    0.573955    3.504100
     35          6           0      -23.236897    1.023603    2.452393
     36          6           0      -23.947419    0.731449    1.299894
     37          6           0      -23.702937    0.408894    4.928796
     38          6           0      -21.961557    1.537311    2.068136
     39          8           0      -21.081343    1.892394    2.862175
     40          6           0      -21.971226    1.578665    0.551209
     41          6           0      -21.742938    2.977953    0.115697
     42          8           0      -20.738597    3.556421    0.481268
     43          8           0      -22.674573    3.461757   -0.751233
     44          6           0      -22.447225    4.834692   -1.206511
     45          1           0      -26.412155    0.592404   -4.500247
     46          1           0      -30.800305   -1.210511   -0.088570
     47          1           0      -26.445314   -0.627299    4.536381
     48          1           0      -22.047826    1.618085   -2.402118
     49          1           0      -23.643221    0.368159   -4.427791
     50          1           0      -23.805339    2.323919   -5.240415
     51          1           0      -23.176111    2.948817   -3.719903
     52          1           0      -24.917183    2.914636   -3.977392
     53          1           0      -21.231547   -0.450422   -1.679545
     54          1           0      -21.341170   -0.268716   -3.333671
     55          1           0      -23.804480   -1.821179   -2.797575
     56          1           0      -22.585956   -2.251968   -1.522993
     57          1           0      -28.628719   -0.978009   -5.515495
     58          1           0      -28.270857    0.739434   -5.325810
     59          1           0      -29.949111    0.224660   -5.469415
     60          1           0      -32.828709   -2.529779   -2.560315
     61          1           0      -32.678098   -1.135948   -1.390454
     62          1           0      -31.525193   -2.496292   -1.476369
     63          1           0      -29.938246   -2.901872    2.124792
     64          1           0      -29.071992   -0.918070    4.231257
     65          1           0      -31.488900   -0.481101    1.989240
     66          1           0      -31.374138   -0.811740    3.716676
     67          1           0      -31.863808   -2.020128    2.514122
     68          1           0      -27.502447   -3.581401    3.872868
     69          1           0      -29.157743   -3.874401    3.992056
     70          1           0      -29.151244   -3.504835    6.205479
     71          1           0      -28.316434   -1.989079    6.054791
     72          1           0      -27.372242   -3.530396    6.128167
     73          1           0      -24.259566    0.969050    5.679155
     74          1           0      -22.647650    0.682954    4.956802
     75          1           0      -23.800086   -0.623103    5.266081
     76          1           0      -21.133608    0.960401    0.227018
     77          1           0      -21.463126    4.870520   -1.674689
     78          1           0      -22.562734    5.578275   -0.417778
     79          1           0      -23.249055    5.156599   -1.870837
     80         12           0       25.723284   -0.780976   -0.303964
     81          6           0       26.497360    2.608303   -0.152979
     82          6           0       23.397193   -0.373933    2.099167
     83          6           0       25.368805   -4.141166   -0.209365
     84          6           0       28.438047   -1.195292   -2.389196
     85          7           0       25.050005    0.980222    0.860610
     86          6           0       25.365613    2.288693    0.596321
     87          6           0       24.549439    3.196137    1.436032
     88          6           0       23.578212    2.306823    2.221019
     89          6           0       23.975556    0.851805    1.720037
     90          6           0       23.509516    2.447226    3.733791
     91          6           0       23.820056    4.347065    0.536330
     92          6           0       24.187813    5.822194    0.820949
     93          1           0       23.132805    6.900805    0.799574
     94          7           0       24.469810   -2.066199    0.697656
     95          6           0       23.564582   -1.710319    1.686167
     96          6           0       22.934724   -2.873980    2.195100
     97          6           0       23.496879   -4.002125    1.538387
     98          6           0       24.477111   -3.424085    0.613376
     99          6           0       21.741049   -2.695013    3.212721
    100          6           0       23.161991   -5.460210    1.847751
    101          8           0       23.707246   -6.447324    1.331304
    102          6           0       22.061501   -5.771734    2.763939
    103          7           0       26.883275   -2.505970   -0.966215
    104          6           0       26.483197   -3.759524   -0.911580
    105          6           0       27.534996   -4.704205   -1.535618
    106          6           0       28.140659   -3.681865   -2.576206
    107          6           0       27.780017   -2.336066   -1.955226
    108          6           0       28.674282   -5.334633   -0.651956
    109          6           0       27.626100   -3.794120   -4.090820
    110          6           0       26.185181   -3.625448   -4.350382
    111          7           0       27.291943    0.421488   -1.145926
    112          6           0       28.352290    0.103158   -2.016975
    113          6           0       29.098530    1.286188   -2.305660
    114          6           0       28.477795    2.274774   -1.568357
    115          6           0       27.309245    1.711110   -0.958948
    116          6           0       30.385575    1.352314   -2.970365
    117          6           0       28.420971    3.648040   -1.383078
    118          8           0       29.141555    4.563546   -1.793741
    119          6           0       27.212527    3.956361   -0.386299
    120          6           0       27.853122    4.395517    0.888784
    121          8           0       28.633449    3.841450    1.634329
    122          8           0       27.409996    5.638384    1.086237
    123          6           0       27.885008    6.314835    2.337504
    124          1           0       22.534232   -0.082563    2.701501
    125          1           0       25.113240   -5.200909   -0.261150
    126          1           0       29.253597   -1.332261   -3.102044
    127          1           0       25.264801    3.669691    2.107274
    128          1           0       22.568120    2.472976    1.847228
    129          1           0       24.212508    1.645760    3.957771
    130          1           0       22.516049    2.356870    4.173422
    131          1           0       23.888365    3.350691    4.210851
    132          1           0       22.740893    4.220841    0.618192
    133          1           0       24.077074    4.302784   -0.522308
    134          1           0       24.854960    6.124238    0.013098
    135          1           0       24.794794    5.926663    1.719278
    136          1           0       21.942347   -3.309627    4.089916
    137          1           0       20.979928   -3.182140    2.603090
    138          1           0       21.560858   -1.705164    3.632160
    139          1           0       22.222150   -5.313740    3.738933
    140          1           0       22.192476   -6.820636    3.028873
    141          1           0       21.060795   -5.612189    2.361578
    142          1           0       27.013990   -5.416377   -2.175665
    143          1           0       29.204406   -3.918440   -2.573612
    144          1           0       29.109863   -4.676580    0.098972
    145          1           0       29.401125   -5.647255   -1.402530
    146          1           0       28.305356   -6.207327   -0.112419
    147          1           0       27.848387   -4.757016   -4.551386
    148          1           0       27.961932   -2.943975   -4.684526
    149          1           0       26.063002   -2.543267   -4.360128
    150          1           0       25.464061   -4.013088   -3.630140
    151          1           0       25.785323   -3.967771   -5.304295
    152          1           0       31.094460    1.115218   -2.176141
    153          1           0       30.643318    2.320413   -3.398877
    154          1           0       30.456751    0.702965   -3.843623
    155          1           0       26.483337    4.656850   -0.793501
    156          1           0       27.014820    6.305130    2.994225
    157          1           0       28.240512    7.317340    2.100462
    158          1           0       28.676267    5.823227    2.904183
 ---------------------------------------------------------------------

 SCF Done:  E(RCAM-B3LYP) =  -4069.78607914     A.U. after   19 cycles

 Excitation energies and oscillator strengths:

 Excited State   1:      Singlet-A      1.7047 eV  727.32 nm  f=0.3757  <S**2>=0.000
     310 -> 316        0.17519
     312 -> 314        0.68602
     310 <- 316        0.10614
 This state for optimization and/or second-order correction.
 Total Energy, E(TD-HF/TD-DFT) =  -4069.72343358
 Copying the excited state density for this state as the 1-particle RhoCI density.

 Excited State   2:      Singlet-A      1.7418 eV  711.80 nm  f=0.3911  <S**2>=0.000
     309 -> 315       -0.17693
     311 -> 313        0.68525
     309 <- 315       -0.10391

 Excited State   3:      Singlet-A      2.1769 eV  569.54 nm  f=0.1387  <S**2>=0.000
     310 -> 314        0.65149
     312 -> 316       -0.26307

 Excited State   4:      Singlet-A      2.2176 eV  559.10 nm  f=0.1295  <S**2>=0.000
     309 -> 313        0.65047
     311 -> 315        0.25334

 Excited State   5:      Singlet-A      3.1627 eV  392.02 nm  f=0.0000  <S**2>=0.000
     312 -> 313        0.70710

 The electronic state is 1-A.
 Alpha  occ. eigenvalues --  -46.89345 -46.89136 -19.26422 -19.25048 -19.19507
 Alpha  occ. eigenvalues --  -19.19077 -19.18672 -19.18307 -19.18214 -19.18188
 Alpha  occ. eigenvalues --  -14.42106 -14.42088 -14.42004 -14.41832 -14.39817
 Alpha  occ. eigenvalues --  -14.39706 -14.38991 -14.38633 -10.39496 -10.38616
 Alpha  occ. eigenvalues --  -10.35077 -10.34862 -10.34477 -10.34160 -10.32772
 Alpha  occ. eigenvalues --  -10.31706 -10.31703 -10.31428 -10.31245 -10.31215
 Alpha  occ. eigenvalues --  -10.31210 -10.30630 -10.30547 -10.30415 -10.30288
 Alpha  occ. eigenvalues --  -10.30239 -10.30109 -10.29795 -10.29227 -10.29109
 Alpha  occ. eigenvalues --  -10.29074 -10.28990 -10.28675 -10.28589 -10.28553
 Alpha  occ. eigenvalues --  -10.28542 -10.28484 -10.28401 -10.28370 -10.28305
 Alpha  occ. eigenvalues --  -10.28284 -10.28235 -10.28159 -10.28050 -10.27889
 Alpha  occ. eigenvalues --  -10.27869 -10.27803 -10.27759 -10.27526 -10.27510
 Alpha  occ. eigenvalues --  -10.27482 -10.27478 -10.27426 -10.27387 -10.27320
 Alpha  occ. eigenvalues --  -10.27258 -10.27203 -10.27161 -10.27021 -10.26799
 Alpha  occ. eigenvalues --  -10.26570 -10.26504 -10.26492 -10.26469 -10.26383
 Alpha  occ. eigenvalues --  -10.26369 -10.26266 -10.26041 -10.25810 -10.25643
 Alpha  occ. eigenvalues --  -10.25585 -10.25581 -10.24999 -10.24737 -10.24661
 Alpha  occ. eigenvalues --  -10.24579  -3.17754  -3.17588  -1.92656  -1.92465
 Alpha  occ. eigenvalues --   -1.92188  -1.92071  -1.92064  -1.91871  -1.17446
 Alpha  occ. eigenvalues --   -1.17010  -1.09129  -1.09082  -1.08566  -1.08424
 Alpha  occ. eigenvalues --   -1.08022  -1.07363  -1.05427  -1.05012  -1.04570
 Alpha  occ. eigenvalues --   -1.04263  -1.03389  -1.02759  -1.02634  -1.01543
 Alpha  occ. eigenvalues --   -0.94100  -0.92218  -0.89310  -0.89225  -0.89072
 Alpha  occ. eigenvalues --   -0.88778  -0.88752  -0.88376  -0.87970  -0.87820
 Alpha  occ. eigenvalues --   -0.87604  -0.86868  -0.86354  -0.85874  -0.85128
 Alpha  occ. eigenvalues --   -0.84642  -0.84294  -0.84157  -0.83379  -0.83077
 Alpha  occ. eigenvalues --   -0.82832  -0.82012  -0.81568  -0.81487  -0.80928
 Alpha  occ. eigenvalues --   -0.80745  -0.78757  -0.78653  -0.78021  -0.77669
 Alpha  occ. eigenvalues --   -0.77387  -0.77088  -0.76193  -0.75953  -0.75373
 Alpha  occ. eigenvalues --   -0.74986  -0.73486  -0.72542  -0.72153  -0.71683
 Alpha  occ. eigenvalues --   -0.70178  -0.69393  -0.69151  -0.69097  -0.68873
 Alpha  occ. eigenvalues --   -0.67779  -0.67216  -0.67158  -0.66588  -0.65763
 Alpha  occ. eigenvalues --   -0.65395  -0.65366  -0.65245  -0.64822  -0.64421
 Alpha  occ. eigenvalues --   -0.63975  -0.63855  -0.62065  -0.60442  -0.60271
 Alpha  occ. eigenvalues --   -0.59929  -0.59764  -0.59368  -0.59314  -0.58857
 Alpha  occ. eigenvalues --   -0.58622  -0.58416  -0.58266  -0.58051  -0.57930
 Alpha  occ. eigenvalues --   -0.56872  -0.56615  -0.56443  -0.55834  -0.55783
 Alpha  occ. eigenvalues --   -0.55486  -0.55188  -0.55060  -0.54836  -0.54709
 Alpha  occ. eigenvalues --   -0.54549  -0.54281  -0.53784  -0.53511  -0.53395
 Alpha  occ. eigenvalues --   -0.53258  -0.53103  -0.52996  -0.52697  -0.52513
 Alpha  occ. eigenvalues --   -0.52194  -0.51917  -0.51909  -0.51853  -0.51462
 Alpha  occ. eigenvalues --   -0.51172  -0.51109  -0.51094  -0.50948  -0.50373
 Alpha  occ. eigenvalues --   -0.50360  -0.49806  -0.49733  -0.49628  -0.49499
 Alpha  occ. eigenvalues --   -0.49459  -0.49205  -0.49146  -0.48996  -0.48782
 Alpha  occ. eigenvalues --   -0.48714  -0.48509  -0.48505  -0.48359  -0.48189
 Alpha  occ. eigenvalues --   -0.48078  -0.47657  -0.47376  -0.47125  -0.47119
 Alpha  occ. eigenvalues --   -0.46842  -0.46753  -0.46674  -0.46457  -0.46434
 Alpha  occ. eigenvalues --   -0.46245  -0.46081  -0.45999  -0.45818  -0.45765
 Alpha  occ. eigenvalues --   -0.45670  -0.45262  -0.45255  -0.44887  -0.44687
 Alpha  occ. eigenvalues --   -0.44649  -0.44640  -0.44569  -0.44480  -0.44118
 Alpha  occ. eigenvalues --   -0.44063  -0.43761  -0.43729  -0.43577  -0.43368
 Alpha  occ. eigenvalues --   -0.43197  -0.42949  -0.42841  -0.42511  -0.42468
 Alpha  occ. eigenvalues --   -0.42332  -0.42275  -0.42224  -0.42116  -0.41933
 Alpha  occ. eigenvalues --   -0.41833  -0.41812  -0.41610  -0.41302  -0.41181
 Alpha  occ. eigenvalues --   -0.41074  -0.40988  -0.40974  -0.40719  -0.40509
 Alpha  occ. eigenvalues --   -0.40168  -0.39555  -0.39529  -0.39221  -0.38943
 Alpha  occ. eigenvalues --   -0.38708  -0.38069  -0.38030  -0.37858  -0.37723
 Alpha  occ. eigenvalues --   -0.37698  -0.37547  -0.37021  -0.36917  -0.36375
 Alpha  occ. eigenvalues --   -0.36126  -0.35997  -0.34724  -0.34481  -0.34309
 Alpha  occ. eigenvalues --   -0.34021  -0.33485  -0.33133  -0.31807  -0.31484
 Alpha  occ. eigenvalues --   -0.31042  -0.30905  -0.30535  -0.30472  -0.30461
 Alpha  occ. eigenvalues --   -0.30128  -0.29990  -0.29015  -0.24325  -0.24021
 Alpha  occ. eigenvalues --   -0.21694  -0.21446
 Alpha virt. eigenvalues --   -0.09168  -0.08984  -0.01909  -0.01622   0.00122
 Alpha virt. eigenvalues --    0.00277   0.01317   0.01987   0.02009   0.02458
 Alpha virt. eigenvalues --    0.04959   0.05338   0.05483   0.06057   0.06098

 Mulliken charges:
               1
     1  Mg  12.000003
     2  C    5.999834
     3  C    6.000140
     4  C    6.000196
     5  C    5.999896
     6  N    7.000010
     7  C    6.000278
     8  C    5.999860
     9  C    6.000106
    10  C    5.999793
    11  C    6.000030
    12  C    5.999943
    13  C    5.999957
    14  H    1.000088
    15  N    7.000056
    16  C    5.999618
    17  C    5.999789
    18  C    5.999940
    19  C    5.999595
    20  C    6.000074
    21  C    5.999873
    22  O    7.999788
    23  C    6.000059
    24  N    6.999964
    25  C    5.999726
    26  C    6.000085
    27  C    5.999913
    28  C    6.000218
    29  C    6.000010
    30  C    5.999971
    31  C    5.999982
    32  N    7.000028
    33  C    6.000259
    34  C    6.000299
    35  C    6.000017
    36  C    6.000276
    37  C    5.999917
    38  C    6.000205
    39  O    8.000288
    40  C    6.000012
    41  C    6.000022
    42  O    8.000070
    43  O    7.999993
    44  C    5.999989
    45  H    0.999907
    46  H    0.999887
    47  H    1.000046
    48  H    1.000025
    49  H    0.999966
    50  H    0.999975
    51  H    0.999888
    52  H    0.999999
    53  H    0.999983
    54  H    1.000086
    55  H    1.000110
    56  H    0.999954
    57  H    0.999809
    58  H    0.999826
    59  H    0.999829
    60  H    0.999860
    61  H    0.999882
    62  H    0.999952
    63  H    0.999986
    64  H    0.999993
    65  H    1.000016
    66  H    0.999903
    67  H    0.999980
    68  H    1.000017
    69  H    1.000076
    70  H    1.000029
    71  H    0.999978
    72  H    1.000008
    73  H    1.000218
    74  H    1.000158
    75  H    1.000245
    76  H    1.000121
    77  H    1.000050
    78  H    1.000007
    79  H    1.000056
    80  Mg  11.996327
    81  C    5.965759
    82  C    6.007518
    83  C    6.034490
    84  C    6.008426
    85  N    6.980229
    86  C    6.037988
    87  C    5.987741
    88  C    6.005801
    89  C    5.974126
    90  C    6.002285
    91  C    5.997559
    92  C    5.999840
    93  H    1.003811
    94  N    7.009841
    95  C    5.958005
    96  C    5.981716
    97  C    5.984596
    98  C    5.959162
    99  C    6.000620
   100  C    5.987711
   101  O    7.970677
   102  C    6.008820
   103  N    7.022595
   104  C    5.957767
   105  C    6.010524
   106  C    5.990362
   107  C    6.021870
   108  C    5.999006
   109  C    5.989673
   110  C    6.001008
   111  N    6.993322
   112  C    6.035314
   113  C    6.029033
   114  C    6.008129
   115  C    6.033362
   116  C    5.995358
   117  C    6.009159
   118  O    8.035574
   119  C    6.002190
   120  C    6.003963
   121  O    8.002458
   122  O    8.001139
   123  C    5.997628
   124  H    0.985259
   125  H    0.999714
   126  H    1.015867
   127  H    0.999530
   128  H    0.996630
   129  H    1.001046
   130  H    0.998334
   131  H    0.985814
   132  H    1.007794
   133  H    0.994935
   134  H    0.994124
   135  H    1.000298
   136  H    0.981352
   137  H    0.983890
   138  H    0.983678
   139  H    0.994827
   140  H    0.985455
   141  H    0.990911
   142  H    1.001684
   143  H    1.005678
   144  H    0.995666
   145  H    0.992499
   146  H    1.006463
   147  H    1.011376
   148  H    0.996518
   149  H    0.992653
   150  H    1.017451
   151  H    1.004845
   152  H    1.021174
   153  H    1.017150
   154  H    1.017169
   155  H    1.007045
   156  H    1.006936
   157  H    1.001674
   158  H    1.002078
 Sum of Mulliken charges = 624.00000

 Dipole moment (field-independent basis, Debye):
    X=              7.5791    Y=              5.1902    Z=             -5.6444  Tot=             10.7814
 Quadrupole moment (field-independent basis, Debye-Ang):
   XX=            386.4102   YY=             -7.1285   ZZ=              1.0620
   XY=            128.8163   XZ=           -150.0495   YZ=              5.8295

 Normal termination of Gaussian 16 at Wed Sep 22 17:20:15 2021.
