 Gaussian 16, Revision A.03,
 Gaussian 16:  ES64L-G16RevA.03 25-Dec-2016

 -----------------------------------
 #p cam-b3lyp/Def2SVP td=(nstates=5)
 -----------------------------------

 --------------------------------
 TDDFT excited states in gaussian
 --------------------------------
 Symbolic Z-matrix:
 Charge =  0 Multiplicity = 1

                         Standard orientation:
 ---------------------------------------------------------------------
 Center     Atomic      Atomic             Coordinates (Angstroms)
 Number     Number       Type             X           Y           Z
 ---------------------------------------------------------------------
      1         12           0       20.034169   -0.674445    0.220237
      2          6           0       19.662487    2.398916   -1.358896
      3          6           0       21.759088    0.824840    2.695375
      4          6           0       21.047119   -3.710073    1.314781
      5          6           0       18.970295   -2.250297   -2.769515
      6          7           0       20.509136    1.369326    0.576348
      7          6           0       20.159588    2.533409   -0.072694
      8          6           0       20.745749    3.766610    0.668333
      9          6           0       21.816858    3.091956    1.579783
     10          6           0       21.270440    1.678716    1.719517
     11          6           0       23.266907    3.065522    0.980403
     12          6           0       19.568876    4.564010    1.259705
     13          6           0       19.691262    6.032547    1.108800
     14          1           0       18.436280    6.771758    1.230062
     15          7           0       21.039730   -1.314926    1.902150
     16          6           0       21.622736   -0.519526    2.835922
     17          6           0       21.922126   -1.322360    3.994930
     18          6           0       21.703602   -2.685689    3.580545
     19          6           0       21.318389   -2.615752    2.167962
     20          6           0       22.476286   -0.770911    5.259536
     21          6           0       21.965823   -4.040879    4.314867
     22          8           0       21.710201   -5.135740    3.809473
     23          6           0       22.415768   -4.076186    5.748698
     24          7           0       20.307694   -2.653040   -0.791600
     25          6           0       20.637525   -3.792832   -0.008610
     26          6           0       20.430370   -5.086031   -0.725217
     27          6           0       19.568212   -4.551488   -1.914707
     28          6           0       19.553606   -3.030532   -1.786597
     29          6           0       21.755448   -5.812680   -1.136793
     30          6           0       18.095128   -5.101549   -1.915983
     31          6           0       17.317164   -4.942055   -0.584926
     32          7           0       19.333807   -0.094603   -1.646462
     33          6           0       18.889287   -0.844729   -2.746202
     34          6           0       18.496187    0.086227   -3.736665
     35          6           0       18.759250    1.346084   -3.213414
     36          6           0       19.268870    1.174374   -1.968694
     37          6           0       17.871617   -0.257069   -5.051471
     38          6           0       18.758073    2.696790   -3.530735
     39          8           0       18.409694    3.261604   -4.583571
     40          6           0       19.334531    3.531015   -2.347272
     41          6           0       18.151212    4.471016   -1.957759
     42          8           0       17.085132    4.108349   -1.429326
     43          8           0       18.500683    5.770181   -2.309926
     44          6           0       17.439500    6.826185   -2.273882
     45          1           0       22.377751    1.407878    3.380890
     46          1           0       21.172058   -4.768266    1.556648
     47          1           0       18.441126   -2.671971   -3.626685
     48          1           0       21.184483    4.463205   -0.045276
     49          1           0       21.790661    3.557387    2.564625
     50          1           0       23.404519    3.584526    0.031396
     51          1           0       23.554065    2.047744    0.719374
     52          1           0       23.941626    3.560457    1.678596
     53          1           0       19.613911    4.394421    2.334581
     54          1           0       18.652358    4.182979    0.808434
     55          1           0       20.043440    6.193477    0.089758
     56          1           0       20.470530    6.385246    1.784120
     57          1           0       22.304885    0.302686    5.335356
     58          1           0       23.493193   -1.146928    5.376768
     59          1           0       21.921473   -1.182445    6.102771
     60          1           0       22.923898   -5.035649    5.847965
     61          1           0       21.559930   -4.079661    6.424094
     62          1           0       23.129040   -3.282770    5.974084
     63          1           0       19.830524   -5.808271   -0.169681
     64          1           0       20.056736   -4.825502   -2.850335
     65          1           0       22.567005   -5.084694   -1.152297
     66          1           0       21.765464   -6.300547   -2.111593
     67          1           0       22.086916   -6.612472   -0.473926
     68          1           0       18.165707   -6.134185   -2.258142
     69          1           0       17.628944   -4.564003   -2.741637
     70          1           0       16.408808   -4.349902   -0.697812
     71          1           0       18.003133   -4.475575    0.122688
     72          1           0       17.004722   -5.897131   -0.163717
     73          1           0       18.508748    0.200397   -5.808312
     74          1           0       16.851666    0.127272   -5.043762
     75          1           0       17.854759   -1.318398   -5.299565
     76          1           0       20.155886    4.137258   -2.728376
     77          1           0       16.669706    6.503138   -2.974342
     78          1           0       17.726080    7.842550   -2.543844
     79          1           0       17.172428    6.705353   -1.224000
     80         12           0      -20.489030   -0.536554   -0.057842
     81          6           0      -18.120875    1.995556    0.099111
     82          6           0      -22.847425    1.575482    1.104654
     83          6           0      -22.637528   -3.103284   -0.084896
     84          6           0      -17.936430   -2.692441   -1.105867
     85          7           0      -20.413615    1.579061    0.493487
     86          6           0      -19.416998    2.426665    0.400903
     87          6           0      -19.963249    3.861808    0.842993
     88          6           0      -21.056868    3.394060    1.779832
     89          6           0      -21.528951    2.087439    1.066245
     90          6           0      -20.501293    3.227534    3.210676
     91          6           0      -20.284313    4.756274   -0.430627
     92          6           0      -20.349978    6.261231   -0.152841
     93          1           0      -20.348944    6.740293    1.288576
     94          7           0      -22.480246   -0.694421    0.264162
     95          6           0      -23.309219    0.346402    0.676023
     96          6           0      -24.719390   -0.135921    0.576321
     97          6           0      -24.674067   -1.564958    0.282521
     98          6           0      -23.209047   -1.814098    0.227070
     99          6           0      -25.909965    0.759335    0.825876
    100          6           0      -25.839438   -2.627286    0.022444
    101          8           0      -25.636295   -3.804489   -0.293488
    102          6           0      -27.259108   -2.118886    0.162708
    103          7           0      -20.299970   -2.567440   -0.406575
    104          6           0      -21.312068   -3.428726   -0.346704
    105          6           0      -20.862214   -4.906495   -0.563822
    106          6           0      -19.447378   -4.677553   -1.114604
    107          6           0      -19.199486   -3.213333   -0.930498
    108          6           0      -20.921955   -5.797080    0.708570
    109          6           0      -19.083222   -5.279780   -2.544129
    110          6           0      -19.029948   -4.332108   -3.697089
    111          7           0      -18.407678   -0.482952   -0.242796
    112          6           0      -17.524491   -1.386571   -0.729996
    113          6           0      -16.190684   -0.902133   -0.764854
    114          6           0      -16.366422    0.479816   -0.440143
    115          6           0      -17.705785    0.621433   -0.157350
    116          6           0      -14.853123   -1.532229   -1.054899
    117          6           0      -15.747313    1.761032   -0.274027
    118          8           0      -14.597022    2.126626   -0.385642
    119          6           0      -16.853536    2.844964   -0.070982
    120          6           0      -16.525123    3.669107    1.096090
    121          8           0      -16.430758    3.203084    2.221387
    122          8           0      -16.152790    4.999032    0.772909
    123          6           0      -15.700005    5.833865    1.896676
    124          1           0      -23.564317    2.270384    1.544430
    125          1           0      -23.353027   -3.926169   -0.041897
    126          1           0      -17.158834   -3.405357   -1.386691
    127          1           0      -19.174761    4.414919    1.351561
    128          1           0      -21.938394    4.034438    1.797225
    129          1           0      -21.022828    4.018372    3.750874
    130          1           0      -19.421757    3.372878    3.268229
    131          1           0      -20.885443    2.273045    3.569832
    132          1           0      -21.245285    4.468235   -0.857786
    133          1           0      -19.435770    4.605080   -1.098280
    134          1           0      -21.247188    6.628872   -0.649842
    135          1           0      -19.505717    6.712880   -0.673165
    136          1           0      -25.713162    1.782859    0.504827
    137          1           0      -26.293356    0.803928    1.844734
    138          1           0      -26.729045    0.424724    0.189464
    139          1           0      -27.261650   -1.645326    1.144174
    140          1           0      -28.019852   -2.898351    0.193765
    141          1           0      -27.498371   -1.457270   -0.669991
    142          1           0      -21.487348   -5.407517   -1.302773
    143          1           0      -18.776145   -5.081826   -0.357784
    144          1           0      -19.999422   -6.377816    0.689347
    145          1           0      -21.783208   -6.455450    0.811005
    146          1           0      -20.995034   -5.136247    1.572361
    147          1           0      -19.739008   -6.129246   -2.735398
    148          1           0      -18.059874   -5.653475   -2.517793
    149          1           0      -17.988377   -4.261845   -4.011498
    150          1           0      -19.217249   -3.282576   -3.466821
    151          1           0      -19.595278   -4.651516   -4.572647
    152          1           0      -14.924250   -2.610666   -1.200703
    153          1           0      -14.144005   -1.226169   -0.285209
    154          1           0      -14.387612   -1.269768   -2.005151
    155          1           0      -16.944597    3.497906   -0.938607
    156          1           0      -15.584954    6.892919    1.667193
    157          1           0      -14.738169    5.391751    2.157917
    158          1           0      -16.399582    5.629351    2.706296
 ---------------------------------------------------------------------

 SCF Done:  E(RCAM-B3LYP) =  -4069.82491160     A.U. after   19 cycles

 Excitation energies and oscillator strengths:

 Excited State   1:      Singlet-A      1.6608 eV  746.55 nm  f=0.3796  <S**2>=0.000
     309 -> 315        0.16222
     312 -> 313        0.68891
     309 <- 315        0.10408
 This state for optimization and/or second-order correction.
 Total Energy, E(TD-HF/TD-DFT) =  -4069.76387992
 Copying the excited state density for this state as the 1-particle RhoCI density.

 Excited State   2:      Singlet-A      1.7355 eV  714.40 nm  f=0.3920  <S**2>=0.000
     310 -> 316       -0.17783
     311 -> 314        0.68646
     310 <- 316       -0.10692

 Excited State   3:      Singlet-A      2.2152 eV  559.70 nm  f=0.1383  <S**2>=0.000
     310 -> 314        0.65443
     311 -> 316        0.25720

 Excited State   4:      Singlet-A      2.2190 eV  558.74 nm  f=0.1394  <S**2>=0.000
     309 -> 313        0.64282
     312 -> 315       -0.27200

 Excited State   5:      Singlet-A      3.1282 eV  396.35 nm  f=0.0000  <S**2>=0.000
     312 -> 314        0.70710

 The electronic state is 1-A.
 Alpha  occ. eigenvalues --  -46.88286 -46.87755 -19.24705 -19.23902 -19.20470
 Alpha  occ. eigenvalues --  -19.19971 -19.19477 -19.18703 -19.17891 -19.17618
 Alpha  occ. eigenvalues --  -14.42003 -14.41907 -14.41450 -14.41447 -14.40101
 Alpha  occ. eigenvalues --  -14.39312 -14.38623 -14.38469 -10.39990 -10.38863
 Alpha  occ. eigenvalues --  -10.37227 -10.35252 -10.34095 -10.33600 -10.31936
 Alpha  occ. eigenvalues --  -10.31320 -10.31128 -10.31053 -10.30988 -10.30922
 Alpha  occ. eigenvalues --  -10.30582 -10.30521 -10.30446 -10.30298 -10.30287
 Alpha  occ. eigenvalues --  -10.30206 -10.30191 -10.29842 -10.29275 -10.29170
 Alpha  occ. eigenvalues --  -10.29005 -10.28811 -10.28661 -10.28289 -10.28273
 Alpha  occ. eigenvalues --  -10.28211 -10.28180 -10.28110 -10.28086 -10.27948
 Alpha  occ. eigenvalues --  -10.27940 -10.27874 -10.27846 -10.27637 -10.27618
 Alpha  occ. eigenvalues --  -10.27583 -10.27540 -10.27520 -10.27420 -10.27283
 Alpha  occ. eigenvalues --  -10.27233 -10.27155 -10.27139 -10.27053 -10.26980
 Alpha  occ. eigenvalues --  -10.26980 -10.26753 -10.26697 -10.26495 -10.26369
 Alpha  occ. eigenvalues --  -10.26340 -10.26321 -10.25913 -10.25904 -10.25884
 Alpha  occ. eigenvalues --  -10.25799 -10.25751 -10.25734 -10.25712 -10.25703
 Alpha  occ. eigenvalues --  -10.25662 -10.25570 -10.25531 -10.24511 -10.24173
 Alpha  occ. eigenvalues --  -10.23748  -3.16882  -3.16520  -1.91763  -1.91431
 Alpha  occ. eigenvalues --   -1.91341  -1.91184  -1.90940  -1.90867  -1.14487
 Alpha  occ. eigenvalues --   -1.14378  -1.10476  -1.09564  -1.09442  -1.07910
 Alpha  occ. eigenvalues --   -1.06733  -1.06610  -1.05575  -1.04775  -1.04718
 Alpha  occ. eigenvalues --   -1.04139  -1.03867  -1.03483  -1.03152  -1.02192
 Alpha  occ. eigenvalues --   -0.92497  -0.92121  -0.89199  -0.89058  -0.89017
 Alpha  occ. eigenvalues --   -0.88571  -0.88552  -0.88276  -0.87763  -0.87287
 Alpha  occ. eigenvalues --   -0.87111  -0.87094  -0.86501  -0.86251  -0.84565
 Alpha  occ. eigenvalues --   -0.84324  -0.83656  -0.83471  -0.82753  -0.82558
 Alpha  occ. eigenvalues --   -0.82132  -0.81593  -0.80953  -0.80944  -0.80357
 Alpha  occ. eigenvalues --   -0.80060  -0.78578  -0.78173  -0.77233  -0.77038
 Alpha  occ. eigenvalues --   -0.76899  -0.76653  -0.75999  -0.75850  -0.75436
 Alpha  occ. eigenvalues --   -0.75061  -0.73215  -0.72808  -0.72015  -0.71168
 Alpha  occ. eigenvalues --   -0.69757  -0.69242  -0.68743  -0.68732  -0.67922
 Alpha  occ. eigenvalues --   -0.67501  -0.66608  -0.66498  -0.65303  -0.65044
 Alpha  occ. eigenvalues --   -0.64655  -0.64626  -0.64419  -0.64181  -0.64032
 Alpha  occ. eigenvalues --   -0.63994  -0.61527  -0.61239  -0.60627  -0.59853
 Alpha  occ. eigenvalues --   -0.59749  -0.59578  -0.59120  -0.59105  -0.58401
 Alpha  occ. eigenvalues --   -0.58007  -0.57970  -0.57610  -0.57531  -0.56963
 Alpha  occ. eigenvalues --   -0.55947  -0.55792  -0.55662  -0.55583  -0.55430
 Alpha  occ. eigenvalues --   -0.55294  -0.55042  -0.54778  -0.54728  -0.53981
 Alpha  occ. eigenvalues --   -0.53678  -0.53512  -0.53351  -0.53013  -0.52986
 Alpha  occ. eigenvalues --   -0.52898  -0.52773  -0.52651  -0.52430  -0.52327
 Alpha  occ. eigenvalues --   -0.52127  -0.51899  -0.51788  -0.51634  -0.51423
 Alpha  occ. eigenvalues --   -0.51200  -0.50716  -0.50686  -0.50458  -0.50335
 Alpha  occ. eigenvalues --   -0.50313  -0.49882  -0.49595  -0.49495  -0.49354
 Alpha  occ. eigenvalues --   -0.49224  -0.49162  -0.48998  -0.48880  -0.48798
 Alpha  occ. eigenvalues --   -0.48727  -0.48535  -0.48489  -0.48485  -0.48050
 Alpha  occ. eigenvalues --   -0.47942  -0.47747  -0.47651  -0.47368  -0.47330
 Alpha  occ. eigenvalues --   -0.46997  -0.46867  -0.46579  -0.46445  -0.46280
 Alpha  occ. eigenvalues --   -0.46262  -0.46012  -0.45955  -0.45777  -0.45666
 Alpha  occ. eigenvalues --   -0.45561  -0.45434  -0.44934  -0.44634  -0.44572
 Alpha  occ. eigenvalues --   -0.44452  -0.44315  -0.44145  -0.44000  -0.43937
 Alpha  occ. eigenvalues --   -0.43717  -0.43435  -0.43431  -0.43408  -0.43311
 Alpha  occ. eigenvalues --   -0.43214  -0.43155  -0.43021  -0.42968  -0.42660
 Alpha  occ. eigenvalues --   -0.42468  -0.42331  -0.42056  -0.41929  -0.41784
 Alpha  occ. eigenvalues --   -0.41710  -0.41553  -0.41398  -0.41031  -0.41016
 Alpha  occ. eigenvalues --   -0.40961  -0.40810  -0.40611  -0.40515  -0.40261
 Alpha  occ. eigenvalues --   -0.40208  -0.39964  -0.39920  -0.39176  -0.39125
 Alpha  occ. eigenvalues --   -0.38183  -0.38169  -0.38046  -0.37999  -0.37556
 Alpha  occ. eigenvalues --   -0.37331  -0.36796  -0.36612  -0.36563  -0.36140
 Alpha  occ. eigenvalues --   -0.36037  -0.35613  -0.34429  -0.34147  -0.34055
 Alpha  occ. eigenvalues --   -0.33925  -0.33241  -0.33192  -0.32185  -0.31281
 Alpha  occ. eigenvalues --   -0.31143  -0.30792  -0.30495  -0.30170  -0.30020
 Alpha  occ. eigenvalues --   -0.29687  -0.29549  -0.29367  -0.24206  -0.23885
 Alpha  occ. eigenvalues --   -0.21381  -0.21157
 Alpha virt. eigenvalues --   -0.08969  -0.08825  -0.01478  -0.01245  -0.00007
 Alpha virt. eigenvalues --    0.00566   0.02230   0.02459   0.02485   0.03515
 Alpha virt. eigenvalues --    0.04807   0.04996   0.05107   0.05336   0.06146

 Mulliken charges:
               1
     1  Mg   0.820647
     2  C   -0.060312
     3  C   -0.109616
     4  C   -0.010548
     5  C   -0.097848
     6  N   -0.339993
     7  C   -0.020849
     8  C   -0.061524
     9  C   -0.031269
    10  C    0.010374
    11  C    0.081267
    12  C    0.079399
    13  C   -0.068974
    14  H    0.035521
    15  N   -0.383321
    16  C    0.220925
    17  C   -0.158625
    18  C   -0.040017
    19  C    0.171590
    20  C    0.117508
    21  C    0.010824
    22  O   -0.218696
    23  C    0.055162
    24  N   -0.251746
    25  C   -0.075013
    26  C   -0.004074
    27  C   -0.051274
    28  C    0.088349
    29  C    0.063745
    30  C    0.024280
    31  C    0.002165
    32  N   -0.340229
    33  C    0.098592
    34  C   -0.182196
    35  C    0.104031
    36  C    0.159819
    37  C    0.133471
    38  C   -0.059241
    39  O   -0.207717
    40  C    0.035632
    41  C    0.229318
    42  O   -0.241865
    43  O   -0.360310
    44  C    0.180268
    45  H   -0.026207
    46  H   -0.008855
    47  H   -0.021070
    48  H   -0.002264
    49  H   -0.007351
    50  H    0.013733
    51  H    0.031693
    52  H    0.021182
    53  H   -0.004176
    54  H    0.042653
    55  H    0.020598
    56  H    0.016797
    57  H    0.018559
    58  H    0.045500
    59  H    0.019799
    60  H    0.029464
    61  H    0.051916
    62  H    0.006345
    63  H    0.019272
    64  H    0.003003
    65  H    0.017777
    66  H    0.011212
    67  H    0.020559
    68  H    0.005210
    69  H   -0.001500
    70  H    0.023151
    71  H    0.027944
    72  H    0.019154
    73  H    0.034950
    74  H    0.045207
    75  H   -0.002636
    76  H    0.036079
    77  H    0.050425
    78  H    0.051162
    79  H    0.043088
    80  Mg   0.842590
    81  C   -0.021687
    82  C   -0.078609
    83  C   -0.075119
    84  C   -0.111294
    85  N   -0.243018
    86  C   -0.062001
    87  C   -0.047396
    88  C   -0.052428
    89  C    0.015674
    90  C    0.105866
    91  C    0.057321
    92  C   -0.053895
    93  H    0.023550
    94  N   -0.393553
    95  C    0.179574
    96  C   -0.141571
    97  C   -0.075173
    98  C    0.104604
    99  C    0.096179
   100  C    0.057893
   101  O   -0.196834
   102  C    0.033360
   103  N   -0.301857
   104  C    0.062646
   105  C   -0.047733
   106  C    0.014855
   107  C    0.029811
   108  C    0.068821
   109  C    0.044632
   110  C    0.006246
   111  N   -0.283368
   112  C    0.112487
   113  C   -0.165596
   114  C    0.022745
   115  C    0.067192
   116  C    0.123692
   117  C    0.018821
   118  O   -0.167164
   119  C    0.053368
   120  C    0.179848
   121  O   -0.224404
   122  O   -0.371067
   123  C    0.187048
   124  H   -0.022536
   125  H   -0.009378
   126  H   -0.032015
   127  H   -0.002136
   128  H   -0.022991
   129  H    0.012559
   130  H    0.048818
   131  H    0.014406
   132  H    0.011119
   133  H    0.016560
   134  H    0.022736
   135  H    0.030193
   136  H    0.017729
   137  H    0.042036
   138  H    0.008693
   139  H    0.038365
   140  H    0.029168
   141  H    0.060237
   142  H    0.009230
   143  H    0.004405
   144  H    0.017338
   145  H    0.022845
   146  H    0.019444
   147  H    0.008870
   148  H    0.003225
   149  H   -0.003636
   150  H    0.027803
   151  H    0.017082
   152  H   -0.005934
   153  H    0.043994
   154  H    0.023760
   155  H    0.037117
   156  H    0.045004
   157  H    0.038834
   158  H    0.031998
 Sum of Mulliken charges =  -0.00000

 Dipole moment (field-independent basis, Debye):
    X=             -3.4590    Y=              1.1457    Z=              2.6077  Tot=              4.4808
 Quadrupole moment (field-independent basis, Debye-Ang):
   XX=           -216.8941   YY=           -478.7617   ZZ=           -510.2765
   XY=            -27.9978   XZ=             64.0083   YZ=             29.7773

 Normal termination of Gaussian 16 at Wed Sep 15 11:54:50 2021.
