 Gaussian 16, Revision A.03,
 Gaussian 16:  ES64L-G16RevA.03 25-Dec-2016

 ----------------------------------------------------------
 #p cam-b3lyp/Def2SVP td=(nstates=5) density=(transition=1)
 ----------------------------------------------------------

 --------------------------------
 TDDFT excited states in gaussian
 --------------------------------
 Symbolic Z-matrix:
 Charge =  0 Multiplicity = 1

                         Standard orientation:
 ---------------------------------------------------------------------
 Center     Atomic      Atomic             Coordinates (Angstroms)
 Number     Number       Type             X           Y           Z
 ---------------------------------------------------------------------
      1         12           0      -26.479012   -0.435654   -0.278358
      2          6           0      -24.814430    2.555608   -0.504841
      3          6           0      -27.749591    0.572398    2.742716
      4          6           0      -28.078779   -3.498141    0.021766
      5          6           0      -24.824146   -1.574181   -3.104227
      6          7           0      -26.274699    1.365184    1.044594
      7          6           0      -25.593899    2.481848    0.650894
      8          6           0      -25.716267    3.541570    1.635672
      9          6           0      -26.463744    2.923297    2.806585
     10          6           0      -26.852594    1.498822    2.213766
     11          6           0      -25.738957    2.816639    4.192676
     12          6           0      -26.413998    4.810617    1.037992
     13          6           0      -25.956555    6.203557    1.593360
     14          1           0      -25.427794    6.245623    3.040522
     15          7           0      -27.835243   -1.268798    1.151845
     16          6           0      -28.234287   -0.655414    2.326980
     17          6           0      -29.151240   -1.559880    3.049906
     18          6           0      -29.265944   -2.776930    2.249015
     19          6           0      -28.402769   -2.552283    1.076418
     20          6           0      -29.791030   -1.249634    4.393310
     21          6           0      -30.178144   -3.956782    2.491194
     22          8           0      -30.205361   -4.879693    1.658165
     23          6           0      -31.040212   -4.127709    3.685632
     24          7           0      -26.407117   -2.312069   -1.331169
     25          6           0      -27.189093   -3.354342   -1.035645
     26          6           0      -27.065880   -4.449829   -2.107768
     27          6           0      -26.198096   -3.760055   -3.295998
     28          6           0      -25.849477   -2.419696   -2.557980
     29          6           0      -26.447147   -5.754821   -1.518585
     30          6           0      -26.972541   -3.478659   -4.612761
     31          6           0      -26.549838   -4.319745   -5.826549
     32          7           0      -25.034223    0.274361   -1.548293
     33          6           0      -24.428974   -0.303787   -2.666528
     34          6           0      -23.460987    0.640624   -3.267220
     35          6           0      -23.599753    1.755985   -2.407839
     36          6           0      -24.549178    1.481601   -1.387374
     37          6           0      -22.653267    0.470009   -4.458012
     38          6           0      -23.186497    3.163555   -2.231447
     39          8           0      -22.478205    3.877044   -2.890991
     40          6           0      -23.932573    3.710351   -0.962564
     41          6           0      -22.931024    4.262094   -0.036147
     42          8           0      -22.170234    3.504760    0.587691
     43          8           0      -23.015950    5.605552    0.166522
     44          6           0      -22.202126    6.208924    1.217136
     45          1           0      -28.137929    0.923958    3.700875
     46          1           0      -28.561624   -4.469002    0.153030
     47          1           0      -24.426305   -1.926624   -4.058040
     48          1           0      -24.710993    3.815239    1.957882
     49          1           0      -27.447465    3.376808    2.933381
     50          1           0      -24.729215    3.199051    4.345449
     51          1           0      -25.725495    1.766019    4.481669
     52          1           0      -26.311675    3.244056    5.016095
     53          1           0      -27.496246    4.696288    1.100558
     54          1           0      -26.343601    4.769474   -0.048792
     55          1           0      -26.773793    6.921451    1.518197
     56          1           0      -25.088497    6.604336    1.070792
     57          1           0      -29.616456   -0.228082    4.729269
     58          1           0      -29.379596   -1.883302    5.179491
     59          1           0      -30.876651   -1.244438    4.297495
     60          1           0      -31.630128   -5.026912    3.510634
     61          1           0      -31.697010   -3.277579    3.874595
     62          1           0      -30.417712   -4.162927    4.579862
     63          1           0      -28.060333   -4.586965   -2.532651
     64          1           0      -25.271490   -4.295930   -3.501465
     65          1           0      -27.014001   -6.653283   -1.762962
     66          1           0      -26.397761   -5.703694   -0.430563
     67          1           0      -25.428934   -5.760973   -1.908290
     68          1           0      -26.906797   -2.440971   -4.937699
     69          1           0      -28.045160   -3.633364   -4.493865
     70          1           0      -26.152923   -5.275646   -5.484578
     71          1           0      -25.754577   -3.784442   -6.344352
     72          1           0      -27.411222   -4.358552   -6.492069
     73          1           0      -22.297647    1.415762   -4.866298
     74          1           0      -23.168827   -0.064114   -5.255900
     75          1           0      -21.709126    0.018695   -4.152682
     76          1           0      -24.572842    4.469351   -1.413372
     77          1           0      -21.128474    6.169519    1.031221
     78          1           0      -22.468281    5.809067    2.195546
     79          1           0      -22.412193    7.277100    1.269376
     80         12           0       25.933746   -0.988859    0.155647
     81          6           0       26.768001    2.360832   -1.077636
     82          6           0       24.500877    0.616888    2.920497
     83          6           0       25.471467   -3.926681    1.490969
     84          6           0       27.229330   -2.332301   -2.721601
     85          7           0       25.852369    1.187271    0.931174
     86          6           0       26.136963    2.424119    0.214156
     87          6           0       25.817366    3.700149    1.022130
     88          6           0       25.271171    3.008021    2.401670
     89          6           0       25.199368    1.494989    2.116815
     90          6           0       26.102266    3.343293    3.624856
     91          6           0       24.828832    4.614224    0.236769
     92          6           0       24.213843    5.726935    1.031218
     93          1           0       24.114075    7.111879    0.431512
     94          7           0       25.113105   -1.615223    1.990177
     95          6           0       24.565910   -0.814676    2.999279
     96          6           0       24.047235   -1.661238    4.072123
     97          6           0       24.317571   -3.032934    3.669254
     98          6           0       24.999506   -2.941187    2.325509
     99          6           0       23.270547   -1.140044    5.336480
    100          6           0       24.079880   -4.326518    4.361448
    101          8           0       24.329356   -5.429259    3.892967
    102          6           0       23.392659   -4.350488    5.663571
    103          7           0       26.201628   -2.810878   -0.531018
    104          6           0       26.059066   -3.892322    0.237393
    105          6           0       26.409416   -5.203198   -0.505022
    106          6           0       26.526445   -4.705820   -1.930841
    107          6           0       26.735327   -3.154224   -1.734514
    108          6           0       27.686479   -5.861085    0.004708
    109          6           0       25.472688   -4.962808   -2.976775
    110          6           0       24.129460   -4.333141   -2.675475
    111          7           0       26.906779   -0.211471   -1.513672
    112          6           0       27.291926   -0.911616   -2.671219
    113          6           0       27.849580    0.023021   -3.617439
    114          6           0       27.567652    1.275774   -3.014372
    115          6           0       27.009627    1.098195   -1.734014
    116          6           0       28.384869   -0.243510   -4.994019
    117          6           0       27.658240    2.739237   -3.309635
    118          8           0       27.980433    3.345062   -4.354004
    119          6           0       27.172317    3.445885   -2.046126
    120          6           0       28.246397    4.410975   -1.539896
    121          8           0       29.411960    4.180600   -1.101415
    122          8           0       27.675010    5.648141   -1.491952
    123          6           0       28.526472    6.728342   -0.944197
    124          1           0       23.883779    1.116848    3.668651
    125          1           0       25.384870   -4.915998    1.944963
    126          1           0       27.681375   -2.690061   -3.649151
    127          1           0       26.759862    4.245250    1.072935
    128          1           0       24.223278    3.275684    2.537382
    129          1           0       25.456130    3.822983    4.360604
    130          1           0       26.859181    4.053716    3.294372
    131          1           0       26.779429    2.576390    4.000282
    132          1           0       24.127848    3.934092   -0.248354
    133          1           0       25.366458    5.067989   -0.595882
    134          1           0       24.693921    5.985570    1.974724
    135          1           0       23.164250    5.497609    1.212983
    136          1           0       22.277633   -1.582423    5.250683
    137          1           0       23.168057   -0.055399    5.366657
    138          1           0       23.818126   -1.512990    6.202119
    139          1           0       23.737000   -3.584092    6.358259
    140          1           0       23.633124   -5.336753    6.058948
    141          1           0       22.371435   -4.058105    5.421108
    142          1           0       25.580438   -5.891837   -0.341314
    143          1           0       27.400562   -5.116082   -2.437298
    144          1           0       27.528837   -6.938465    0.038902
    145          1           0       27.935379   -5.516054    1.007688
    146          1           0       28.486496   -5.748184   -0.727837
    147          1           0       25.421035   -6.039501   -3.140853
    148          1           0       25.723273   -4.465149   -3.913455
    149          1           0       23.306544   -5.027795   -2.839854
    150          1           0       23.900273   -3.494253   -3.333002
    151          1           0       24.016366   -3.984909   -1.648731
    152          1           0       27.893542    0.414245   -5.710579
    153          1           0       28.328238   -1.240616   -5.430610
    154          1           0       29.447156    0.000520   -4.970931
    155          1           0       26.325732    4.077554   -2.316686
    156          1           0       28.252712    6.922466    0.092645
    157          1           0       28.296464    7.504786   -1.673822
    158          1           0       29.590520    6.527786   -1.075826
 ---------------------------------------------------------------------

 SCF Done:  E(RCAM-B3LYP) =  -4069.85940325     A.U. after   19 cycles

 Excitation energies and oscillator strengths:

 Excited State   1:      Singlet-A      1.6630 eV  745.54 nm  f=0.3986  <S**2>=0.000
     309 -> 316       -0.16582
     311 -> 313        0.68886
     309 <- 316       -0.10534
 This state for optimization and/or second-order correction.
 Total Energy, E(TD-HF/TD-DFT) =  -4069.79828908
 Copying the excited state density for this state as the 1-particle RhoCI density.

 Excited State   2:      Singlet-A      1.7299 eV  716.72 nm  f=0.3903  <S**2>=0.000
     310 -> 315        0.18860
     312 -> 314        0.68241
     310 <- 315        0.10885

 Excited State   3:      Singlet-A      2.1713 eV  571.01 nm  f=0.1376  <S**2>=0.000
     309 -> 313        0.65261
     311 -> 316        0.25467

 Excited State   4:      Singlet-A      2.2550 eV  549.81 nm  f=0.0852  <S**2>=0.000
     310 -> 314        0.62545
     312 -> 315       -0.31653

 Excited State   5:      Singlet-A      2.9573 eV  419.24 nm  f=0.0000  <S**2>=0.000
     312 -> 313        0.70711

 The electronic state is 1-A.
 Alpha  occ. eigenvalues --  -46.88904 -46.87753 -19.25992 -19.25755 -19.19629
 Alpha  occ. eigenvalues --  -19.19318 -19.19062 -19.18762 -19.18464 -19.18383
 Alpha  occ. eigenvalues --  -14.42496 -14.42161 -14.41846 -14.41739 -14.39954
 Alpha  occ. eigenvalues --  -14.39508 -14.39263 -14.38859 -10.39950 -10.39578
 Alpha  occ. eigenvalues --  -10.34979 -10.34870 -10.34734 -10.34645 -10.32337
 Alpha  occ. eigenvalues --  -10.31970 -10.31906 -10.31497 -10.31368 -10.31091
 Alpha  occ. eigenvalues --  -10.30932 -10.30689 -10.30666 -10.30628 -10.30613
 Alpha  occ. eigenvalues --  -10.30466 -10.30432 -10.30124 -10.30034 -10.29938
 Alpha  occ. eigenvalues --  -10.29323 -10.29260 -10.29171 -10.28960 -10.28951
 Alpha  occ. eigenvalues --  -10.28875 -10.28816 -10.28712 -10.28650 -10.28596
 Alpha  occ. eigenvalues --  -10.28586 -10.28413 -10.28299 -10.28248 -10.28020
 Alpha  occ. eigenvalues --  -10.27918 -10.27785 -10.27544 -10.27529 -10.27505
 Alpha  occ. eigenvalues --  -10.27476 -10.27407 -10.27396 -10.27383 -10.27236
 Alpha  occ. eigenvalues --  -10.27005 -10.27005 -10.26966 -10.26834 -10.26502
 Alpha  occ. eigenvalues --  -10.26280 -10.26120 -10.26086 -10.26085 -10.26034
 Alpha  occ. eigenvalues --  -10.26026 -10.25894 -10.25823 -10.25730 -10.25718
 Alpha  occ. eigenvalues --  -10.25626 -10.25527 -10.25371 -10.25269 -10.24701
 Alpha  occ. eigenvalues --  -10.24557  -3.17326  -3.16493  -1.92248  -1.91766
 Alpha  occ. eigenvalues --   -1.91633  -1.91398  -1.90959  -1.90795  -1.16456
 Alpha  occ. eigenvalues --   -1.15997  -1.10965  -1.10382  -1.08937  -1.07800
 Alpha  occ. eigenvalues --   -1.07144  -1.05759  -1.05138  -1.05048  -1.04068
 Alpha  occ. eigenvalues --   -1.03393  -1.02821  -1.02267  -1.00974  -1.00604
 Alpha  occ. eigenvalues --   -0.92504  -0.92303  -0.89691  -0.89144  -0.88858
 Alpha  occ. eigenvalues --   -0.88694  -0.88297  -0.87725  -0.87320  -0.87211
 Alpha  occ. eigenvalues --   -0.86998  -0.86750  -0.86275  -0.85878  -0.84768
 Alpha  occ. eigenvalues --   -0.84050  -0.83963  -0.83582  -0.82939  -0.82343
 Alpha  occ. eigenvalues --   -0.82298  -0.81890  -0.81418  -0.81233  -0.80567
 Alpha  occ. eigenvalues --   -0.80074  -0.78519  -0.78453  -0.77573  -0.77325
 Alpha  occ. eigenvalues --   -0.77270  -0.76809  -0.76254  -0.75964  -0.75496
 Alpha  occ. eigenvalues --   -0.74908  -0.72760  -0.72613  -0.71950  -0.71525
 Alpha  occ. eigenvalues --   -0.70295  -0.69445  -0.69257  -0.68371  -0.68046
 Alpha  occ. eigenvalues --   -0.67633  -0.67140  -0.66937  -0.65854  -0.65462
 Alpha  occ. eigenvalues --   -0.65061  -0.65045  -0.64660  -0.64345  -0.64326
 Alpha  occ. eigenvalues --   -0.63820  -0.62743  -0.61939  -0.60227  -0.59867
 Alpha  occ. eigenvalues --   -0.59604  -0.59237  -0.59161  -0.59079  -0.58768
 Alpha  occ. eigenvalues --   -0.58320  -0.58240  -0.57717  -0.57399  -0.57304
 Alpha  occ. eigenvalues --   -0.56279  -0.56068  -0.55987  -0.55984  -0.55480
 Alpha  occ. eigenvalues --   -0.55358  -0.55298  -0.54803  -0.54738  -0.54288
 Alpha  occ. eigenvalues --   -0.53991  -0.53463  -0.53460  -0.53072  -0.52939
 Alpha  occ. eigenvalues --   -0.52801  -0.52726  -0.52495  -0.52430  -0.52232
 Alpha  occ. eigenvalues --   -0.52127  -0.51677  -0.51520  -0.51296  -0.51184
 Alpha  occ. eigenvalues --   -0.51144  -0.50831  -0.50730  -0.50384  -0.50223
 Alpha  occ. eigenvalues --   -0.50185  -0.49976  -0.49859  -0.49791  -0.49519
 Alpha  occ. eigenvalues --   -0.49385  -0.49008  -0.48840  -0.48809  -0.48554
 Alpha  occ. eigenvalues --   -0.48543  -0.48490  -0.48447  -0.48128  -0.48076
 Alpha  occ. eigenvalues --   -0.47965  -0.47716  -0.47564  -0.47486  -0.47213
 Alpha  occ. eigenvalues --   -0.47121  -0.47017  -0.46755  -0.46713  -0.46519
 Alpha  occ. eigenvalues --   -0.46302  -0.46152  -0.45998  -0.45884  -0.45721
 Alpha  occ. eigenvalues --   -0.45700  -0.45528  -0.45439  -0.45216  -0.44942
 Alpha  occ. eigenvalues --   -0.44935  -0.44544  -0.44532  -0.44353  -0.44342
 Alpha  occ. eigenvalues --   -0.44179  -0.43974  -0.43819  -0.43615  -0.43504
 Alpha  occ. eigenvalues --   -0.43487  -0.43181  -0.43179  -0.43025  -0.42635
 Alpha  occ. eigenvalues --   -0.42632  -0.42502  -0.42199  -0.42159  -0.41859
 Alpha  occ. eigenvalues --   -0.41848  -0.41754  -0.41501  -0.41202  -0.41169
 Alpha  occ. eigenvalues --   -0.40954  -0.40925  -0.40702  -0.40460  -0.40350
 Alpha  occ. eigenvalues --   -0.40007  -0.39951  -0.39552  -0.39227  -0.39103
 Alpha  occ. eigenvalues --   -0.38891  -0.38201  -0.37491  -0.37329  -0.37235
 Alpha  occ. eigenvalues --   -0.37127  -0.36764  -0.36730  -0.36639  -0.36519
 Alpha  occ. eigenvalues --   -0.36108  -0.36039  -0.34303  -0.34095  -0.34054
 Alpha  occ. eigenvalues --   -0.33987  -0.33130  -0.33067  -0.31511  -0.31268
 Alpha  occ. eigenvalues --   -0.31148  -0.30909  -0.30711  -0.30398  -0.30315
 Alpha  occ. eigenvalues --   -0.30079  -0.29520  -0.29171  -0.24248  -0.23897
 Alpha  occ. eigenvalues --   -0.21475  -0.20818
 Alpha virt. eigenvalues --   -0.09291  -0.08306  -0.01737  -0.01659   0.00332
 Alpha virt. eigenvalues --    0.00529   0.02191   0.02530   0.03076   0.03371
 Alpha virt. eigenvalues --    0.04450   0.04511   0.05162   0.05220   0.05738

 Mulliken charges:
               1
     1  Mg  11.999997
     2  C    5.999975
     3  C    5.999995
     4  C    6.000022
     5  C    6.000012
     6  N    6.999956
     7  C    6.000035
     8  C    5.999978
     9  C    6.000010
    10  C    5.999996
    11  C    6.000007
    12  C    5.999993
    13  C    5.999999
    14  H    0.999984
    15  N    7.000016
    16  C    5.999964
    17  C    5.999979
    18  C    5.999993
    19  C    5.999959
    20  C    6.000001
    21  C    5.999973
    22  O    7.999984
    23  C    6.000000
    24  N    7.000035
    25  C    5.999963
    26  C    6.000018
    27  C    5.999984
    28  C    6.000008
    29  C    5.999997
    30  C    5.999990
    31  C    5.999998
    32  N    6.999976
    33  C    6.000033
    34  C    6.000031
    35  C    5.999975
    36  C    6.000035
    37  C    5.999982
    38  C    6.000050
    39  O    8.000033
    40  C    6.000005
    41  C    6.000005
    42  O    7.999979
    43  O    8.000014
    44  C    6.000001
    45  H    0.999978
    46  H    1.000006
    47  H    1.000027
    48  H    0.999985
    49  H    1.000013
    50  H    0.999963
    51  H    0.999986
    52  H    0.999995
    53  H    1.000025
    54  H    1.000013
    55  H    1.000023
    56  H    0.999998
    57  H    0.999980
    58  H    0.999954
    59  H    0.999991
    60  H    0.999989
    61  H    1.000004
    62  H    0.999972
    63  H    1.000017
    64  H    0.999994
    65  H    1.000006
    66  H    0.999990
    67  H    0.999977
    68  H    1.000010
    69  H    1.000027
    70  H    0.999993
    71  H    1.000004
    72  H    1.000030
    73  H    1.000039
    74  H    1.000042
    75  H    1.000005
    76  H    1.000027
    77  H    0.999987
    78  H    0.999987
    79  H    1.000018
    80  Mg  11.996996
    81  C    6.021391
    82  C    5.986026
    83  C    5.978669
    84  C    6.015525
    85  N    7.005362
    86  C    5.966077
    87  C    6.010966
    88  C    5.991488
    89  C    6.027379
    90  C    5.992398
    91  C    6.003245
    92  C    6.000076
    93  H    0.999526
    94  N    6.990708
    95  C    6.044041
    96  C    6.021255
    97  C    6.017091
    98  C    6.037196
    99  C    6.000015
   100  C    6.011830
   101  O    8.030813
   102  C    5.996116
   103  N    7.001221
   104  C    6.037885
   105  C    5.991850
   106  C    6.001594
   107  C    5.965542
   108  C    5.997790
   109  C    6.007977
   110  C    6.005916
   111  N    7.004480
   112  C    5.952344
   113  C    5.979433
   114  C    5.991468
   115  C    5.961615
   116  C    6.004772
   117  C    5.981362
   118  O    7.967409
   119  C    6.001514
   120  C    5.997119
   121  O    7.994272
   122  O    7.998256
   123  C    6.001626
   124  H    1.011012
   125  H    1.006013
   126  H    0.990319
   127  H    0.999901
   128  H    1.000226
   129  H    1.001605
   130  H    1.014123
   131  H    0.997998
   132  H    0.997567
   133  H    1.005888
   134  H    0.994799
   135  H    0.994367
   136  H    1.017295
   137  H    1.019260
   138  H    1.016820
   139  H    1.007068
   140  H    1.015005
   141  H    1.008258
   142  H    0.999189
   143  H    0.999680
   144  H    1.003168
   145  H    0.994722
   146  H    1.014218
   147  H    0.989026
   148  H    1.004814
   149  H    0.993886
   150  H    1.006281
   151  H    0.983557
   152  H    0.983732
   153  H    0.980085
   154  H    0.981170
   155  H    0.991524
   156  H    0.993036
   157  H    0.996935
   158  H    0.997818
 Sum of Mulliken charges = 624.00000

 Dipole moment (field-independent basis, Debye):
    X=             -4.3064    Y=             -4.2550    Z=              9.4743  Tot=             11.2433
 Quadrupole moment (field-independent basis, Debye-Ang):
   XX=           -224.0755   YY=              4.1997   ZZ=              6.1661
   XY=           -108.1078   XZ=            244.5123   YZ=            -10.1672

 Normal termination of Gaussian 16 at Wed Sep 22 21:01:35 2021.
