 Gaussian 16, Revision A.03,
 Gaussian 16:  ES64L-G16RevA.03 25-Dec-2016

 ----------------------------------------------------------
 #p cam-b3lyp/Def2SVP td=(nstates=5) density=(transition=1)
 ----------------------------------------------------------

 --------------------------------
 TDDFT excited states in gaussian
 --------------------------------
 Symbolic Z-matrix:
 Charge =  0 Multiplicity = 1

                         Standard orientation:
 ---------------------------------------------------------------------
 Center     Atomic      Atomic             Coordinates (Angstroms)
 Number     Number       Type             X           Y           Z
 ---------------------------------------------------------------------
      1         12           0       12.305904   -0.123216    0.517839
      2          6           0        9.000825   -0.380275   -0.684052
      3          6           0       13.224534    1.184252   -2.524867
      4          6           0       15.492510    0.081567    1.559055
      5          6           0       11.442545   -1.974871    3.358468
      6          7           0       11.155828    0.430283   -1.257618
      7          6           0        9.879708    0.288154   -1.604182
      8          6           0        9.481059    0.814593   -2.998639
      9          6           0       10.970560    1.005966   -3.565187
     10          6           0       11.863445    0.814260   -2.363663
     11          6           0       11.321874    0.055026   -4.683500
     12          6           0        8.632611    2.203505   -2.973630
     13          6           0        7.729392    2.377832   -4.198070
     14          1           0        6.218763    2.475852   -3.863016
     15          7           0       14.127496    0.699400   -0.293972
     16          6           0       14.275267    1.152756   -1.628221
     17          6           0       15.564358    1.802360   -1.705609
     18          6           0       16.243203    1.520650   -0.523491
     19          6           0       15.294880    0.750118    0.340660
     20          6           0       16.114489    2.442320   -2.966263
     21          6           0       17.620771    1.912072   -0.039902
     22          8           0       17.967906    1.617106    1.066361
     23          6           0       18.553899    2.730452   -0.875404
     24          7           0       13.378820   -0.999391    2.100953
     25          6           0       14.684057   -0.705129    2.368324
     26          6           0       15.013444   -1.378613    3.729456
     27          6           0       13.696252   -1.485892    4.476733
     28          6           0       12.733742   -1.520269    3.266294
     29          6           0       15.567874   -2.780281    3.478904
     30          6           0       13.436545   -0.386616    5.439102
     31          6           0       13.666545    1.039405    5.003614
     32          7           0       10.593017   -0.991382    1.262847
     33          6           0       10.366004   -1.721671    2.414204
     34          6           0        8.943884   -2.094497    2.466055
     35          6           0        8.390210   -1.563340    1.288178
     36          6           0        9.397771   -0.925303    0.617575
     37          6           0        8.290103   -2.896011    3.507252
     38          6           0        7.169569   -1.297684    0.575183
     39          8           0        5.968429   -1.586016    0.852842
     40          6           0        7.558756   -0.472164   -0.740910
     41          6           0        7.130130   -1.315791   -1.913470
     42          8           0        7.384185   -2.480330   -2.002939
     43          8           0        6.448249   -0.623042   -2.950322
     44          6           0        6.315194   -1.374767   -4.235245
     45          1           0       13.546239    1.552353   -3.500726
     46          1           0       16.532810    0.037294    1.889200
     47          1           0       11.067774   -2.400049    4.292146
     48          1           0        8.845725    0.086686   -3.504762
     49          1           0       10.978875    2.033707   -3.930296
     50          1           0       11.169365    0.608902   -5.609676
     51          1           0       10.784509   -0.891394   -4.619636
     52          1           0       12.405210   -0.040865   -4.611500
     53          1           0        9.315383    3.053357   -2.948411
     54          1           0        8.048933    2.280012   -2.056037
     55          1           0        8.002299    1.505642   -4.792487
     56          1           0        8.031408    3.224642   -4.814052
     57          1           0       15.232889    2.621402   -3.580573
     58          1           0       16.677876    1.628353   -3.421610
     59          1           0       16.631204    3.381131   -2.765875
     60          1           0       18.042995    3.691873   -0.820253
     61          1           0       18.616965    2.423964   -1.919175
     62          1           0       19.545604    2.755443   -0.422443
     63          1           0       15.776690   -0.877378    4.323695
     64          1           0       13.583284   -2.373931    5.097720
     65          1           0       14.925588   -3.649654    3.619848
     66          1           0       16.438738   -2.903243    4.122698
     67          1           0       15.943623   -2.813456    2.455620
     68          1           0       13.966955   -0.535871    6.379872
     69          1           0       12.376295   -0.488983    5.669634
     70          1           0       12.676957    1.494910    4.957159
     71          1           0       14.156023    1.315196    4.069092
     72          1           0       14.197825    1.554284    5.803921
     73          1           0        8.645139   -3.922527    3.416676
     74          1           0        7.227262   -2.759267    3.308146
     75          1           0        8.580026   -2.566809    4.505991
     76          1           0        7.047649    0.483491   -0.622864
     77          1           0        5.517826   -2.114034   -4.159813
     78          1           0        7.234987   -1.878727   -4.535554
     79          1           0        5.991217   -0.792492   -5.097379
     80         12           0      -12.147913   -0.420124   -0.762103
     81          6           0      -11.938593    3.007963    0.176803
     82          6           0       -9.205741   -0.101445   -2.486870
     83          6           0      -11.827364   -3.904992   -0.762049
     84          6           0      -14.816634   -0.804502    1.491483
     85          7           0      -10.603543    1.328546   -0.856724
     86          6           0      -10.833545    2.631449   -0.625880
     87          6           0       -9.875330    3.465649   -1.456242
     88          6           0       -8.926995    2.467875   -2.279674
     89          6           0       -9.757821    1.129052   -1.939304
     90          6           0       -8.965714    2.863378   -3.772944
     91          6           0       -9.079200    4.414173   -0.574445
     92          6           0       -8.631924    3.875587    0.805286
     93          1           0       -7.123816    3.544326    0.973085
     94          7           0      -10.736040   -1.849185   -1.609601
     95          6           0       -9.590526   -1.448357   -2.262153
     96          6           0       -9.024388   -2.637693   -2.817077
     97          6           0       -9.686278   -3.804397   -2.274546
     98          6           0      -10.845220   -3.242211   -1.535912
     99          6           0       -7.748099   -2.631224   -3.626245
    100          6           0       -9.214655   -5.258653   -2.320406
    101          8           0       -8.148131   -5.536516   -2.834049
    102          6           0       -9.961456   -6.348501   -1.767320
    103          7           0      -13.102171   -2.117950    0.297963
    104          6           0      -12.885578   -3.390710    0.000692
    105          6           0      -13.749586   -4.352250    0.800350
    106          6           0      -14.446814   -3.321815    1.789129
    107          6           0      -14.179248   -2.007638    1.148786
    108          6           0      -14.795875   -5.182264   -0.092187
    109          6           0      -13.889177   -3.507730    3.274958
    110          6           0      -14.776706   -4.046241    4.361151
    111          7           0      -13.301533    0.803125    0.338912
    112          6           0      -14.443284    0.521460    1.116449
    113          6           0      -15.051800    1.767993    1.617348
    114          6           0      -14.101210    2.714301    1.234941
    115          6           0      -12.975580    2.117101    0.567035
    116          6           0      -16.448655    1.998220    2.290960
    117          6           0      -13.815841    4.150105    1.321036
    118          8           0      -14.436247    5.111987    1.803512
    119          6           0      -12.433553    4.412106    0.637045
    120          6           0      -11.666017    4.918359    1.809233
    121          8           0      -11.488321    4.316675    2.837238
    122          8           0      -11.311641    6.184580    1.609679
    123          6           0      -10.450380    6.879535    2.629089
    124          1           0       -8.457037    0.047596   -3.267501
    125          1           0      -11.890302   -4.994546   -0.730730
    126          1           0      -15.564450   -1.046119    2.250370
    127          1           0      -10.613056    4.008940   -2.046793
    128          1           0       -7.906606    2.448141   -1.895973
    129          1           0       -7.951217    3.112272   -4.083665
    130          1           0       -9.571752    3.742627   -3.992955
    131          1           0       -9.293795    1.971953   -4.306898
    132          1           0       -9.664686    5.314265   -0.386783
    133          1           0       -8.144761    4.695000   -1.061177
    134          1           0       -9.015063    2.904766    1.119325
    135          1           0       -8.931455    4.653122    1.508105
    136          1           0       -7.313846   -1.633239   -3.691088
    137          1           0       -7.965034   -3.101641   -4.585893
    138          1           0       -7.067748   -3.343477   -3.160743
    139          1           0      -10.095796   -6.322709   -0.685723
    140          1           0       -9.454579   -7.285280   -1.998094
    141          1           0      -10.935210   -6.236998   -2.245487
    142          1           0      -13.185126   -5.026240    1.444231
    143          1           0      -15.459267   -3.724048    1.828765
    144          1           0      -14.642853   -4.945589   -1.145527
    145          1           0      -15.793811   -4.839673    0.182074
    146          1           0      -14.803407   -6.262722    0.059584
    147          1           0      -13.632824   -2.547694    3.723117
    148          1           0      -12.998397   -4.134372    3.282112
    149          1           0      -15.172987   -3.280370    5.027910
    150          1           0      -14.054291   -4.670579    4.887937
    151          1           0      -15.506003   -4.786920    4.032679
    152          1           0      -16.380112    1.647215    3.320257
    153          1           0      -17.187011    1.478604    1.680060
    154          1           0      -16.629524    3.071547    2.345990
    155          1           0      -12.627516    5.124868   -0.165325
    156          1           0      -11.027669    7.308654    3.448365
    157          1           0       -9.873146    7.685104    2.173441
    158          1           0       -9.764538    6.109047    2.981279
 ---------------------------------------------------------------------

 SCF Done:  E(RCAM-B3LYP) =  -4069.76489864     A.U. after   18 cycles

 Excitation energies and oscillator strengths:

 Excited State   1:      Singlet-A      1.6885 eV  734.30 nm  f=0.4585  <S**2>=0.000
     309 -> 315        0.18984
     311 -> 313       -0.22124
     312 -> 314        0.64441
     309 <- 315        0.10875
 This state for optimization and/or second-order correction.
 Total Energy, E(TD-HF/TD-DFT) =  -4069.70284875
 Copying the excited state density for this state as the 1-particle RhoCI density.

 Excited State   2:      Singlet-A      1.6962 eV  730.94 nm  f=0.2702  <S**2>=0.000
     310 -> 316        0.16511
     311 -> 313        0.65112
     312 -> 314        0.21862
     310 <- 316        0.10053

 Excited State   3:      Singlet-A      2.1841 eV  567.66 nm  f=0.1183  <S**2>=0.000
     310 -> 313        0.64690
     311 -> 316       -0.27029

 Excited State   4:      Singlet-A      2.1999 eV  563.58 nm  f=0.0722  <S**2>=0.000
     309 -> 314        0.61828
     312 -> 315       -0.32981

 Excited State   5:      Singlet-A      2.9489 eV  420.44 nm  f=0.0000  <S**2>=0.000
     312 -> 313        0.70703

 The electronic state is 1-A.
 Alpha  occ. eigenvalues --  -46.90084 -46.88595 -19.24963 -19.24455 -19.19999
 Alpha  occ. eigenvalues --  -19.19059 -19.18738 -19.18735 -19.18201 -19.17919
 Alpha  occ. eigenvalues --  -14.43387 -14.42302 -14.41848 -14.41312 -14.40014
 Alpha  occ. eigenvalues --  -14.39679 -14.39408 -14.39026 -10.39355 -10.38609
 Alpha  occ. eigenvalues --  -10.35164 -10.34851 -10.34701 -10.34173 -10.32349
 Alpha  occ. eigenvalues --  -10.31881 -10.31819 -10.31635 -10.31259 -10.31242
 Alpha  occ. eigenvalues --  -10.31092 -10.30919 -10.30849 -10.30801 -10.30609
 Alpha  occ. eigenvalues --  -10.30581 -10.30577 -10.30492 -10.29826 -10.29722
 Alpha  occ. eigenvalues --  -10.29410 -10.29360 -10.28830 -10.28787 -10.28728
 Alpha  occ. eigenvalues --  -10.28694 -10.28598 -10.28357 -10.28337 -10.28273
 Alpha  occ. eigenvalues --  -10.28265 -10.28250 -10.28221 -10.28172 -10.28102
 Alpha  occ. eigenvalues --  -10.28033 -10.27967 -10.27929 -10.27722 -10.27548
 Alpha  occ. eigenvalues --  -10.27501 -10.27314 -10.27204 -10.27095 -10.27093
 Alpha  occ. eigenvalues --  -10.26881 -10.26879 -10.26783 -10.26685 -10.26667
 Alpha  occ. eigenvalues --  -10.26622 -10.26571 -10.26458 -10.26390 -10.26290
 Alpha  occ. eigenvalues --  -10.26073 -10.25661 -10.25592 -10.25490 -10.25401
 Alpha  occ. eigenvalues --  -10.25371 -10.25080 -10.25076 -10.24893 -10.24438
 Alpha  occ. eigenvalues --  -10.24393  -3.18391  -3.17090  -1.93255  -1.92878
 Alpha  occ. eigenvalues --   -1.92668  -1.92012  -1.91521  -1.91406  -1.16947
 Alpha  occ. eigenvalues --   -1.15569  -1.12094  -1.10063  -1.08701  -1.07586
 Alpha  occ. eigenvalues --   -1.07337  -1.06613  -1.05269  -1.04475  -1.03549
 Alpha  occ. eigenvalues --   -1.03510  -1.02905  -1.02270  -1.01740  -1.01471
 Alpha  occ. eigenvalues --   -0.92919  -0.91821  -0.90021  -0.89413  -0.88826
 Alpha  occ. eigenvalues --   -0.88807  -0.88688  -0.88128  -0.87822  -0.86960
 Alpha  occ. eigenvalues --   -0.86907  -0.86188  -0.85995  -0.85216  -0.84682
 Alpha  occ. eigenvalues --   -0.84556  -0.83923  -0.83546  -0.82719  -0.82608
 Alpha  occ. eigenvalues --   -0.82488  -0.82445  -0.81084  -0.80971  -0.80125
 Alpha  occ. eigenvalues --   -0.79888  -0.78886  -0.77780  -0.77314  -0.77224
 Alpha  occ. eigenvalues --   -0.77079  -0.76262  -0.76256  -0.76168  -0.74961
 Alpha  occ. eigenvalues --   -0.74836  -0.72728  -0.72427  -0.71596  -0.71304
 Alpha  occ. eigenvalues --   -0.69679  -0.68822  -0.68768  -0.68404  -0.67990
 Alpha  occ. eigenvalues --   -0.67816  -0.67100  -0.66547  -0.65803  -0.65459
 Alpha  occ. eigenvalues --   -0.65061  -0.64911  -0.64629  -0.64173  -0.63901
 Alpha  occ. eigenvalues --   -0.63382  -0.62299  -0.61733  -0.60359  -0.60160
 Alpha  occ. eigenvalues --   -0.59912  -0.59145  -0.59117  -0.58953  -0.58848
 Alpha  occ. eigenvalues --   -0.58572  -0.58571  -0.57672  -0.57565  -0.57129
 Alpha  occ. eigenvalues --   -0.56370  -0.56191  -0.55734  -0.55707  -0.54906
 Alpha  occ. eigenvalues --   -0.54786  -0.54755  -0.54515  -0.54382  -0.54055
 Alpha  occ. eigenvalues --   -0.53954  -0.53742  -0.53692  -0.53590  -0.53410
 Alpha  occ. eigenvalues --   -0.53009  -0.52920  -0.52479  -0.52409  -0.52360
 Alpha  occ. eigenvalues --   -0.51885  -0.51853  -0.51622  -0.51612  -0.51504
 Alpha  occ. eigenvalues --   -0.51406  -0.50808  -0.50702  -0.50550  -0.50180
 Alpha  occ. eigenvalues --   -0.50037  -0.49986  -0.49674  -0.49664  -0.49563
 Alpha  occ. eigenvalues --   -0.49563  -0.49357  -0.49174  -0.49085  -0.49049
 Alpha  occ. eigenvalues --   -0.48809  -0.48374  -0.48272  -0.48195  -0.48131
 Alpha  occ. eigenvalues --   -0.47700  -0.47677  -0.47624  -0.47169  -0.47147
 Alpha  occ. eigenvalues --   -0.46826  -0.46770  -0.46681  -0.46459  -0.46329
 Alpha  occ. eigenvalues --   -0.46164  -0.45846  -0.45676  -0.45526  -0.45466
 Alpha  occ. eigenvalues --   -0.45377  -0.45186  -0.45176  -0.45054  -0.44971
 Alpha  occ. eigenvalues --   -0.44935  -0.44758  -0.44294  -0.44226  -0.44144
 Alpha  occ. eigenvalues --   -0.43815  -0.43705  -0.43551  -0.43477  -0.43433
 Alpha  occ. eigenvalues --   -0.43131  -0.43081  -0.43081  -0.42823  -0.42759
 Alpha  occ. eigenvalues --   -0.42502  -0.42436  -0.42257  -0.41865  -0.41790
 Alpha  occ. eigenvalues --   -0.41527  -0.41362  -0.41266  -0.41151  -0.41017
 Alpha  occ. eigenvalues --   -0.40896  -0.40732  -0.40357  -0.40248  -0.39994
 Alpha  occ. eigenvalues --   -0.39893  -0.39722  -0.39675  -0.39499  -0.38516
 Alpha  occ. eigenvalues --   -0.38319  -0.37858  -0.37689  -0.37288  -0.37258
 Alpha  occ. eigenvalues --   -0.37104  -0.36981  -0.36612  -0.36399  -0.36249
 Alpha  occ. eigenvalues --   -0.36161  -0.35567  -0.34645  -0.34490  -0.34127
 Alpha  occ. eigenvalues --   -0.33970  -0.33216  -0.33177  -0.31688  -0.31347
 Alpha  occ. eigenvalues --   -0.31252  -0.30618  -0.30527  -0.30277  -0.30148
 Alpha  occ. eigenvalues --   -0.29982  -0.29297  -0.28782  -0.24150  -0.24115
 Alpha  occ. eigenvalues --   -0.21359  -0.21185
 Alpha virt. eigenvalues --   -0.08934  -0.08634  -0.02423  -0.01712   0.00397
 Alpha virt. eigenvalues --    0.00465   0.01150   0.02202   0.02564   0.03285
 Alpha virt. eigenvalues --    0.04675   0.04919   0.05325   0.05341   0.05655

 Mulliken charges:
               1
     1  Mg  11.998342
     2  C    6.006128
     3  C    5.992751
     4  C    5.994535
     5  C    6.005616
     6  N    7.002790
     7  C    5.987309
     8  C    6.004715
     9  C    5.993946
    10  C    6.014392
    11  C    5.998504
    12  C    6.000363
    13  C    6.000289
    14  H    1.000611
    15  N    6.996033
    16  C    6.017345
    17  C    6.002988
    18  C    6.008147
    19  C    6.010338
    20  C    5.999458
    21  C    6.003657
    22  O    8.009243
    23  C    5.998934
    24  N    7.000320
    25  C    6.008693
    26  C    5.999034
    27  C    6.001419
    28  C    5.990331
    29  C    6.000345
    30  C    6.002021
    31  C    5.999874
    32  N    7.000096
    33  C    5.985277
    34  C    5.990002
    35  C    5.998616
    36  C    5.990587
    37  C    6.000597
    38  C    5.996028
    39  O    7.989183
    40  C    5.998823
    41  C    5.998016
    42  O    7.999095
    43  O    7.999054
    44  C    6.001121
    45  H    1.003210
    46  H    1.001620
    47  H    0.997690
    48  H    1.000457
    49  H    1.002344
    50  H    1.002845
    51  H    1.004663
    52  H    0.998403
    53  H    0.996479
    54  H    1.002232
    55  H    0.998839
    56  H    0.998320
    57  H    1.005077
    58  H    1.004976
    59  H    1.005077
    60  H    1.002635
    61  H    1.002401
    62  H    1.004901
    63  H    0.999990
    64  H    0.999939
    65  H    1.004065
    66  H    1.000845
    67  H    0.997877
    68  H    0.997764
    69  H    1.002230
    70  H    1.002208
    71  H    0.994552
    72  H    0.999367
    73  H    0.992654
    74  H    0.995253
    75  H    0.993478
    76  H    0.997735
    77  H    0.998672
    78  H    0.998385
    79  H    0.997850
    80  Mg  12.004696
    81  C    6.015856
    82  C    5.968748
    83  C    5.980837
    84  C    6.024366
    85  N    7.006389
    86  C    5.971065
    87  C    6.001053
    88  C    5.985603
    89  C    6.043059
    90  C    5.998816
    91  C    6.002841
    92  C    6.007479
    93  H    0.987087
    94  N    6.987164
    95  C    6.048553
    96  C    6.015056
    97  C    6.011495
    98  C    6.041911
    99  C    5.995227
   100  C    6.010777
   101  O    8.017387
   102  C    5.995805
   103  N    7.003800
   104  C    6.027442
   105  C    5.987444
   106  C    6.015130
   107  C    5.961451
   108  C    5.997261
   109  C    6.001000
   110  C    6.001908
   111  N    7.007081
   112  C    5.953874
   113  C    5.975386
   114  C    5.996943
   115  C    5.965643
   116  C    5.996822
   117  C    5.986066
   118  O    7.968358
   119  C    5.999397
   120  C    5.993642
   121  O    7.998138
   122  O    7.998617
   123  C    6.002024
   124  H    1.005390
   125  H    1.009152
   126  H    0.991300
   127  H    1.005628
   128  H    1.006752
   129  H    1.004709
   130  H    1.010734
   131  H    0.996106
   132  H    1.004724
   133  H    0.992238
   134  H    1.000173
   135  H    1.003636
   136  H    1.019120
   137  H    1.018773
   138  H    1.016517
   139  H    1.010864
   140  H    1.011951
   141  H    1.006168
   142  H    1.002182
   143  H    0.994854
   144  H    0.996620
   145  H    1.012070
   146  H    1.001604
   147  H    1.003441
   148  H    0.986863
   149  H    1.002405
   150  H    0.995003
   151  H    0.995297
   152  H    0.983666
   153  H    0.985279
   154  H    0.989120
   155  H    0.990481
   156  H    0.998206
   157  H    0.994303
   158  H    0.995974
 Sum of Mulliken charges = 624.00000

 Dipole moment (field-independent basis, Debye):
    X=              8.8827    Y=             -4.9560    Z=             -6.3042  Tot=             11.9669
 Quadrupole moment (field-independent basis, Debye-Ang):
   XX=            -66.0403   YY=              3.3192   ZZ=              3.9284
   XY=             86.8850   XZ=             42.9092   YZ=              5.2445

 Normal termination of Gaussian 16 at Tue Sep 21 16:41:23 2021.
