 Gaussian 16, Revision A.03,
 Gaussian 16:  ES64L-G16RevA.03 25-Dec-2016

 -----------------------------------
 #p cam-b3lyp/Def2SVP td=(nstates=5)
 -----------------------------------

 --------------------------------
 TDDFT excited states in gaussian
 --------------------------------
 Symbolic Z-matrix:
 Charge =  0 Multiplicity = 1

                         Standard orientation:
 ---------------------------------------------------------------------
 Center     Atomic      Atomic             Coordinates (Angstroms)
 Number     Number       Type             X           Y           Z
 ---------------------------------------------------------------------
      1         12           0       14.523436   -0.350542   -0.108136
      2          6           0       10.985979   -1.087532   -0.747558
      3          6           0       14.220929    1.902864   -2.717797
      4          6           0       17.146309    1.053849    1.039948
      5          6           0       14.165890   -2.479940    2.764075
      6          7           0       12.647861    0.418086   -1.503200
      7          6           0       11.345733   -0.023776   -1.589704
      8          6           0       10.561658    0.866001   -2.622319
      9          6           0       11.659965    1.596273   -3.414551
     10          6           0       12.912340    1.296812   -2.505842
     11          6           0       11.959869    1.131064   -4.899989
     12          6           0        9.495527    1.806182   -1.962540
     13          6           0        8.188469    1.968607   -2.708213
     14          1           0        8.004907    3.286770   -3.523881
     15          7           0       15.609938    1.154377   -0.795186
     16          6           0       15.416901    1.901658   -1.925157
     17          6           0       16.515940    2.895572   -2.066726
     18          6           0       17.354077    2.655034   -0.946936
     19          6           0       16.691766    1.618214   -0.159351
     20          6           0       16.648027    3.987168   -3.141289
     21          6           0       18.561656    3.466064   -0.468278
     22          8           0       18.937905    4.389062   -1.185648
     23          6           0       19.288527    3.211690    0.712460
     24          7           0       15.368596   -0.513510    1.830436
     25          6           0       16.635665    0.032200    1.887407
     26          6           0       17.328842   -0.479880    3.208993
     27          6           0       16.221277   -1.362621    3.888329
     28          6           0       15.235600   -1.538642    2.708345
     29          6           0       18.679052   -1.223548    3.016863
     30          6           0       15.530059   -0.837970    5.210934
     31          6           0       16.285709   -1.011461    6.539901
     32          7           0       12.978142   -1.606884    0.863251
     33          6           0       13.049566   -2.485100    1.926084
     34          6           0       11.855048   -3.285799    2.043630
     35          6           0       11.010826   -2.774403    0.988100
     36          6           0       11.673511   -1.702630    0.293993
     37          6           0       11.627418   -4.305427    3.116719
     38          6           0        9.734046   -2.881942    0.438032
     39          8           0        8.743530   -3.491634    0.817921
     40          6           0        9.594102   -1.736269   -0.605789
     41          6           0        9.209222   -2.437058   -1.887793
     42          8           0        8.267456   -2.080955   -2.600435
     43          8           0       10.125017   -3.473785   -2.332240
     44          6           0        9.904201   -3.852626   -3.726960
     45          1           0       14.176531    2.567712   -3.582362
     46          1           0       18.124602    1.307269    1.453671
     47          1           0       14.241960   -3.146687    3.625437
     48          1           0       10.129363    0.212312   -3.381233
     49          1           0       11.533662    2.678354   -3.379363
     50          1           0       11.537338    1.918566   -5.523658
     51          1           0       11.423839    0.213604   -5.141236
     52          1           0       13.005275    0.921272   -5.126057
     53          1           0        9.792579    2.852981   -1.893775
     54          1           0        9.218490    1.431372   -0.976978
     55          1           0        7.389528    1.797607   -1.986696
     56          1           0        8.127428    1.163014   -3.440612
     57          1           0       17.689200    4.073394   -3.453272
     58          1           0       16.246133    4.877416   -2.657651
     59          1           0       16.093427    3.720479   -4.039926
     60          1           0       19.793805    2.252346    0.596399
     61          1           0       18.707130    3.277777    1.632138
     62          1           0       19.934020    4.090039    0.745895
     63          1           0       17.563106    0.314337    3.917031
     64          1           0       16.581799   -2.372849    4.080626
     65          1           0       18.531175   -2.202482    3.473056
     66          1           0       19.450790   -0.673351    3.554295
     67          1           0       18.813128   -1.228732    1.934459
     68          1           0       14.601846   -1.408910    5.251109
     69          1           0       15.371048    0.239662    5.166678
     70          1           0       17.157186   -1.573090    6.202222
     71          1           0       15.756404   -1.690720    7.209665
     72          1           0       16.586475   -0.103970    7.062889
     73          1           0       11.743986   -3.764281    4.054775
     74          1           0       12.400675   -5.072272    3.159190
     75          1           0       10.596628   -4.657811    3.155987
     76          1           0        8.753771   -1.120322   -0.286127
     77          1           0       10.921475   -4.204169   -3.903336
     78          1           0        9.482376   -3.036642   -4.313721
     79          1           0        9.269735   -4.738750   -3.704835
     80         12           0      -13.456843    0.993458    0.138745
     81          6           0      -14.346666   -2.264289   -0.387784
     82          6           0      -10.275710    0.326741   -0.594870
     83          6           0      -12.774629    4.086504    0.906982
     84          6           0      -16.731634    1.441376    1.472038
     85          7           0      -12.366674   -0.837506   -0.272564
     86          6           0      -12.993689   -1.964530   -0.692902
     87          6           0      -12.071934   -2.861814   -1.472596
     88          6           0      -10.691100   -2.118827   -1.267505
     89          6           0      -11.097737   -0.824696   -0.596647
     90          6           0       -9.623291   -2.938759   -0.504316
     91          6           0      -12.547652   -3.140348   -3.026141
     92          6           0      -12.533642   -4.584319   -3.550543
     93          1           0      -11.566879   -5.584136   -2.841577
     94          7           0      -11.864770    2.058797   -0.007864
     95          6           0      -10.603675    1.660808   -0.319222
     96          6           0       -9.624130    2.710395   -0.177486
     97          6           0      -10.354082    3.837117    0.053187
     98          6           0      -11.702851    3.325018    0.448683
     99          6           0       -8.162892    2.314311   -0.284598
    100          6           0       -9.874066    5.299783    0.135728
    101          8           0      -10.591618    6.234067    0.407668
    102          6           0       -8.405590    5.472358   -0.117997
    103          7           0      -14.582206    2.478312    1.226969
    104          6           0      -14.062606    3.718283    1.272250
    105          6           0      -15.074922    4.714843    1.845691
    106          6           0      -16.431839    3.941200    1.727279
    107          6           0      -15.901720    2.512998    1.485484
    108          6           0      -14.816154    5.303711    3.297587
    109          6           0      -17.374219    4.359295    0.536379
    110          6           0      -16.944564    4.294494   -0.905647
    111          7           0      -15.269723   -0.082565    0.433582
    112          6           0      -16.492478    0.174684    1.061943
    113          6           0      -17.373242   -0.999959    1.032921
    114          6           0      -16.566588   -1.992652    0.456632
    115          6           0      -15.329027   -1.356061    0.125881
    116          6           0      -18.815434   -1.098743    1.459358
    117          6           0      -16.494605   -3.328511    0.075146
    118          8           0      -17.267800   -4.268251    0.175919
    119          6           0      -15.162056   -3.512117   -0.696321
    120          6           0      -14.618958   -4.755925   -0.103802
    121          8           0      -14.029687   -4.835587    0.976772
    122          8           0      -14.951821   -5.845959   -0.854624
    123          6           0      -14.772347   -7.189280   -0.294814
    124          1           0       -9.293810    0.118273   -1.025355
    125          1           0      -12.635799    5.144514    1.135714
    126          1           0      -17.707561    1.732871    1.867710
    127          1           0      -11.948763   -3.819216   -0.966209
    128          1           0      -10.301143   -1.827412   -2.242512
    129          1           0       -9.558640   -2.567319    0.518329
    130          1           0       -8.658286   -2.781215   -0.986052
    131          1           0       -9.957023   -3.976266   -0.525444
    132          1           0      -11.874873   -2.533175   -3.631912
    133          1           0      -13.579225   -2.821415   -3.171881
    134          1           0      -12.169973   -4.607918   -4.577471
    135          1           0      -13.552448   -4.968483   -3.599634
    136          1           0       -7.819672    1.601220    0.465099
    137          1           0       -7.376881    3.037579   -0.068233
    138          1           0       -8.116739    1.983618   -1.322217
    139          1           0       -8.130596    5.054273   -1.086049
    140          1           0       -7.972233    5.012525    0.769937
    141          1           0       -8.004534    6.480183   -0.219332
    142          1           0      -14.972024    5.551820    1.154134
    143          1           0      -16.921332    3.945300    2.701431
    144          1           0      -13.888079    4.893322    3.694803
    145          1           0      -15.565023    4.940437    4.000381
    146          1           0      -14.811608    6.391004    3.388134
    147          1           0      -17.598640    5.382597    0.838445
    148          1           0      -18.303314    3.790269    0.527681
    149          1           0      -15.875851    4.082571   -0.958094
    150          1           0      -17.095003    5.257846   -1.392668
    151          1           0      -17.391592    3.506172   -1.510971
    152          1           0      -18.937802   -1.660550    2.384310
    153          1           0      -19.402975   -1.561501    0.666239
    154          1           0      -19.072234   -0.064341    1.689131
    155          1           0      -15.317327   -3.543344   -1.774910
    156          1           0      -15.447813   -7.917094   -0.745956
    157          1           0      -14.752244   -7.178289    0.793873
    158          1           0      -13.771907   -7.584675   -0.469595
 ---------------------------------------------------------------------

 SCF Done:  E(RCAM-B3LYP) =  -4069.75248032     A.U. after   18 cycles

 Excitation energies and oscillator strengths:

 Excited State   1:      Singlet-A      1.7225 eV  719.79 nm  f=0.3676  <S**2>=0.000
     309 -> 315        0.19686
     311 -> 313        0.67922
     309 <- 315        0.11034
 This state for optimization and/or second-order correction.
 Total Energy, E(TD-HF/TD-DFT) =  -4069.68917965
 Copying the excited state density for this state as the 1-particle RhoCI density.

 Excited State   2:      Singlet-A      1.7689 eV  700.90 nm  f=0.3660  <S**2>=0.000
     310 -> 316       -0.19155
     312 -> 314        0.68168
     310 <- 316       -0.10593

 Excited State   3:      Singlet-A      2.2417 eV  553.09 nm  f=0.0695  <S**2>=0.000
     309 -> 313        0.61606
     311 -> 315       -0.33059

 Excited State   4:      Singlet-A      2.2759 eV  544.78 nm  f=0.0577  <S**2>=0.000
     310 -> 314        0.61597
     312 -> 316        0.33775

 Excited State   5:      Singlet-A      2.8307 eV  438.00 nm  f=0.0000  <S**2>=0.000
     312 -> 313        0.70707

 The electronic state is 1-A.
 Alpha  occ. eigenvalues --  -46.90845 -46.87858 -19.23815 -19.23813 -19.20192
 Alpha  occ. eigenvalues --  -19.19835 -19.18864 -19.18238 -19.17959 -19.17554
 Alpha  occ. eigenvalues --  -14.42801 -14.42097 -14.41607 -14.40963 -14.40893
 Alpha  occ. eigenvalues --  -14.39901 -14.39224 -14.38652 -10.39492 -10.38154
 Alpha  occ. eigenvalues --  -10.35864 -10.35008 -10.33599 -10.33449 -10.32392
 Alpha  occ. eigenvalues --  -10.31973 -10.31676 -10.31611 -10.31448 -10.31089
 Alpha  occ. eigenvalues --  -10.30880 -10.30732 -10.30559 -10.30481 -10.30348
 Alpha  occ. eigenvalues --  -10.30151 -10.30035 -10.29736 -10.29477 -10.29324
 Alpha  occ. eigenvalues --  -10.29010 -10.29002 -10.28935 -10.28921 -10.28869
 Alpha  occ. eigenvalues --  -10.28824 -10.28618 -10.28611 -10.28475 -10.28451
 Alpha  occ. eigenvalues --  -10.28421 -10.28299 -10.28134 -10.27963 -10.27750
 Alpha  occ. eigenvalues --  -10.27715 -10.27712 -10.27654 -10.27621 -10.27542
 Alpha  occ. eigenvalues --  -10.27507 -10.27474 -10.27421 -10.27372 -10.27228
 Alpha  occ. eigenvalues --  -10.27140 -10.27075 -10.26932 -10.26919 -10.26917
 Alpha  occ. eigenvalues --  -10.26735 -10.26714 -10.26413 -10.26390 -10.26308
 Alpha  occ. eigenvalues --  -10.26261 -10.26184 -10.25959 -10.25908 -10.25904
 Alpha  occ. eigenvalues --  -10.25814 -10.25467 -10.25320 -10.25138 -10.24959
 Alpha  occ. eigenvalues --  -10.23961  -3.19255  -3.16713  -1.94100  -1.93763
 Alpha  occ. eigenvalues --   -1.93521  -1.91578  -1.91182  -1.91046  -1.14743
 Alpha  occ. eigenvalues --   -1.14047  -1.11429  -1.10532  -1.09074  -1.08905
 Alpha  occ. eigenvalues --   -1.06450  -1.05821  -1.05487  -1.05115  -1.04597
 Alpha  occ. eigenvalues --   -1.04016  -1.03448  -1.03431  -1.02898  -1.01168
 Alpha  occ. eigenvalues --   -0.92978  -0.92241  -0.89526  -0.89101  -0.89030
 Alpha  occ. eigenvalues --   -0.88587  -0.88325  -0.87912  -0.87866  -0.87367
 Alpha  occ. eigenvalues --   -0.87077  -0.87012  -0.86461  -0.86015  -0.85107
 Alpha  occ. eigenvalues --   -0.84267  -0.83948  -0.83785  -0.83494  -0.82625
 Alpha  occ. eigenvalues --   -0.82608  -0.82500  -0.81241  -0.80964  -0.80425
 Alpha  occ. eigenvalues --   -0.79973  -0.78914  -0.78340  -0.77439  -0.77372
 Alpha  occ. eigenvalues --   -0.77141  -0.76880  -0.75925  -0.75593  -0.75360
 Alpha  occ. eigenvalues --   -0.75116  -0.72926  -0.72543  -0.72012  -0.71586
 Alpha  occ. eigenvalues --   -0.69554  -0.69224  -0.68926  -0.68681  -0.68048
 Alpha  occ. eigenvalues --   -0.67811  -0.67213  -0.67112  -0.65672  -0.65461
 Alpha  occ. eigenvalues --   -0.65307  -0.65136  -0.64883  -0.64643  -0.64116
 Alpha  occ. eigenvalues --   -0.63664  -0.62007  -0.61615  -0.61013  -0.60468
 Alpha  occ. eigenvalues --   -0.59901  -0.59363  -0.59213  -0.59184  -0.59007
 Alpha  occ. eigenvalues --   -0.57828  -0.57702  -0.57456  -0.57253  -0.57082
 Alpha  occ. eigenvalues --   -0.56861  -0.56203  -0.55696  -0.55217  -0.55017
 Alpha  occ. eigenvalues --   -0.54880  -0.54583  -0.54413  -0.54310  -0.54034
 Alpha  occ. eigenvalues --   -0.53871  -0.53643  -0.53524  -0.53392  -0.53110
 Alpha  occ. eigenvalues --   -0.52976  -0.52577  -0.52523  -0.52513  -0.52329
 Alpha  occ. eigenvalues --   -0.52210  -0.52099  -0.51842  -0.51527  -0.51527
 Alpha  occ. eigenvalues --   -0.51157  -0.51110  -0.50698  -0.50515  -0.50356
 Alpha  occ. eigenvalues --   -0.50136  -0.49979  -0.49957  -0.49597  -0.49397
 Alpha  occ. eigenvalues --   -0.49225  -0.49218  -0.49045  -0.48993  -0.48720
 Alpha  occ. eigenvalues --   -0.48679  -0.48476  -0.48474  -0.48256  -0.48047
 Alpha  occ. eigenvalues --   -0.47963  -0.47917  -0.47834  -0.47676  -0.47365
 Alpha  occ. eigenvalues --   -0.47066  -0.46821  -0.46701  -0.46627  -0.46550
 Alpha  occ. eigenvalues --   -0.46418  -0.46239  -0.45992  -0.45612  -0.45456
 Alpha  occ. eigenvalues --   -0.45390  -0.45154  -0.45054  -0.44773  -0.44729
 Alpha  occ. eigenvalues --   -0.44572  -0.44429  -0.44409  -0.44195  -0.44017
 Alpha  occ. eigenvalues --   -0.43890  -0.43810  -0.43731  -0.43679  -0.43364
 Alpha  occ. eigenvalues --   -0.43283  -0.43084  -0.42805  -0.42741  -0.42646
 Alpha  occ. eigenvalues --   -0.42538  -0.42403  -0.42334  -0.42146  -0.42042
 Alpha  occ. eigenvalues --   -0.42029  -0.41744  -0.41586  -0.41469  -0.41438
 Alpha  occ. eigenvalues --   -0.41151  -0.40970  -0.40641  -0.40420  -0.40346
 Alpha  occ. eigenvalues --   -0.40323  -0.40037  -0.39483  -0.39412  -0.39112
 Alpha  occ. eigenvalues --   -0.38944  -0.38380  -0.38099  -0.37945  -0.37618
 Alpha  occ. eigenvalues --   -0.37268  -0.36894  -0.36446  -0.36347  -0.36173
 Alpha  occ. eigenvalues --   -0.35469  -0.35052  -0.34576  -0.34261  -0.33946
 Alpha  occ. eigenvalues --   -0.33290  -0.33178  -0.32840  -0.32392  -0.31830
 Alpha  occ. eigenvalues --   -0.31483  -0.31261  -0.31124  -0.30617  -0.30250
 Alpha  occ. eigenvalues --   -0.29994  -0.29614  -0.28829  -0.24554  -0.23713
 Alpha  occ. eigenvalues --   -0.21543  -0.20509
 Alpha virt. eigenvalues --   -0.08874  -0.07727  -0.02786  -0.01652  -0.00449
 Alpha virt. eigenvalues --    0.00324   0.00500   0.02085   0.02374   0.03121
 Alpha virt. eigenvalues --    0.04289   0.04715   0.05135   0.05360   0.06213

 Mulliken charges:
               1
     1  Mg   0.834499
     2  C   -0.008397
     3  C   -0.051089
     4  C   -0.074853
     5  C   -0.087825
     6  N   -0.224628
     7  C   -0.070949
     8  C    0.059316
     9  C   -0.071698
    10  C   -0.036565
    11  C    0.062148
    12  C    0.059800
    13  C   -0.072076
    14  H    0.007532
    15  N   -0.409487
    16  C    0.147899
    17  C   -0.174482
    18  C   -0.015269
    19  C    0.192195
    20  C    0.144586
    21  C   -0.033250
    22  O   -0.215631
    23  C    0.089217
    24  N   -0.319255
    25  C    0.023122
    26  C   -0.073004
    27  C   -0.047479
    28  C    0.019179
    29  C    0.084278
    30  C    0.042782
    31  C    0.012918
    32  N   -0.344548
    33  C    0.143187
    34  C   -0.151017
    35  C    0.030845
    36  C    0.129251
    37  C    0.139480
    38  C   -0.006525
    39  O   -0.179987
    40  C   -0.020511
    41  C    0.217725
    42  O   -0.226709
    43  O   -0.389897
    44  C    0.179630
    45  H   -0.026366
    46  H   -0.046805
    47  H   -0.027676
    48  H    0.012146
    49  H    0.017769
    50  H    0.026200
    51  H    0.015237
    52  H    0.029017
    53  H    0.025188
    54  H    0.019034
    55  H    0.034059
    56  H    0.030203
    57  H    0.044915
    58  H    0.045436
    59  H    0.008968
    60  H    0.054078
    61  H    0.041946
    62  H    0.028176
    63  H    0.008540
    64  H   -0.003813
    65  H    0.016967
    66  H    0.020169
    67  H    0.021295
    68  H    0.004865
    69  H    0.011193
    70  H   -0.004442
    71  H    0.017555
    72  H    0.028288
    73  H    0.012515
    74  H    0.025165
    75  H    0.037603
    76  H    0.040249
    77  H    0.031688
    78  H    0.052644
    79  H    0.033538
    80  Mg   0.850508
    81  C    0.012170
    82  C   -0.109336
    83  C   -0.070446
    84  C   -0.108868
    85  N   -0.257972
    86  C   -0.051815
    87  C   -0.000877
    88  C   -0.101454
    89  C    0.045337
    90  C    0.094690
    91  C    0.048935
    92  C   -0.072607
    93  H    0.013266
    94  N   -0.419512
    95  C    0.163693
    96  C   -0.108780
    97  C   -0.091301
    98  C    0.161916
    99  C    0.093950
   100  C    0.026157
   101  O   -0.168608
   102  C    0.036216
   103  N   -0.251382
   104  C    0.003097
   105  C   -0.036971
   106  C    0.002012
   107  C   -0.034623
   108  C    0.070333
   109  C    0.035445
   110  C    0.008554
   111  N   -0.312628
   112  C    0.155317
   113  C   -0.183237
   114  C    0.078770
   115  C    0.062694
   116  C    0.144281
   117  C   -0.022537
   118  O   -0.177730
   119  C    0.001714
   120  C    0.195362
   121  O   -0.239376
   122  O   -0.323732
   123  C    0.190493
   124  H   -0.032635
   125  H   -0.010658
   126  H   -0.035231
   127  H    0.022086
   128  H    0.005991
   129  H    0.023519
   130  H    0.017016
   131  H    0.025046
   132  H    0.008993
   133  H    0.017982
   134  H    0.025935
   135  H    0.039904
   136  H    0.037735
   137  H    0.007717
   138  H    0.045355
   139  H    0.040811
   140  H    0.049337
   141  H    0.021195
   142  H    0.008422
   143  H    0.002425
   144  H    0.016739
   145  H    0.004972
   146  H    0.028077
   147  H    0.006417
   148  H    0.007548
   149  H    0.009954
   150  H    0.017771
   151  H    0.021314
   152  H    0.036186
   153  H    0.041439
   154  H   -0.001669
   155  H    0.044002
   156  H    0.042763
   157  H    0.040265
   158  H    0.012159
 Sum of Mulliken charges =  -0.00000

 Dipole moment (field-independent basis, Debye):
    X=              9.3276    Y=              2.8598    Z=             -2.0563  Tot=              9.9705
 Quadrupole moment (field-independent basis, Debye-Ang):
   XX=           -482.8583   YY=           -540.5233   ZZ=           -480.8352
   XY=            -81.6440   XZ=             57.5415   YZ=             13.1847

 Normal termination of Gaussian 16 at Thu Sep  2 12:02:27 2021.
