 Gaussian 16, Revision A.03,
 Gaussian 16:  ES64L-G16RevA.03 25-Dec-2016

 -----------------------------------
 #p cam-b3lyp/Def2SVP td=(nstates=5)
 -----------------------------------

 --------------------------------
 TDDFT excited states in gaussian
 --------------------------------
 Symbolic Z-matrix:
 Charge =  0 Multiplicity = 1

                         Standard orientation:
 ---------------------------------------------------------------------
 Center     Atomic      Atomic             Coordinates (Angstroms)
 Number     Number       Type             X           Y           Z
 ---------------------------------------------------------------------
      1         12           0      -14.264178    0.921629    0.184592
      2          6           0      -14.726798   -2.592771   -0.312596
      3          6           0      -10.926225    0.286864    0.497975
      4          6           0      -13.884061    3.941722    1.074070
      5          6           0      -17.657952    1.109706    0.954389
      6          7           0      -13.095999   -0.956091    0.083741
      7          6           0      -13.385970   -2.227945   -0.172141
      8          6           0      -12.124904   -3.124949   -0.352345
      9          6           0      -11.076031   -2.253573    0.473832
     10          6           0      -11.716852   -0.886199    0.313951
     11          6           0      -11.028311   -2.603176    1.957747
     12          6           0      -11.700997   -3.260044   -1.853605
     13          6           0      -10.688113   -4.370018   -2.149202
     14          1           0      -10.793256   -5.097770   -3.404857
     15          7           0      -12.642387    2.048731    0.232347
     16          6           0      -11.362053    1.621079    0.346998
     17          6           0      -10.523027    2.838689    0.335099
     18          6           0      -11.431106    4.017615    0.395278
     19          6           0      -12.704060    3.374510    0.598704
     20          6           0       -9.029564    2.807774    0.223916
     21          6           0      -11.188542    5.490594    0.297164
     22          8           0      -12.083621    6.349424    0.606709
     23          6           0       -9.829172    5.908080   -0.091244
     24          7           0      -15.525207    2.294908    1.123498
     25          6           0      -15.133370    3.555184    1.340648
     26          6           0      -16.284775    4.420479    1.759536
     27          6           0      -17.599636    3.539400    1.548360
     28          6           0      -16.928730    2.218811    1.096474
     29          6           0      -16.243008    4.936719    3.204445
     30          6           0      -18.714752    4.142566    0.657785
     31          6           0      -18.235335    4.233626   -0.773636
     32          7           0      -15.958584   -0.434038    0.137677
     33          6           0      -17.276632   -0.149904    0.523284
     34          6           0      -18.038425   -1.407889    0.417395
     35          6           0      -17.100705   -2.346196   -0.009343
     36          6           0      -15.827709   -1.720154   -0.135214
     37          6           0      -19.409276   -1.583010    0.755824
     38          6           0      -16.872732   -3.737490   -0.364572
     39          8           0      -17.597235   -4.719538   -0.532409
     40          6           0      -15.301619   -3.979874   -0.457748
     41          6           0      -15.031445   -4.722567   -1.737874
     42          8           0      -15.223288   -4.179785   -2.845100
     43          8           0      -14.370975   -5.857654   -1.462377
     44          6           0      -14.045808   -6.628078   -2.692364
     45          1           0       -9.897032    0.180424    0.846360
     46          1           0      -13.822076    5.010927    1.287129
     47          1           0      -18.740133    1.110189    1.096999
     48          1           0      -12.208667   -4.119988    0.085038
     49          1           0      -10.087299   -2.264611    0.015563
     50          1           0      -11.816738   -3.305866    2.227058
     51          1           0      -11.164551   -1.658162    2.483941
     52          1           0      -10.038311   -2.962893    2.239316
     53          1           0      -11.111118   -2.389449   -2.140255
     54          1           0      -12.575947   -3.391228   -2.491242
     55          1           0      -10.600850   -5.063234   -1.312097
     56          1           0       -9.699702   -3.917649   -2.230476
     57          1           0       -8.638246    1.800984    0.364587
     58          1           0       -8.635644    3.372773    1.068494
     59          1           0       -8.678302    3.248577   -0.709165
     60          1           0       -9.112417    5.517132    0.631231
     61          1           0       -9.866113    6.991731   -0.197005
     62          1           0       -9.579482    5.450700   -1.049057
     63          1           0      -16.349353    5.313041    1.138578
     64          1           0      -18.101434    3.320983    2.491317
     65          1           0      -16.287189    6.023290    3.282657
     66          1           0      -15.341065    4.547082    3.675585
     67          1           0      -17.018653    4.535042    3.855942
     68          1           0      -18.952302    5.155339    0.981524
     69          1           0      -19.638473    3.564004    0.673842
     70          1           0      -17.679618    5.170578   -0.785093
     71          1           0      -19.084051    4.274707   -1.457159
     72          1           0      -17.532035    3.434735   -1.009494
     73          1           0      -19.844729   -2.188533   -0.038966
     74          1           0      -19.919773   -0.624687    0.848626
     75          1           0      -19.317051   -2.101146    1.710228
     76          1           0      -15.021589   -4.561561    0.419945
     77          1           0      -14.463187   -7.626999   -2.565148
     78          1           0      -12.968250   -6.544296   -2.834677
     79          1           0      -14.547662   -6.310301   -3.606968
     80         12           0       15.121144   -0.228761   -0.193009
     81          6           0       11.672999   -1.211769   -0.327913
     82          6           0       14.084701    2.641309   -2.049985
     83          6           0       17.937164    1.412344    0.622875
     84          6           0       15.647844   -2.658158    2.155805
     85          7           0       13.116639    0.580583   -1.020898
     86          6           0       11.878173    0.009626   -0.979799
     87          6           0       10.806100    0.885771   -1.717065
     88          6           0       11.746803    1.867970   -2.566275
     89          6           0       13.041331    1.742878   -1.778779
     90          6           0       11.960075    1.453157   -4.004017
     91          6           0        9.774847    1.494366   -0.781245
     92          6           0        8.288925    1.443188   -1.222197
     93          1           0        7.576554    2.724987   -1.860459
     94          7           0       15.991333    1.769867   -0.735418
     95          6           0       15.409654    2.730439   -1.588940
     96          6           0       16.356602    3.838399   -1.764496
     97          6           0       17.528658    3.450050   -1.003428
     98          6           0       17.174281    2.249664   -0.277056
     99          6           0       16.134004    5.094958   -2.518771
    100          6           0       18.845652    4.184891   -1.006271
    101          8           0       18.999113    5.078030   -1.808755
    102          6           0       19.999181    3.874055   -0.080633
    103          7           0       16.451376   -0.544577    1.246797
    104          6           0       17.625020    0.203829    1.262090
    105          6           0       18.519004   -0.371419    2.363079
    106          6           0       17.878282   -1.771766    2.681579
    107          6           0       16.586850   -1.673540    1.941964
    108          6           0       20.073316   -0.394236    2.123519
    109          6           0       17.741631   -2.194323    4.176583
    110          6           0       18.340774   -3.497707    4.593939
    111          7           0       14.005228   -1.721870    0.659049
    112          6           0       14.365841   -2.708182    1.560462
    113          6           0       13.305228   -3.728127    1.672123
    114          6           0       12.202951   -3.102266    0.970389
    115          6           0       12.699126   -1.918700    0.415378
    116          6           0       13.293480   -5.044456    2.403757
    117          6           0       10.775544   -3.307720    0.585283
    118          8           0        9.998167   -4.162467    0.902058
    119          6           0       10.391503   -2.032888   -0.158824
    120          6           0        9.835564   -2.431883   -1.493163
    121          8           0       10.571523   -2.959666   -2.299045
    122          8           0        8.480746   -2.059614   -1.744010
    123          6           0        7.979727   -2.264350   -3.136974
    124          1           0       13.820488    3.507397   -2.660605
    125          1           0       18.894245    1.797968    0.978094
    126          1           0       15.923832   -3.525343    2.758866
    127          1           0       10.292471    0.325350   -2.497700
    128          1           0       11.425031    2.905291   -2.474687
    129          1           0       12.727089    0.679396   -4.027562
    130          1           0       12.222300    2.352880   -4.560475
    131          1           0       11.131937    0.999085   -4.549170
    132          1           0       10.025294    2.552208   -0.707800
    133          1           0        9.969041    1.112209    0.220890
    134          1           0        7.771389    1.172707   -0.301504
    135          1           0        8.078370    0.651158   -1.940950
    136          1           0       16.601037    4.950345   -3.492503
    137          1           0       16.711139    5.895703   -2.056258
    138          1           0       15.123327    5.478292   -2.664117
    139          1           0       20.837447    4.568715   -0.130362
    140          1           0       20.360956    2.892974   -0.388609
    141          1           0       19.809518    3.744366    0.984233
    142          1           0       18.406605    0.380055    3.145125
    143          1           0       18.402664   -2.523845    2.092843
    144          1           0       20.299446   -0.318196    1.059608
    145          1           0       20.516811   -1.278139    2.581557
    146          1           0       20.546099    0.435407    2.648677
    147          1           0       16.684424   -2.205218    4.441515
    148          1           0       18.126901   -1.369754    4.776231
    149          1           0       17.541236   -4.217874    4.766446
    150          1           0       18.879008   -3.367930    5.532757
    151          1           0       19.033431   -3.978975    3.903838
    152          1           0       12.531227   -5.710196    1.999479
    153          1           0       13.104121   -4.811581    3.451993
    154          1           0       14.306419   -5.446698    2.379538
    155          1           0        9.727196   -1.464138    0.491982
    156          1           0        7.730746   -3.316627   -3.275226
    157          1           0        8.757402   -2.040379   -3.866844
    158          1           0        7.122447   -1.622229   -3.338176
 ---------------------------------------------------------------------

 SCF Done:  E(RCAM-B3LYP) =  -4069.81289941     A.U. after   17 cycles

 Excitation energies and oscillator strengths:

 Excited State   1:      Singlet-A      1.6713 eV  741.83 nm  f=0.4022  <S**2>=0.000
     309 -> 316        0.16936
     311 -> 313        0.68865
     309 <- 316        0.10663
 This state for optimization and/or second-order correction.
 Total Energy, E(TD-HF/TD-DFT) =  -4069.75147962
 Copying the excited state density for this state as the 1-particle RhoCI density.

 Excited State   2:      Singlet-A      1.6798 eV  738.08 nm  f=0.3870  <S**2>=0.000
     310 -> 315       -0.17550
     312 -> 314        0.68568
     310 <- 315       -0.10510

 Excited State   3:      Singlet-A      2.1925 eV  565.50 nm  f=0.0997  <S**2>=0.000
     310 -> 314        0.64070
     312 -> 315        0.27822

 Excited State   4:      Singlet-A      2.2359 eV  554.51 nm  f=0.1280  <S**2>=0.000
     309 -> 313        0.64113
     311 -> 316       -0.28145

 Excited State   5:      Singlet-A      2.9465 eV  420.79 nm  f=0.0000  <S**2>=0.000
     312 -> 313        0.70708

 The electronic state is 1-A.
 Alpha  occ. eigenvalues --  -46.89403 -46.87762 -19.26247 -19.25363 -19.20826
 Alpha  occ. eigenvalues --  -19.19815 -19.18983 -19.18783 -19.18135 -19.18054
 Alpha  occ. eigenvalues --  -14.42840 -14.42414 -14.41792 -14.41415 -14.39417
 Alpha  occ. eigenvalues --  -14.39369 -14.39235 -14.38552 -10.40318 -10.39043
 Alpha  occ. eigenvalues --  -10.35497 -10.35416 -10.34582 -10.34355 -10.32380
 Alpha  occ. eigenvalues --  -10.31641 -10.31462 -10.31378 -10.31369 -10.30873
 Alpha  occ. eigenvalues --  -10.30779 -10.30589 -10.30535 -10.30474 -10.30359
 Alpha  occ. eigenvalues --  -10.30310 -10.30173 -10.29887 -10.29597 -10.29570
 Alpha  occ. eigenvalues --  -10.29340 -10.29220 -10.29184 -10.28928 -10.28745
 Alpha  occ. eigenvalues --  -10.28718 -10.28710 -10.28634 -10.28496 -10.28330
 Alpha  occ. eigenvalues --  -10.28129 -10.28084 -10.28077 -10.27881 -10.27759
 Alpha  occ. eigenvalues --  -10.27691 -10.27671 -10.27551 -10.27469 -10.27446
 Alpha  occ. eigenvalues --  -10.27418 -10.27368 -10.27301 -10.27122 -10.27087
 Alpha  occ. eigenvalues --  -10.27020 -10.26665 -10.26636 -10.26600 -10.26589
 Alpha  occ. eigenvalues --  -10.26572 -10.26390 -10.26379 -10.26192 -10.26154
 Alpha  occ. eigenvalues --  -10.26134 -10.25986 -10.25957 -10.25811 -10.25799
 Alpha  occ. eigenvalues --  -10.25613 -10.25444 -10.25405 -10.24798 -10.24754
 Alpha  occ. eigenvalues --  -10.24657  -3.17972  -3.16505  -1.92821  -1.92433
 Alpha  occ. eigenvalues --   -1.92280  -1.91387  -1.90973  -1.90815  -1.16596
 Alpha  occ. eigenvalues --   -1.15468  -1.11816  -1.10284  -1.08593  -1.07970
 Alpha  occ. eigenvalues --   -1.07184  -1.06606  -1.04672  -1.04545  -1.03726
 Alpha  occ. eigenvalues --   -1.03658  -1.03200  -1.02858  -1.02377  -1.01590
 Alpha  occ. eigenvalues --   -0.92842  -0.91937  -0.89487  -0.89481  -0.89149
 Alpha  occ. eigenvalues --   -0.88975  -0.88534  -0.88254  -0.87836  -0.87699
 Alpha  occ. eigenvalues --   -0.87637  -0.87240  -0.86309  -0.85728  -0.84945
 Alpha  occ. eigenvalues --   -0.84577  -0.84034  -0.83904  -0.82935  -0.82612
 Alpha  occ. eigenvalues --   -0.82579  -0.81919  -0.81550  -0.80642  -0.80561
 Alpha  occ. eigenvalues --   -0.80290  -0.78763  -0.78243  -0.77570  -0.77184
 Alpha  occ. eigenvalues --   -0.76898  -0.76884  -0.76442  -0.75886  -0.75304
 Alpha  occ. eigenvalues --   -0.74865  -0.72740  -0.72728  -0.71861  -0.71637
 Alpha  occ. eigenvalues --   -0.69875  -0.69621  -0.69026  -0.68836  -0.68013
 Alpha  occ. eigenvalues --   -0.67607  -0.67183  -0.66796  -0.66019  -0.65249
 Alpha  occ. eigenvalues --   -0.65184  -0.64819  -0.64624  -0.64585  -0.64400
 Alpha  occ. eigenvalues --   -0.64236  -0.62419  -0.62262  -0.60409  -0.59878
 Alpha  occ. eigenvalues --   -0.59767  -0.59646  -0.59273  -0.59157  -0.58953
 Alpha  occ. eigenvalues --   -0.58469  -0.58409  -0.57724  -0.57549  -0.57275
 Alpha  occ. eigenvalues --   -0.56612  -0.56275  -0.55942  -0.55747  -0.55517
 Alpha  occ. eigenvalues --   -0.55486  -0.55306  -0.54489  -0.54415  -0.53960
 Alpha  occ. eigenvalues --   -0.53856  -0.53456  -0.53265  -0.53186  -0.53170
 Alpha  occ. eigenvalues --   -0.53034  -0.52880  -0.52721  -0.52407  -0.52327
 Alpha  occ. eigenvalues --   -0.51919  -0.51882  -0.51805  -0.51580  -0.51408
 Alpha  occ. eigenvalues --   -0.51178  -0.51161  -0.51010  -0.50539  -0.50511
 Alpha  occ. eigenvalues --   -0.50022  -0.49999  -0.49960  -0.49884  -0.49828
 Alpha  occ. eigenvalues --   -0.49479  -0.49377  -0.49186  -0.49180  -0.49058
 Alpha  occ. eigenvalues --   -0.48781  -0.48677  -0.48557  -0.48429  -0.48411
 Alpha  occ. eigenvalues --   -0.48275  -0.47765  -0.47660  -0.47262  -0.47165
 Alpha  occ. eigenvalues --   -0.47056  -0.46762  -0.46517  -0.46504  -0.46470
 Alpha  occ. eigenvalues --   -0.46325  -0.46261  -0.46137  -0.46129  -0.46058
 Alpha  occ. eigenvalues --   -0.45908  -0.45787  -0.45340  -0.45169  -0.45046
 Alpha  occ. eigenvalues --   -0.44747  -0.44543  -0.44472  -0.44111  -0.44051
 Alpha  occ. eigenvalues --   -0.43984  -0.43858  -0.43701  -0.43532  -0.43459
 Alpha  occ. eigenvalues --   -0.43384  -0.43350  -0.42992  -0.42977  -0.42718
 Alpha  occ. eigenvalues --   -0.42664  -0.42631  -0.42621  -0.42525  -0.41996
 Alpha  occ. eigenvalues --   -0.41975  -0.41669  -0.41624  -0.41496  -0.41197
 Alpha  occ. eigenvalues --   -0.41105  -0.40921  -0.40833  -0.40789  -0.40652
 Alpha  occ. eigenvalues --   -0.40538  -0.40344  -0.40195  -0.39409  -0.39364
 Alpha  occ. eigenvalues --   -0.38568  -0.38435  -0.37787  -0.37710  -0.37425
 Alpha  occ. eigenvalues --   -0.37287  -0.37258  -0.37227  -0.36678  -0.36593
 Alpha  occ. eigenvalues --   -0.36157  -0.35917  -0.35144  -0.34482  -0.34251
 Alpha  occ. eigenvalues --   -0.33734  -0.33264  -0.33152  -0.31693  -0.31313
 Alpha  occ. eigenvalues --   -0.31191  -0.31001  -0.30565  -0.29994  -0.29756
 Alpha  occ. eigenvalues --   -0.29415  -0.29288  -0.28818  -0.24388  -0.24046
 Alpha  occ. eigenvalues --   -0.21206  -0.21093
 Alpha virt. eigenvalues --   -0.09067  -0.08740  -0.01716  -0.01577  -0.00024
 Alpha virt. eigenvalues --    0.00387   0.01164   0.02234   0.02556   0.03155
 Alpha virt. eigenvalues --    0.04285   0.04300   0.04755   0.05135   0.05520

 Mulliken charges:
               1
     1  Mg   0.838749
     2  C   -0.002945
     3  C   -0.094107
     4  C   -0.045888
     5  C   -0.063979
     6  N   -0.256782
     7  C   -0.052472
     8  C   -0.014004
     9  C   -0.086993
    10  C    0.046315
    11  C    0.104784
    12  C    0.053457
    13  C   -0.071829
    14  H    0.036125
    15  N   -0.433146
    16  C    0.168404
    17  C   -0.177132
    18  C   -0.004022
    19  C    0.148727
    20  C    0.110163
    21  C    0.012286
    22  O   -0.249654
    23  C    0.062482
    24  N   -0.341127
    25  C    0.041253
    26  C   -0.028183
    27  C   -0.023969
    28  C    0.074836
    29  C    0.076182
    30  C    0.035148
    31  C   -0.004501
    32  N   -0.310473
    33  C    0.080411
    34  C   -0.169730
    35  C    0.008345
    36  C    0.082979
    37  C    0.127314
    38  C    0.046112
    39  O   -0.188462
    40  C   -0.005345
    41  C    0.212909
    42  O   -0.257128
    43  O   -0.304790
    44  C    0.157694
    45  H   -0.017522
    46  H   -0.016863
    47  H   -0.041528
    48  H    0.000972
    49  H   -0.003974
    50  H    0.025471
    51  H    0.016429
    52  H    0.016791
    53  H    0.011184
    54  H    0.044100
    55  H    0.017942
    56  H    0.017989
    57  H    0.005946
    58  H    0.026852
    59  H    0.039510
    60  H    0.037365
    61  H    0.035610
    62  H    0.031484
    63  H    0.016534
    64  H    0.009436
    65  H    0.023179
    66  H    0.012562
    67  H    0.004731
    68  H    0.006329
    69  H    0.004706
    70  H    0.008768
    71  H    0.018123
    72  H    0.029009
    73  H    0.047549
    74  H    0.009080
    75  H    0.045995
    76  H    0.035173
    77  H    0.042943
    78  H    0.046446
    79  H    0.053667
    80  Mg   0.850218
    81  C   -0.068720
    82  C   -0.046586
    83  C   -0.070077
    84  C   -0.117697
    85  N   -0.248509
    86  C   -0.056142
    87  C   -0.029343
    88  C   -0.067525
    89  C    0.027852
    90  C    0.088679
    91  C    0.079574
    92  C   -0.054136
    93  H    0.008437
    94  N   -0.346075
    95  C    0.095344
    96  C   -0.125906
    97  C   -0.029088
    98  C    0.139858
    99  C    0.130493
   100  C   -0.009010
   101  O   -0.204349
   102  C    0.048497
   103  N   -0.372397
   104  C    0.069226
   105  C   -0.081073
   106  C    0.022213
   107  C    0.057860
   108  C    0.063521
   109  C    0.049671
   110  C    0.008693
   111  N   -0.354554
   112  C    0.126900
   113  C   -0.180974
   114  C   -0.064060
   115  C    0.147745
   116  C    0.135407
   117  C    0.053021
   118  O   -0.136492
   119  C    0.059743
   120  C    0.212839
   121  O   -0.206709
   122  O   -0.375370
   123  C    0.175428
   124  H   -0.030886
   125  H   -0.056583
   126  H   -0.037254
   127  H    0.003879
   128  H    0.001815
   129  H    0.022079
   130  H    0.020406
   131  H    0.014300
   132  H    0.012563
   133  H    0.016719
   134  H    0.032445
   135  H    0.027131
   136  H    0.030909
   137  H    0.030899
   138  H    0.014427
   139  H    0.024215
   140  H    0.029801
   141  H    0.037098
   142  H    0.024867
   143  H    0.007201
   144  H    0.023832
   145  H    0.015882
   146  H    0.009161
   147  H    0.014380
   148  H   -0.000332
   149  H    0.015684
   150  H    0.013807
   151  H    0.015254
   152  H    0.047832
   153  H    0.030535
   154  H    0.013139
   155  H    0.041844
   156  H    0.044600
   157  H    0.034937
   158  H    0.046984
 Sum of Mulliken charges =  -0.00000

 Dipole moment (field-independent basis, Debye):
    X=              5.8200    Y=              0.2593    Z=              2.6445  Tot=              6.3979
 Quadrupole moment (field-independent basis, Debye-Ang):
   XX=           -556.2464   YY=           -551.8708   ZZ=           -501.5043
   XY=            -73.1382   XZ=             11.4170   YZ=             -0.9239

 Normal termination of Gaussian 16 at Wed Sep  1 15:01:31 2021.
