 Gaussian 16, Revision A.03,
 Gaussian 16:  ES64L-G16RevA.03 25-Dec-2016

 -----------------------------------------------------
 #p cam-b3lyp/Def2SVP td=(nstates=5) density=(current)
 -----------------------------------------------------

 --------------------------------
 TDDFT excited states in gaussian
 --------------------------------
 Symbolic Z-matrix:
 Charge =  0 Multiplicity = 1

                         Standard orientation:
 ---------------------------------------------------------------------
 Center     Atomic      Atomic             Coordinates (Angstroms)
 Number     Number       Type             X           Y           Z
 ---------------------------------------------------------------------
      1         12           0        0.786632    0.073427   -0.441471
      2          6           0       -2.803923    0.236664   -0.196400
      3          6           0        0.596712   -3.260881   -0.487476
      4          6           0        4.071019    0.027316    0.222928
      5          6           0        0.798236    3.540143    0.093321
      6          7           0       -0.888493   -1.306878   -0.298210
      7          6           0       -2.266850   -1.052684   -0.400227
      8          6           0       -3.080529   -2.382558   -0.632436
      9          6           0       -1.957809   -3.463631   -0.651057
     10          6           0       -0.654294   -2.630740   -0.526413
     11          6           0       -2.030985   -4.555589    0.385897
     12          6           0       -4.017226   -2.322640   -1.954646
     13          6           0       -5.491355   -2.680183   -1.728251
     14          1           0       -5.996968   -3.889975   -2.598950
     15          7           0        2.175929   -1.422454   -0.306979
     16          6           0        1.927253   -2.735547   -0.340662
     17          6           0        3.151474   -3.520430   -0.172318
     18          6           0        4.150621   -2.532304    0.131417
     19          6           0        3.488607   -1.226631    0.041749
     20          6           0        3.193431   -4.985146   -0.267587
     21          6           0        5.607942   -2.878985    0.570558
     22          8           0        6.448928   -2.015796    0.758152
     23          6           0        6.081898   -4.283690    0.766883
     24          7           0        2.166644    1.535903    0.061702
     25          6           0        3.527978    1.271262    0.166187
     26          6           0        4.341282    2.590848    0.374541
     27          6           0        3.303104    3.705253   -0.023725
     28          6           0        2.009063    2.891781   -0.014571
     29          6           0        5.096082    2.776898    1.731034
     30          6           0        3.559835    4.345997   -1.415204
     31          6           0        3.343785    5.829147   -1.580450
     32          7           0       -0.672435    1.597779   -0.064179
     33          6           0       -0.504495    2.939615    0.128786
     34          6           0       -1.880638    3.603151    0.156644
     35          6           0       -2.796178    2.593619   -0.017601
     36          6           0       -2.020602    1.385187   -0.076246
     37          6           0       -2.063785    5.101392    0.241349
     38          6           0       -4.198564    2.228194   -0.108582
     39          8           0       -5.139744    3.047324   -0.056561
     40          6           0       -4.283859    0.587534   -0.138341
     41          6           0       -4.918321   -0.037546    1.086518
     42          8           0       -4.496610    0.226781    2.229822
     43          8           0       -6.080031   -0.748823    0.783322
     44          6           0       -6.907214   -0.984954    1.960848
     45          1           0        0.608764   -4.345128   -0.615144
     46          1           0        5.147760   -0.077393    0.369390
     47          1           0        0.883044    4.628451    0.135551
     48          1           0       -3.717707   -2.422904    0.250792
     49          1           0       -2.141967   -4.032671   -1.563347
     50          1           0       -2.862166   -4.433420    1.080514
     51          1           0       -1.147727   -4.300813    0.970616
     52          1           0       -2.112497   -5.554371   -0.043986
     53          1           0       -3.522293   -3.021243   -2.628680
     54          1           0       -3.895545   -1.349785   -2.430189
     55          1           0       -6.060492   -1.764041   -1.885937
     56          1           0       -5.630778   -2.979023   -0.688543
     57          1           0        3.587673   -5.576459    0.558274
     58          1           0        3.988166   -5.184658   -0.985500
     59          1           0        2.328465   -5.449950   -0.741266
     60          1           0        5.967361   -4.758311   -0.208389
     61          1           0        5.368509   -4.759798    1.440145
     62          1           0        7.097863   -4.199645    1.150660
     63          1           0        5.106064    2.543931   -0.400744
     64          1           0        3.175343    4.462180    0.749763
     65          1           0        4.984401    1.814882    2.230671
     66          1           0        4.754380    3.626640    2.321341
     67          1           0        6.177464    2.822560    1.596261
     68          1           0        2.821044    3.772663   -1.974854
     69          1           0        4.532540    4.118340   -1.851705
     70          1           0        4.183803    6.180773   -2.179589
     71          1           0        3.375154    6.374669   -0.636754
     72          1           0        2.476341    5.932024   -2.232882
     73          1           0       -1.069637    5.541793    0.315422
     74          1           0       -2.562284    5.327981    1.183559
     75          1           0       -2.668164    5.443829   -0.598387
     76          1           0       -4.784150    0.288726   -1.059499
     77          1           0       -7.847746   -0.436430    1.987237
     78          1           0       -6.397993   -0.802317    2.907232
     79          1           0       -7.147656   -2.047753    1.951564
 ---------------------------------------------------------------------

 SCF Done:  E(RCAM-B3LYP) =  -2034.89328453     A.U. after   19 cycles

 Excitation energies and oscillator strengths:

 Excited State   1:      Singlet-A      1.6980 eV  730.19 nm  f=0.4169  <S**2>=0.000
     155 ->158        -0.17314
     156 ->157         0.68838
     155 <-158        -0.10786
 This state for optimization and/or second-order correction.
 Total Energy, E(TD-HF/TD-DFT) =  -2034.83088488
 Copying the excited state density for this state as the 1-particle RhoCI density.

 Excited State   2:      Singlet-A      2.2865 eV  542.24 nm  f=0.0920  <S**2>=0.000
     155 ->157         0.63010
     156 ->158         0.31281

 Excited State   3:      Singlet-A      3.4982 eV  354.43 nm  f=0.0131  <S**2>=0.000
     150 ->157         0.35588
     150 ->159         0.29987
     151 ->157         0.25190
     151 ->159         0.21868
     153 ->157        -0.29455
     154 ->157         0.16805
     156 ->158         0.10302

 Excited State   4:      Singlet-A      3.5421 eV  350.03 nm  f=0.3425  <S**2>=0.000
     154 ->157        -0.45857
     155 ->157        -0.21860
     156 ->158         0.47638

 Excited State   5:      Singlet-A      3.5737 eV  346.94 nm  f=0.2185  <S**2>=0.000
     150 ->157        -0.17321
     150 ->159        -0.14292
     151 ->157        -0.18019
     153 ->157        -0.23017
     154 ->157         0.44068
     155 ->157        -0.16469
     156 ->158         0.33656

 The electronic state is 1-A.
 Alpha  occ. eigenvalues --  -46.88386 -19.26704 -19.20858 -19.19932 -19.18553
 Alpha  occ. eigenvalues --  -14.42571 -14.41655 -14.39689 -14.39373 -10.40841
 Alpha  occ. eigenvalues --  -10.36510 -10.34932 -10.31749 -10.31597 -10.30965
 Alpha  occ. eigenvalues --  -10.30654 -10.30341 -10.30126 -10.29959 -10.29787
 Alpha  occ. eigenvalues --  -10.29508 -10.29141 -10.29009 -10.28869 -10.28567
 Alpha  occ. eigenvalues --  -10.28243 -10.28052 -10.27722 -10.27471 -10.27368
 Alpha  occ. eigenvalues --  -10.27296 -10.27227 -10.27084 -10.26949 -10.26512
 Alpha  occ. eigenvalues --  -10.26153 -10.26147 -10.25925 -10.25726 -10.25537
 Alpha  occ. eigenvalues --  -10.25503 -10.25434 -10.25223  -3.17038  -1.91920
 Alpha  occ. eigenvalues --   -1.91477  -1.91366  -1.16349  -1.10116  -1.09047
 Alpha  occ. eigenvalues --   -1.07964  -1.03925  -1.03302  -1.02650  -1.01889
 Alpha  occ. eigenvalues --   -0.92639  -0.89122  -0.88751  -0.88039  -0.87335
 Alpha  occ. eigenvalues --   -0.87235  -0.86127  -0.84293  -0.83668  -0.82725
 Alpha  occ. eigenvalues --   -0.81942  -0.81211  -0.80238  -0.78438  -0.77615
 Alpha  occ. eigenvalues --   -0.76936  -0.76230  -0.74712  -0.72455  -0.70977
 Alpha  occ. eigenvalues --   -0.69007  -0.68411  -0.67920  -0.66724  -0.65346
 Alpha  occ. eigenvalues --   -0.64999  -0.64903  -0.64360  -0.62600  -0.60296
 Alpha  occ. eigenvalues --   -0.59780  -0.58925  -0.58531  -0.58340  -0.57326
 Alpha  occ. eigenvalues --   -0.56264  -0.55435  -0.55124  -0.54931  -0.53778
 Alpha  occ. eigenvalues --   -0.53522  -0.53141  -0.52608  -0.52465  -0.51839
 Alpha  occ. eigenvalues --   -0.51625  -0.51494  -0.51281  -0.51141  -0.50832
 Alpha  occ. eigenvalues --   -0.50256  -0.49615  -0.49380  -0.49164  -0.48798
 Alpha  occ. eigenvalues --   -0.48632  -0.48328  -0.48152  -0.47961  -0.47244
 Alpha  occ. eigenvalues --   -0.47030  -0.46762  -0.46491  -0.46028  -0.45954
 Alpha  occ. eigenvalues --   -0.45682  -0.45375  -0.44577  -0.44335  -0.44149
 Alpha  occ. eigenvalues --   -0.44040  -0.43822  -0.43620  -0.43206  -0.43004
 Alpha  occ. eigenvalues --   -0.42856  -0.42675  -0.41731  -0.41713  -0.41129
 Alpha  occ. eigenvalues --   -0.40793  -0.40566  -0.40184  -0.39508  -0.39140
 Alpha  occ. eigenvalues --   -0.38300  -0.37817  -0.37434  -0.37421  -0.36424
 Alpha  occ. eigenvalues --   -0.36114  -0.35159  -0.34443  -0.32892  -0.31558
 Alpha  occ. eigenvalues --   -0.31395  -0.30702  -0.30394  -0.29787  -0.24176
 Alpha  occ. eigenvalues --   -0.20783
 Alpha virt. eigenvalues --   -0.08432  -0.01323  -0.00049   0.01779   0.02321
 Alpha virt. eigenvalues --    0.02798   0.04529   0.05538   0.07597   0.08174
 Alpha virt. eigenvalues --    0.08778   0.09235   0.09595   0.09824   0.10137

 Mulliken charges:
               1
     1  Mg   0.827598
     2  C   -0.093649
     3  C   -0.084200
     4  C   -0.090950
     5  C   -0.097493
     6  N   -0.314186
     7  C   -0.043877
     8  C   -0.036379
     9  C   -0.064248
    10  C    0.105084
    11  C    0.072715
    12  C    0.047659
    13  C   -0.051812
    14  H    0.011150
    15  N   -0.371674
    16  C    0.102965
    17  C   -0.129406
    18  C   -0.033566
    19  C    0.107783
    20  C    0.117661
    21  C   -0.020254
    22  O   -0.207401
    23  C    0.074552
    24  N   -0.341634
    25  C    0.095895
    26  C   -0.017865
    27  C   -0.053061
    28  C    0.051001
    29  C    0.084597
    30  C    0.023505
    31  C    0.034269
    32  N   -0.305309
    33  C    0.132939
    34  C   -0.212991
    35  C    0.057138
    36  C    0.131105
    37  C    0.141152
    38  C    0.061045
    39  O   -0.194208
    40  C    0.031548
    41  C    0.228367
    42  O   -0.229734
    43  O   -0.338258
    44  C    0.159248
    45  H   -0.039535
    46  H   -0.011495
    47  H   -0.030772
    48  H    0.024653
    49  H    0.012278
    50  H    0.007448
    51  H    0.021759
    52  H    0.021869
    53  H    0.008447
    54  H    0.016583
    55  H    0.043439
    56  H    0.033122
    57  H    0.025189
    58  H    0.007414
    59  H    0.019213
    60  H    0.028423
    61  H    0.031470
    62  H    0.041473
    63  H    0.007095
    64  H    0.007955
    65  H    0.019225
    66  H    0.025410
    67  H    0.014711
    68  H    0.006589
    69  H    0.011188
    70  H    0.005892
    71  H    0.021434
    72  H    0.022891
    73  H   -0.001156
    74  H    0.034004
    75  H    0.043050
    76  H    0.027766
    77  H    0.045334
    78  H    0.054840
    79  H    0.025973
 Sum of Mulliken charges =  -0.00000

 Dipole moment (field-independent basis, Debye):
    X=              1.2895    Y=             -3.2415    Z=             -2.4345  Tot=              4.2540
 Quadrupole moment (field-independent basis, Debye-Ang):
   XX=           -273.5077   YY=           -229.1032   ZZ=           -258.4044
   XY=             24.5579   XZ=             -6.2962   YZ=             -1.3676

 Normal termination of Gaussian 16 at Fri Oct  8 14:37:07 2021.
