 Gaussian 16, Revision A.03,
 Gaussian 16:  ES64L-G16RevA.03 25-Dec-2016

 -----------------------------------
 #p cam-b3lyp/Def2SVP td=(nstates=5)
 -----------------------------------

 --------------------------------
 TDDFT excited states in gaussian
 --------------------------------
 Symbolic Z-matrix:
 Charge =  0 Multiplicity = 1

                         Standard orientation:
 ---------------------------------------------------------------------
 Center     Atomic      Atomic             Coordinates (Angstroms)
 Number     Number       Type             X           Y           Z
 ---------------------------------------------------------------------
      1         12           0      -29.114187    0.205072    0.386164
      2          6           0      -26.968535   -1.710009   -1.754306
      3          6           0      -29.507996    2.440326   -2.210004
      4          6           0      -30.531204    2.217971    2.534537
      5          6           0      -28.379292   -2.075672    2.889875
      6          7           0      -28.073087    0.492345   -1.715948
      7          6           0      -27.358681   -0.496824   -2.335857
      8          6           0      -27.246031   -0.181648   -3.851566
      9          6           0      -28.015260    1.197053   -4.002495
     10          6           0      -28.578113    1.456180   -2.557499
     11          6           0      -27.189627    2.456278   -4.502372
     12          6           0      -27.829673   -1.265568   -4.796706
     13          6           0      -27.028216   -1.651053   -5.988815
     14          1           0      -25.871881   -0.760839   -6.585135
     15          7           0      -29.933944    2.132736    0.219995
     16          6           0      -30.138490    2.858536   -0.953194
     17          6           0      -30.769881    4.147495   -0.611104
     18          6           0      -31.172822    4.024230    0.773981
     19          6           0      -30.542950    2.767559    1.241438
     20          6           0      -31.008104    5.290274   -1.551063
     21          6           0      -32.023940    4.953950    1.670674
     22          8           0      -32.562817    4.615317    2.745492
     23          6           0      -32.364976    6.287160    1.137458
     24          7           0      -29.337463    0.093735    2.367303
     25          6           0      -29.928140    1.137363    3.045311
     26          6           0      -30.230797    0.749162    4.519127
     27          6           0      -29.853189   -0.798103    4.502506
     28          6           0      -29.154755   -0.960647    3.163589
     29          6           0      -29.511731    1.563978    5.670339
     30          6           0      -30.996160   -1.790546    4.645746
     31          6           0      -30.982911   -2.642883    5.931987
     32          7           0      -28.088324   -1.637960    0.526498
     33          6           0      -27.853804   -2.431310    1.624558
     34          6           0      -26.974263   -3.548925    1.257655
     35          6           0      -26.668826   -3.312069   -0.070871
     36          6           0      -27.359443   -2.147646   -0.474684
     37          6           0      -26.444868   -4.651922    2.113486
     38          6           0      -25.942672   -3.870320   -1.154273
     39          8           0      -25.312076   -4.958273   -1.281666
     40          6           0      -26.088119   -2.900643   -2.249417
     41          6           0      -24.735469   -2.515963   -2.784918
     42          8           0      -23.938349   -1.849031   -2.218849
     43          8           0      -24.590201   -2.979313   -4.026156
     44          6           0      -23.294593   -3.007176   -4.615332
     45          1           0      -29.677119    3.203545   -2.972678
     46          1           0      -31.013926    2.761673    3.350371
     47          1           0      -28.091801   -2.743211    3.703857
     48          1           0      -26.179795   -0.071798   -4.052932
     49          1           0      -28.863390    1.076457   -4.675793
     50          1           0      -26.180224    2.243250   -4.853147
     51          1           0      -27.051507    3.103327   -3.634919
     52          1           0      -27.752790    3.005686   -5.257368
     53          1           0      -28.790829   -0.980242   -5.225932
     54          1           0      -27.993199   -2.218690   -4.294620
     55          1           0      -27.680124   -1.730716   -6.859268
     56          1           0      -26.600677   -2.632478   -5.785469
     57          1           0      -30.568057    6.196966   -1.136462
     58          1           0      -32.089083    5.418803   -1.606498
     59          1           0      -30.735402    5.031593   -2.574727
     60          1           0      -31.432222    6.836191    1.008105
     61          1           0      -32.918244    6.782390    1.935053
     62          1           0      -33.035755    6.227140    0.280828
     63          1           0      -31.312700    0.836882    4.623588
     64          1           0      -29.166131   -0.960790    5.332859
     65          1           0      -28.874696    2.336397    5.240949
     66          1           0      -28.997148    0.925966    6.389863
     67          1           0      -30.294929    2.024509    6.272724
     68          1           0      -31.199832   -2.429011    3.785990
     69          1           0      -31.910338   -1.202495    4.719688
     70          1           0      -31.200902   -3.705140    5.823407
     71          1           0      -31.859544   -2.346400    6.508561
     72          1           0      -30.065570   -2.594732    6.517173
     73          1           0      -27.010596   -4.774196    3.037566
     74          1           0      -25.459334   -4.386872    2.496057
     75          1           0      -26.335273   -5.519975    1.463547
     76          1           0      -26.660180   -3.411660   -3.023380
     77          1           0      -22.760011   -3.826869   -4.133236
     78          1           0      -22.726110   -2.115677   -4.350044
     79          1           0      -23.350721   -3.232963   -5.680544
     80         12           0       28.777452    0.562397   -0.376237
     81          6           0       26.935487   -2.316562    0.503049
     82          6           0       25.851506    2.443611   -0.116318
     83          6           0       30.728850    3.351128   -0.204759
     84          6           0       31.709704   -1.471658   -0.069028
     85          7           0       26.687067    0.092681    0.092993
     86          6           0       26.183007   -1.110859    0.439022
     87          6           0       24.679229   -0.993034    0.850058
     88          6           0       24.336999    0.452865    0.262723
     89          6           0       25.744959    1.083187    0.010860
     90          6           0       23.539716    0.605799   -1.052444
     91          6           0       24.569492   -1.101756    2.417976
     92          6           0       23.300362   -1.848840    2.913811
     93          1           0       22.596517   -1.228033    4.188508
     94          7           0       28.345622    2.682381   -0.389277
     95          6           0       27.075504    3.191377   -0.328205
     96          6           0       27.198378    4.596783   -0.417291
     97          6           0       28.581270    4.944783   -0.376843
     98          6           0       29.319619    3.637588   -0.372724
     99          6           0       26.041019    5.566850   -0.447946
    100          6           0       29.155676    6.310055   -0.208530
    101          8           0       28.450481    7.288291   -0.020119
    102          6           0       30.562811    6.613290   -0.179455
    103          7           0       30.953764    0.855912   -0.051660
    104          6           0       31.486566    2.145160   -0.198608
    105          6           0       32.980894    2.092488   -0.265725
    106          6           0       33.331943    0.562443   -0.157726
    107          6           0       31.955455   -0.075823   -0.086150
    108          6           0       33.445838    2.758595   -1.567028
    109          6           0       34.416312    0.236231    0.937159
    110          6           0       35.651166   -0.477007    0.476267
    111          7           0       29.288083   -1.516653    0.083745
    112          6           0       30.503474   -2.155635    0.105332
    113          6           0       30.316461   -3.615370    0.256769
    114          6           0       28.914734   -3.665547    0.479258
    115          6           0       28.356382   -2.416893    0.279700
    116          6           0       31.357166   -4.718578    0.367431
    117          6           0       27.864950   -4.554241    0.901573
    118          8           0       27.918193   -5.749179    1.231946
    119          6           0       26.544564   -3.784784    0.927722
    120          6           0       25.529666   -4.434868    0.077733
    121          8           0       24.499152   -4.816245    0.501025
    122          8           0       25.810937   -4.371945   -1.256399
    123          6           0       24.644157   -4.800186   -2.058112
    124          1           0       24.943566    3.051071   -0.119897
    125          1           0       31.291896    4.284859   -0.245936
    126          1           0       32.475812   -2.233235    0.094276
    127          1           0       24.132060   -1.800786    0.363696
    128          1           0       24.019180    1.190722    0.999197
    129          1           0       23.669528   -0.276890   -1.679667
    130          1           0       23.754090    1.492414   -1.649237
    131          1           0       22.491374    0.634588   -0.757290
    132          1           0       24.639665   -0.116679    2.880153
    133          1           0       25.459444   -1.656899    2.714616
    134          1           0       23.670231   -2.850383    3.134079
    135          1           0       22.684815   -1.893905    2.015111
    136          1           0       26.244311    6.548867   -0.875240
    137          1           0       25.763045    5.660057    0.601536
    138          1           0       25.088390    5.178749   -0.808523
    139          1           0       30.968928    6.310549   -1.145456
    140          1           0       31.054830    6.122284    0.660639
    141          1           0       30.680558    7.688787   -0.046691
    142          1           0       33.420501    2.523993    0.633206
    143          1           0       33.609852    0.041882   -1.074442
    144          1           0       32.669204    3.353891   -2.047812
    145          1           0       33.750517    2.022422   -2.310884
    146          1           0       34.155366    3.552273   -1.334942
    147          1           0       33.883396   -0.361301    1.676802
    148          1           0       34.879566    1.118499    1.377349
    149          1           0       35.750710   -1.372312    1.089371
    150          1           0       36.550168    0.115286    0.647817
    151          1           0       35.670636   -0.651240   -0.599585
    152          1           0       31.757746   -4.819883    1.376285
    153          1           0       32.160372   -4.627638   -0.364877
    154          1           0       30.735406   -5.600731    0.215224
    155          1           0       26.099182   -3.856119    1.919183
    156          1           0       24.922605   -4.730159   -3.109940
    157          1           0       23.778857   -4.172640   -1.845155
    158          1           0       24.395223   -5.856308   -1.960396
 ---------------------------------------------------------------------

 SCF Done:  E(RCAM-B3LYP) =  -4069.78260679     A.U. after   19 cycles

 Excitation energies and oscillator strengths:

 Excited State   1:      Singlet-A      1.6804 eV  737.81 nm  f=0.4050  <S**2>=0.000
     309 -> 315        0.17287
     311 -> 313        0.68702
     309 <- 315        0.10657
 This state for optimization and/or second-order correction.
 Total Energy, E(TD-HF/TD-DFT) =  -4069.72085168
 Copying the excited state density for this state as the 1-particle RhoCI density.

 Excited State   2:      Singlet-A      1.7200 eV  720.83 nm  f=0.4247  <S**2>=0.000
     310 -> 316        0.17639
     312 -> 314        0.68703
     310 <- 316        0.10598

 Excited State   3:      Singlet-A      2.2017 eV  563.14 nm  f=0.1141  <S**2>=0.000
     309 -> 313        0.64204
     311 -> 315       -0.28114

 Excited State   4:      Singlet-A      2.2103 eV  560.94 nm  f=0.1290  <S**2>=0.000
     310 -> 314        0.65015
     312 -> 316       -0.26633

 Excited State   5:      Singlet-A      3.0792 eV  402.66 nm  f=0.0000  <S**2>=0.000
     312 -> 313        0.70711

 The electronic state is 1-A.
 Alpha  occ. eigenvalues --  -46.90848 -46.88909 -19.25123 -19.24998 -19.19928
 Alpha  occ. eigenvalues --  -19.19650 -19.19023 -19.18855 -19.18546 -19.17332
 Alpha  occ. eigenvalues --  -14.42986 -14.42713 -14.42054 -14.41618 -14.39918
 Alpha  occ. eigenvalues --  -14.39693 -14.39557 -14.39311 -10.39044 -10.38741
 Alpha  occ. eigenvalues --  -10.34958 -10.34784 -10.34706 -10.33516 -10.32255
 Alpha  occ. eigenvalues --  -10.31996 -10.31871 -10.31832 -10.31698 -10.31502
 Alpha  occ. eigenvalues --  -10.31075 -10.31026 -10.31000 -10.30954 -10.30547
 Alpha  occ. eigenvalues --  -10.30195 -10.30156 -10.29869 -10.29697 -10.29547
 Alpha  occ. eigenvalues --  -10.29319 -10.29295 -10.29094 -10.29044 -10.28920
 Alpha  occ. eigenvalues --  -10.28781 -10.28755 -10.28749 -10.28516 -10.28472
 Alpha  occ. eigenvalues --  -10.28436 -10.28381 -10.28366 -10.28264 -10.28194
 Alpha  occ. eigenvalues --  -10.28181 -10.28159 -10.28096 -10.27760 -10.27563
 Alpha  occ. eigenvalues --  -10.27551 -10.27513 -10.27491 -10.27185 -10.27052
 Alpha  occ. eigenvalues --  -10.27052 -10.26995 -10.26979 -10.26819 -10.26764
 Alpha  occ. eigenvalues --  -10.26729 -10.26672 -10.26529 -10.26468 -10.26402
 Alpha  occ. eigenvalues --  -10.26205 -10.25914 -10.25892 -10.25761 -10.25579
 Alpha  occ. eigenvalues --  -10.25461 -10.25446 -10.25301 -10.25270 -10.25189
 Alpha  occ. eigenvalues --  -10.25181  -3.18995  -3.17487  -1.93909  -1.93431
 Alpha  occ. eigenvalues --   -1.93291  -1.92369  -1.91956  -1.91786  -1.18617
 Alpha  occ. eigenvalues --   -1.17984  -1.09706  -1.09564  -1.09052  -1.08966
 Alpha  occ. eigenvalues --   -1.08306  -1.08081  -1.05126  -1.04830  -1.03769
 Alpha  occ. eigenvalues --   -1.03762  -1.03447  -1.02547  -1.02529  -1.01783
 Alpha  occ. eigenvalues --   -0.93570  -0.92641  -0.89436  -0.89127  -0.89032
 Alpha  occ. eigenvalues --   -0.88543  -0.88370  -0.88248  -0.88074  -0.87738
 Alpha  occ. eigenvalues --   -0.87027  -0.86881  -0.86285  -0.85835  -0.84894
 Alpha  occ. eigenvalues --   -0.84667  -0.84553  -0.83525  -0.82725  -0.82622
 Alpha  occ. eigenvalues --   -0.82527  -0.82059  -0.81715  -0.80940  -0.80564
 Alpha  occ. eigenvalues --   -0.80506  -0.78672  -0.78301  -0.77710  -0.77625
 Alpha  occ. eigenvalues --   -0.77157  -0.76881  -0.76509  -0.76357  -0.75444
 Alpha  occ. eigenvalues --   -0.75200  -0.73174  -0.73158  -0.72531  -0.71491
 Alpha  occ. eigenvalues --   -0.69400  -0.69386  -0.69278  -0.68973  -0.67971
 Alpha  occ. eigenvalues --   -0.67492  -0.66912  -0.66364  -0.66251  -0.65920
 Alpha  occ. eigenvalues --   -0.65725  -0.65009  -0.64916  -0.64848  -0.64663
 Alpha  occ. eigenvalues --   -0.64472  -0.63320  -0.63029  -0.60332  -0.60093
 Alpha  occ. eigenvalues --   -0.60036  -0.59862  -0.59335  -0.59137  -0.59006
 Alpha  occ. eigenvalues --   -0.58901  -0.58323  -0.58210  -0.57755  -0.57091
 Alpha  occ. eigenvalues --   -0.56522  -0.56492  -0.56109  -0.56094  -0.55569
 Alpha  occ. eigenvalues --   -0.55176  -0.55148  -0.54914  -0.54566  -0.53753
 Alpha  occ. eigenvalues --   -0.53519  -0.53428  -0.53396  -0.53249  -0.53210
 Alpha  occ. eigenvalues --   -0.53017  -0.52837  -0.52795  -0.52669  -0.52405
 Alpha  occ. eigenvalues --   -0.52279  -0.51770  -0.51651  -0.51580  -0.51486
 Alpha  occ. eigenvalues --   -0.51484  -0.51345  -0.51115  -0.50903  -0.50078
 Alpha  occ. eigenvalues --   -0.50059  -0.50034  -0.49881  -0.49870  -0.49578
 Alpha  occ. eigenvalues --   -0.49281  -0.49253  -0.49088  -0.49051  -0.48753
 Alpha  occ. eigenvalues --   -0.48632  -0.48577  -0.48411  -0.48331  -0.48235
 Alpha  occ. eigenvalues --   -0.48216  -0.47707  -0.47540  -0.47414  -0.47343
 Alpha  occ. eigenvalues --   -0.46974  -0.46910  -0.46808  -0.46777  -0.46695
 Alpha  occ. eigenvalues --   -0.46368  -0.46344  -0.46211  -0.46112  -0.46050
 Alpha  occ. eigenvalues --   -0.45804  -0.45771  -0.45281  -0.45150  -0.45102
 Alpha  occ. eigenvalues --   -0.44867  -0.44785  -0.44696  -0.44539  -0.44447
 Alpha  occ. eigenvalues --   -0.44363  -0.44027  -0.43641  -0.43607  -0.43440
 Alpha  occ. eigenvalues --   -0.43341  -0.43031  -0.43015  -0.42891  -0.42685
 Alpha  occ. eigenvalues --   -0.42659  -0.42607  -0.42309  -0.42151  -0.41856
 Alpha  occ. eigenvalues --   -0.41794  -0.41626  -0.41431  -0.41291  -0.41170
 Alpha  occ. eigenvalues --   -0.41039  -0.40964  -0.40804  -0.40267  -0.40147
 Alpha  occ. eigenvalues --   -0.40081  -0.39682  -0.39645  -0.39247  -0.39121
 Alpha  occ. eigenvalues --   -0.38688  -0.38184  -0.37910  -0.37909  -0.37649
 Alpha  occ. eigenvalues --   -0.37248  -0.36946  -0.36900  -0.36527  -0.36414
 Alpha  occ. eigenvalues --   -0.36262  -0.35848  -0.34933  -0.34677  -0.34145
 Alpha  occ. eigenvalues --   -0.34124  -0.33504  -0.32904  -0.31595  -0.31505
 Alpha  occ. eigenvalues --   -0.31439  -0.30985  -0.30760  -0.30597  -0.30403
 Alpha  occ. eigenvalues --   -0.30020  -0.29481  -0.29211  -0.24521  -0.24112
 Alpha  occ. eigenvalues --   -0.21586  -0.21304
 Alpha virt. eigenvalues --   -0.09395  -0.08935  -0.02264  -0.01470  -0.00188
 Alpha virt. eigenvalues --    0.00274   0.01202   0.01931   0.02365   0.02417
 Alpha virt. eigenvalues --    0.04679   0.05275   0.05433   0.06077   0.06118

 Mulliken charges:
               1
     1  Mg   0.831090
     2  C   -0.003478
     3  C   -0.022631
     4  C   -0.061390
     5  C   -0.094178
     6  N   -0.252774
     7  C   -0.054175
     8  C    0.021044
     9  C   -0.061042
    10  C    0.018216
    11  C    0.057389
    12  C    0.048952
    13  C   -0.081514
    14  H    0.000635
    15  N   -0.364179
    16  C    0.090937
    17  C   -0.170520
    18  C   -0.041473
    19  C    0.129268
    20  C    0.140611
    21  C    0.009632
    22  O   -0.229742
    23  C    0.054897
    24  N   -0.351637
    25  C    0.076897
    26  C   -0.074946
    27  C   -0.035815
    28  C    0.084629
    29  C    0.075268
    30  C    0.058341
    31  C   -0.010531
    32  N   -0.321554
    33  C    0.100466
    34  C   -0.161310
    35  C   -0.007607
    36  C    0.104572
    37  C    0.130295
    38  C    0.044994
    39  O   -0.216239
    40  C    0.039320
    41  C    0.154792
    42  O   -0.173635
    43  O   -0.300073
    44  C    0.179693
    45  H   -0.038464
    46  H   -0.005595
    47  H   -0.029180
    48  H    0.021606
    49  H    0.016305
    50  H    0.019321
    51  H    0.019361
    52  H    0.018313
    53  H    0.008904
    54  H    0.007774
    55  H    0.022205
    56  H    0.037185
    57  H    0.036383
    58  H    0.019926
    59  H    0.011625
    60  H    0.032306
    61  H    0.020470
    62  H    0.045023
    63  H    0.021381
    64  H    0.000792
    65  H    0.029707
    66  H    0.014103
    67  H    0.016453
    68  H    0.016405
    69  H   -0.002380
    70  H    0.007279
    71  H    0.010573
    72  H    0.017265
    73  H    0.008815
    74  H    0.034176
    75  H    0.049479
    76  H    0.040252
    77  H    0.029072
    78  H    0.038752
    79  H    0.042914
    80  Mg   0.801144
    81  C    0.004436
    82  C   -0.071538
    83  C   -0.019778
    84  C   -0.048247
    85  N   -0.286855
    86  C   -0.055436
    87  C   -0.042460
    88  C   -0.052351
    89  C    0.058036
    90  C    0.080547
    91  C    0.048741
    92  C   -0.050669
    93  H    0.026245
    94  N   -0.365247
    95  C    0.114125
    96  C   -0.149640
    97  C   -0.022445
    98  C    0.090966
    99  C    0.140521
   100  C   -0.050239
   101  O   -0.214559
   102  C    0.079033
   103  N   -0.287392
   104  C    0.025742
   105  C   -0.009795
   106  C   -0.012932
   107  C    0.028466
   108  C    0.074432
   109  C    0.039546
   110  C   -0.004090
   111  N   -0.281367
   112  C    0.026165
   113  C   -0.155005
   114  C    0.014930
   115  C    0.076286
   116  C    0.107435
   117  C    0.020272
   118  O   -0.190056
   119  C    0.052728
   120  C    0.149226
   121  O   -0.180121
   122  O   -0.336498
   123  C    0.181930
   124  H   -0.017971
   125  H   -0.053342
   126  H   -0.027251
   127  H    0.012535
   128  H    0.009882
   129  H    0.010236
   130  H    0.025061
   131  H    0.017231
   132  H    0.017874
   133  H    0.012950
   134  H    0.042892
   135  H    0.031787
   136  H    0.047177
   137  H    0.015837
   138  H   -0.004952
   139  H    0.029970
   140  H    0.043489
   141  H    0.024762
   142  H    0.021287
   143  H    0.015152
   144  H    0.014941
   145  H    0.018907
   146  H    0.014599
   147  H    0.016986
   148  H    0.015939
   149  H    0.020663
   150  H    0.008637
   151  H    0.012710
   152  H    0.041380
   153  H    0.029837
   154  H    0.041883
   155  H    0.031448
   156  H    0.027479
   157  H    0.035970
   158  H    0.039785
 Sum of Mulliken charges =  -0.00000

 Dipole moment (field-independent basis, Debye):
    X=              1.6086    Y=              2.0231    Z=             -4.8533  Tot=              5.4986
 Quadrupole moment (field-independent basis, Debye-Ang):
   XX=           -171.8364   YY=           -577.0170   ZZ=           -481.4885
   XY=             17.5314   XZ=            -23.9304   YZ=             -5.7990

 Normal termination of Gaussian 16 at Thu Sep  2 16:41:37 2021.
