 Gaussian 16, Revision A.03,
 Gaussian 16:  ES64L-G16RevA.03 25-Dec-2016

 ----------------------------------------------------------
 #p cam-b3lyp/Def2SVP td=(nstates=5) density=(transition=1)
 ----------------------------------------------------------

 --------------------------------
 TDDFT excited states in gaussian
 --------------------------------
 Symbolic Z-matrix:
 Charge =  0 Multiplicity = 1

                         Standard orientation:
 ---------------------------------------------------------------------
 Center     Atomic      Atomic             Coordinates (Angstroms)
 Number     Number       Type             X           Y           Z
 ---------------------------------------------------------------------
      1         12           0       32.265774   -0.154272   -0.192366
      2          6           0       29.038459   -0.045528    1.185637
      3          6           0       31.594713   -3.300389   -1.285047
      4          6           0       35.111321    0.056687   -1.790725
      5          6           0       32.305059    3.405254    0.350436
      6          7           0       30.553995   -1.496601    0.008494
      7          6           0       29.340325   -1.250352    0.585730
      8          6           0       28.375162   -2.370654    0.170123
      9          6           0       29.332093   -3.531076   -0.079665
     10          6           0       30.541119   -2.712884   -0.572369
     11          6           0       29.663131   -4.325492    1.204841
     12          6           0       27.559976   -1.978611   -1.117374
     13          6           0       25.973097   -1.763221   -0.980940
     14          1           0       25.374414   -0.386285   -1.315149
     15          7           0       33.198189   -1.418419   -1.421726
     16          6           0       32.776200   -2.689340   -1.737956
     17          6           0       33.814979   -3.331318   -2.481083
     18          6           0       34.942704   -2.449990   -2.572069
     19          6           0       34.465813   -1.193492   -1.924870
     20          6           0       33.696117   -4.789421   -3.042969
     21          6           0       36.330280   -2.827542   -3.206636
     22          8           0       36.536217   -3.943716   -3.572482
     23          6           0       37.429266   -1.878318   -3.078134
     24          7           0       33.384676    1.562167   -0.931955
     25          6           0       34.674826    1.266553   -1.218511
     26          6           0       35.630880    2.410651   -0.925378
     27          6           0       34.697781    3.569274   -0.608301
     28          6           0       33.345290    2.808932   -0.380067
     29          6           0       36.615966    2.098709    0.261284
     30          6           0       34.550696    4.774009   -1.652396
     31          6           0       35.132484    6.136278   -1.385344
     32          7           0       31.086242    1.340067    0.762393
     33          6           0       31.219708    2.726998    0.906854
     34          6           0       30.067264    3.309256    1.559899
     35          6           0       29.208639    2.247782    1.707591
     36          6           0       29.823832    1.057229    1.197764
     37          6           0       29.892930    4.736394    1.875813
     38          6           0       27.892424    1.869017    2.198317
     39          8           0       27.050832    2.546594    2.801103
     40          6           0       27.774354    0.374626    1.984615
     41          6           0       27.617531   -0.267679    3.358622
     42          8           0       28.472840   -0.114452    4.227615
     43          8           0       26.368745   -0.893124    3.497541
     44          6           0       26.139510   -1.492209    4.785122
     45          1           0       31.406636   -4.357424   -1.482862
     46          1           0       36.168892   -0.018697   -2.048287
     47          1           0       32.373874    4.463810    0.610417
     48          1           0       27.632516   -2.453751    0.964038
     49          1           0       28.886441   -4.179142   -0.833291
     50          1           0       29.468685   -5.329157    0.828374
     51          1           0       28.934180   -3.979148    1.938031
     52          1           0       30.671776   -4.218666    1.604175
     53          1           0       27.673529   -2.794792   -1.830748
     54          1           0       28.051102   -1.116842   -1.568620
     55          1           0       25.757054   -1.898762    0.079074
     56          1           0       25.367379   -2.502821   -1.503218
     57          1           0       33.944929   -4.955850   -4.090603
     58          1           0       32.655040   -5.076389   -2.891410
     59          1           0       34.302160   -5.504972   -2.486982
     60          1           0       37.231552   -0.898933   -3.514352
     61          1           0       38.309690   -2.306450   -3.557286
     62          1           0       37.780201   -1.848463   -2.047516
     63          1           0       36.299331    2.622690   -1.760501
     64          1           0       34.951350    4.004532    0.358333
     65          1           0       37.601197    1.771565   -0.070536
     66          1           0       36.129048    1.431988    0.972953
     67          1           0       36.772797    3.035276    0.798324
     68          1           0       33.579682    4.930372   -2.121036
     69          1           0       35.163071    4.310054   -2.426058
     70          1           0       35.946897    6.400895   -2.058999
     71          1           0       35.531450    6.169854   -0.371251
     72          1           0       34.287531    6.815533   -1.495988
     73          1           0       30.505747    5.307470    1.177839
     74          1           0       30.314206    4.866659    2.873041
     75          1           0       28.840370    5.015368    1.893093
     76          1           0       26.841904    0.291288    1.427964
     77          1           0       26.651419   -2.442091    4.941606
     78          1           0       25.079743   -1.678001    4.957418
     79          1           0       26.425400   -0.865823    5.629677
     80         12           0      -32.079543    0.138476   -0.552987
     81          6           0      -29.567132    0.313766    2.062553
     82          6           0      -32.760490   -2.942050    0.635105
     83          6           0      -34.242312   -0.018196   -2.898338
     84          6           0      -30.916330    3.252793   -1.771527
     85          7           0      -31.210668   -1.181340    1.265443
     86          6           0      -30.297632   -0.851265    2.195105
     87          6           0      -30.239414   -1.931624    3.291922
     88          6           0      -30.954758   -3.100553    2.467045
     89          6           0      -31.726487   -2.377523    1.444683
     90          6           0      -30.128864   -4.312173    2.068493
     91          6           0      -30.978611   -1.412204    4.537195
     92          6           0      -30.479841   -2.072348    5.856313
     93          1           0      -29.147858   -2.951476    5.945014
     94          7           0      -33.406896   -1.288934   -1.070015
     95          6           0      -33.503846   -2.555413   -0.526168
     96          6           0      -34.513671   -3.291583   -1.280580
     97          6           0      -35.015466   -2.417543   -2.276304
     98          6           0      -34.200583   -1.182113   -2.100312
     99          6           0      -34.892806   -4.680411   -1.015322
    100          6           0      -36.205896   -2.636910   -3.349064
    101          8           0      -36.628217   -1.730036   -4.012861
    102          6           0      -37.052784   -3.922185   -3.358935
    103          7           0      -32.314856    1.332398   -2.269836
    104          6           0      -33.405774    1.116726   -3.000503
    105          6           0      -33.680858    2.175554   -4.034179
    106          6           0      -32.887600    3.344785   -3.401152
    107          6           0      -31.868315    2.538288   -2.524921
    108          6           0      -33.144242    1.821221   -5.498629
    109          6           0      -33.740828    4.418262   -2.603708
    110          6           0      -35.215184    4.699541   -3.015629
    111          7           0      -30.516716    1.462674   -0.087194
    112          6           0      -30.187588    2.680718   -0.583982
    113          6           0      -29.217459    3.312204    0.190088
    114          6           0      -28.934187    2.404356    1.170209
    115          6           0      -29.738283    1.292887    1.012331
    116          6           0      -28.683701    4.727085   -0.016248
    117          6           0      -28.088836    2.246400    2.363175
    118          8           0      -27.136967    2.875725    2.800135
    119          6           0      -28.566368    0.876365    3.015924
    120          6           0      -27.382725    0.065091    3.240433
    121          8           0      -26.757640   -0.586683    2.397834
    122          8           0      -26.934275    0.361040    4.478226
    123          6           0      -25.567569   -0.078594    4.694837
    124          1           0      -32.847094   -3.996420    0.906052
    125          1           0      -34.963637   -0.123671   -3.710684
    126          1           0      -30.659047    4.252179   -2.128069
    127          1           0      -29.215963   -2.254042    3.483898
    128          1           0      -31.687929   -3.530986    3.147799
    129          1           0      -30.445844   -5.214424    2.590656
    130          1           0      -29.074464   -4.135053    2.279713
    131          1           0      -30.131409   -4.519702    0.998411
    132          1           0      -32.017450   -1.731887    4.452264
    133          1           0      -30.996834   -0.325853    4.622471
    134          1           0      -31.278092   -2.616327    6.362295
    135          1           0      -30.459163   -1.219051    6.534076
    136          1           0      -34.676366   -4.969428    0.012917
    137          1           0      -34.311646   -5.271931   -1.722962
    138          1           0      -35.953773   -4.886892   -1.157782
    139          1           0      -37.660457   -4.056138   -2.464040
    140          1           0      -36.343290   -4.712488   -3.605146
    141          1           0      -37.707725   -3.926083   -4.230614
    142          1           0      -34.768686    2.239749   -4.027729
    143          1           0      -32.313573    3.916019   -4.130323
    144          1           0      -34.001698    2.091300   -6.114586
    145          1           0      -32.910002    0.766934   -5.650104
    146          1           0      -32.291529    2.404029   -5.844838
    147          1           0      -33.184942    5.354491   -2.580216
    148          1           0      -33.830396    3.920583   -1.637937
    149          1           0      -35.887859    3.999882   -2.520151
    150          1           0      -35.181632    4.657982   -4.104880
    151          1           0      -35.520178    5.719549   -2.784399
    152          1           0      -29.513848    5.266905   -0.472442
    153          1           0      -27.863899    4.777311   -0.732244
    154          1           0      -28.410460    5.133402    0.957417
    155          1           0      -29.046433    1.138047    3.959717
    156          1           0      -25.183362    0.173695    5.682775
    157          1           0      -24.853830    0.134307    3.898832
    158          1           0      -25.520556   -1.167652    4.726936
 ---------------------------------------------------------------------

 SCF Done:  E(RCAM-B3LYP) =  -4069.79047378     A.U. after   17 cycles

 Excitation energies and oscillator strengths:

 Excited State   1:      Singlet-A      1.7237 eV  719.29 nm  f=0.3623  <S**2>=0.000
     309 -> 315        0.19171
     312 -> 313        0.68304
     309 <- 315        0.11116
 This state for optimization and/or second-order correction.
 Total Energy, E(TD-HF/TD-DFT) =  -4069.72712866
 Copying the excited state density for this state as the 1-particle RhoCI density.

 Excited State   2:      Singlet-A      1.8346 eV  675.81 nm  f=0.3723  <S**2>=0.000
     310 -> 316       -0.18806
     311 -> 314        0.68158
     310 <- 316       -0.10395

 Excited State   3:      Singlet-A      2.2402 eV  553.45 nm  f=0.1572  <S**2>=0.000
     310 -> 314        0.65519
     311 -> 316        0.25326

 Excited State   4:      Singlet-A      2.2830 eV  543.06 nm  f=0.0525  <S**2>=0.000
     309 -> 313        0.60494
     312 -> 315       -0.35585

 Excited State   5:      Singlet-A      3.3227 eV  373.15 nm  f=0.0000  <S**2>=0.000
     312 -> 314        0.70711

 The electronic state is 1-A.
 Alpha  occ. eigenvalues --  -46.89353 -46.88685 -19.26021 -19.24880 -19.20576
 Alpha  occ. eigenvalues --  -19.20517 -19.19091 -19.18850 -19.18758 -19.18753
 Alpha  occ. eigenvalues --  -14.42135 -14.42076 -14.41472 -14.41121 -14.39944
 Alpha  occ. eigenvalues --  -14.39383 -14.39347 -14.38634 -10.40247 -10.38202
 Alpha  occ. eigenvalues --  -10.36970 -10.35054 -10.34806 -10.34563 -10.31503
 Alpha  occ. eigenvalues --  -10.31239 -10.31133 -10.31126 -10.30833 -10.30786
 Alpha  occ. eigenvalues --  -10.30724 -10.30654 -10.30612 -10.30548 -10.30517
 Alpha  occ. eigenvalues --  -10.29791 -10.29593 -10.29577 -10.29537 -10.29419
 Alpha  occ. eigenvalues --  -10.29289 -10.29194 -10.28613 -10.28491 -10.28408
 Alpha  occ. eigenvalues --  -10.28400 -10.28161 -10.28076 -10.27958 -10.27886
 Alpha  occ. eigenvalues --  -10.27873 -10.27827 -10.27816 -10.27814 -10.27697
 Alpha  occ. eigenvalues --  -10.27541 -10.27516 -10.27497 -10.27473 -10.27360
 Alpha  occ. eigenvalues --  -10.27286 -10.27253 -10.27252 -10.27118 -10.27113
 Alpha  occ. eigenvalues --  -10.26927 -10.26897 -10.26873 -10.26862 -10.26851
 Alpha  occ. eigenvalues --  -10.26491 -10.26433 -10.26229 -10.26227 -10.26205
 Alpha  occ. eigenvalues --  -10.26074 -10.25999 -10.25980 -10.25693 -10.25531
 Alpha  occ. eigenvalues --  -10.25507 -10.25459 -10.25359 -10.25213 -10.25134
 Alpha  occ. eigenvalues --  -10.23710  -3.17853  -3.17295  -1.92755  -1.92327
 Alpha  occ. eigenvalues --   -1.92169  -1.92138  -1.91766  -1.91594  -1.16473
 Alpha  occ. eigenvalues --   -1.15962  -1.12600  -1.11909  -1.09442  -1.09102
 Alpha  occ. eigenvalues --   -1.08219  -1.06622  -1.05774  -1.05192  -1.04781
 Alpha  occ. eigenvalues --   -1.04626  -1.04274  -1.03402  -1.02857  -1.02073
 Alpha  occ. eigenvalues --   -0.93044  -0.92334  -0.89160  -0.89151  -0.88969
 Alpha  occ. eigenvalues --   -0.88736  -0.88506  -0.88097  -0.87612  -0.87512
 Alpha  occ. eigenvalues --   -0.87105  -0.86893  -0.85578  -0.84997  -0.84607
 Alpha  occ. eigenvalues --   -0.84360  -0.84236  -0.83093  -0.82584  -0.82520
 Alpha  occ. eigenvalues --   -0.82370  -0.81931  -0.81035  -0.80855  -0.80719
 Alpha  occ. eigenvalues --   -0.80084  -0.78595  -0.78002  -0.77225  -0.76827
 Alpha  occ. eigenvalues --   -0.76625  -0.76398  -0.76310  -0.75700  -0.75251
 Alpha  occ. eigenvalues --   -0.75105  -0.72886  -0.72745  -0.72122  -0.71650
 Alpha  occ. eigenvalues --   -0.69651  -0.69030  -0.68751  -0.68616  -0.68153
 Alpha  occ. eigenvalues --   -0.67567  -0.66775  -0.66758  -0.65870  -0.65597
 Alpha  occ. eigenvalues --   -0.65432  -0.65060  -0.64864  -0.64656  -0.64454
 Alpha  occ. eigenvalues --   -0.63672  -0.62718  -0.61793  -0.60802  -0.60248
 Alpha  occ. eigenvalues --   -0.60047  -0.59494  -0.59230  -0.59118  -0.58887
 Alpha  occ. eigenvalues --   -0.58497  -0.58395  -0.57906  -0.57679  -0.57466
 Alpha  occ. eigenvalues --   -0.56527  -0.56237  -0.56072  -0.55465  -0.55287
 Alpha  occ. eigenvalues --   -0.55176  -0.54973  -0.54615  -0.54031  -0.53949
 Alpha  occ. eigenvalues --   -0.53775  -0.53597  -0.53539  -0.53196  -0.52996
 Alpha  occ. eigenvalues --   -0.52946  -0.52860  -0.52782  -0.52678  -0.52261
 Alpha  occ. eigenvalues --   -0.52188  -0.51745  -0.51664  -0.51280  -0.51147
 Alpha  occ. eigenvalues --   -0.51011  -0.50891  -0.50645  -0.50458  -0.50451
 Alpha  occ. eigenvalues --   -0.50138  -0.50025  -0.49825  -0.49699  -0.49643
 Alpha  occ. eigenvalues --   -0.49296  -0.49080  -0.49073  -0.48907  -0.48756
 Alpha  occ. eigenvalues --   -0.48679  -0.48600  -0.48334  -0.48285  -0.48088
 Alpha  occ. eigenvalues --   -0.47893  -0.47513  -0.47492  -0.47381  -0.47124
 Alpha  occ. eigenvalues --   -0.47036  -0.46723  -0.46590  -0.46345  -0.46290
 Alpha  occ. eigenvalues --   -0.46197  -0.46134  -0.45966  -0.45748  -0.45425
 Alpha  occ. eigenvalues --   -0.45424  -0.45337  -0.44923  -0.44636  -0.44438
 Alpha  occ. eigenvalues --   -0.44365  -0.44314  -0.44305  -0.44153  -0.44050
 Alpha  occ. eigenvalues --   -0.43888  -0.43854  -0.43793  -0.43558  -0.43296
 Alpha  occ. eigenvalues --   -0.43293  -0.43242  -0.43062  -0.42952  -0.42646
 Alpha  occ. eigenvalues --   -0.42575  -0.42466  -0.42403  -0.42245  -0.42133
 Alpha  occ. eigenvalues --   -0.42064  -0.41966  -0.41726  -0.41591  -0.41404
 Alpha  occ. eigenvalues --   -0.41343  -0.41075  -0.40866  -0.40716  -0.40393
 Alpha  occ. eigenvalues --   -0.40371  -0.40031  -0.39724  -0.39323  -0.38965
 Alpha  occ. eigenvalues --   -0.38593  -0.38242  -0.38071  -0.37987  -0.37461
 Alpha  occ. eigenvalues --   -0.37438  -0.37139  -0.36682  -0.36590  -0.36522
 Alpha  occ. eigenvalues --   -0.35911  -0.35638  -0.34843  -0.34708  -0.34161
 Alpha  occ. eigenvalues --   -0.33712  -0.33479  -0.32470  -0.31920  -0.31513
 Alpha  occ. eigenvalues --   -0.31403  -0.31209  -0.30942  -0.30598  -0.30356
 Alpha  occ. eigenvalues --   -0.30145  -0.29649  -0.29467  -0.24390  -0.23365
 Alpha  occ. eigenvalues --   -0.21356  -0.20991
 Alpha virt. eigenvalues --   -0.08316  -0.08245  -0.02224  -0.01068   0.00502
 Alpha virt. eigenvalues --    0.00576   0.01831   0.02430   0.02744   0.02753
 Alpha virt. eigenvalues --    0.04205   0.04213   0.05017   0.05730   0.05880

 Mulliken charges:
               1
     1  Mg  11.998962
     2  C    5.970496
     3  C    6.022113
     4  C    6.024424
     5  C    5.980733
     6  N    6.995492
     7  C    6.034529
     8  C    6.001046
     9  C    6.006979
    10  C    5.966236
    11  C    6.001952
    12  C    5.998500
    13  C    6.000348
    14  H    0.994612
    15  N    7.011127
    16  C    5.952455
    17  C    5.982115
    18  C    5.987703
    19  C    5.953901
    20  C    6.004359
    21  C    5.986154
    22  O    7.982490
    23  C    6.007997
    24  N    6.998058
    25  C    5.965717
    26  C    6.009423
    27  C    5.993719
    28  C    6.037427
    29  C    6.005118
    30  C    5.989379
    31  C    6.000687
    32  N    6.994141
    33  C    6.044103
    34  C    6.028337
    35  C    6.000810
    36  C    6.040674
    37  C    5.996117
    38  C    6.019017
    39  O    8.030997
    40  C    5.997690
    41  C    6.006982
    42  O    8.001653
    43  O    8.002450
    44  C    5.996495
    45  H    0.989008
    46  H    0.991997
    47  H    1.009790
    48  H    0.995760
    49  H    0.997269
    50  H    0.999042
    51  H    0.982983
    52  H    1.001006
    53  H    1.014018
    54  H    0.999880
    55  H    0.997851
    56  H    1.004614
    57  H    0.981022
    58  H    0.982377
    59  H    0.979957
    60  H    0.989551
    61  H    0.986465
    62  H    0.990158
    63  H    0.999980
    64  H    0.999971
    65  H    1.002152
    66  H    0.996524
    67  H    0.987295
    68  H    0.999829
    69  H    1.014791
    70  H    1.006159
    71  H    1.001843
    72  H    0.998214
    73  H    1.018149
    74  H    1.020071
    75  H    1.015488
    76  H    1.009988
    77  H    1.007300
    78  H    1.004674
    79  H    1.001108
    80  Mg  11.999993
    81  C    6.000052
    82  C    6.000071
    83  C    5.999945
    84  C    5.999918
    85  N    6.999995
    86  C    5.999943
    87  C    6.000011
    88  C    5.999998
    89  C    6.000009
    90  C    5.999983
    91  C    6.000001
    92  C    5.999997
    93  H    0.999986
    94  N    6.999975
    95  C    6.000018
    96  C    6.000033
    97  C    6.000020
    98  C    6.000089
    99  C    5.999992
   100  C    6.000026
   101  O    8.000043
   102  C    5.999993
   103  N    7.000022
   104  C    6.000046
   105  C    5.999990
   106  C    5.999999
   107  C    6.000000
   108  C    6.000004
   109  C    6.000006
   110  C    6.000000
   111  N    7.000004
   112  C    6.000009
   113  C    5.999921
   114  C    6.000047
   115  C    5.999923
   116  C    6.000004
   117  C    5.999958
   118  O    7.999933
   119  C    5.999991
   120  C    5.999995
   121  O    7.999986
   122  O    7.999998
   123  C    6.000019
   124  H    1.000012
   125  H    1.000020
   126  H    0.999994
   127  H    0.999987
   128  H    1.000011
   129  H    1.000014
   130  H    1.000013
   131  H    1.000005
   132  H    0.999991
   133  H    1.000008
   134  H    1.000003
   135  H    0.999997
   136  H    1.000027
   137  H    1.000038
   138  H    1.000041
   139  H    1.000018
   140  H    1.000015
   141  H    1.000041
   142  H    1.000003
   143  H    0.999996
   144  H    1.000014
   145  H    1.000000
   146  H    1.000013
   147  H    0.999998
   148  H    0.999996
   149  H    0.999993
   150  H    1.000000
   151  H    0.999999
   152  H    0.999974
   153  H    0.999945
   154  H    0.999959
   155  H    0.999982
   156  H    0.999972
   157  H    0.999981
   158  H    0.999992
 Sum of Mulliken charges = 624.00000

 Dipole moment (field-independent basis, Debye):
    X=             -5.8553    Y=              7.2344    Z=              4.9213  Tot=             10.5281
 Quadrupole moment (field-independent basis, Debye-Ang):
   XX=           -371.9755   YY=              0.0015   ZZ=             -2.6760
   XY=            234.1583   XZ=            158.6614   YZ=             -4.5036

 Normal termination of Gaussian 16 at Thu Sep 23 12:08:51 2021.
