 Gaussian 16, Revision A.03,
 Gaussian 16:  ES64L-G16RevA.03 25-Dec-2016

 ----------------------------------------------------------
 #p cam-b3lyp/Def2SVP td=(nstates=5) density=(transition=1)
 ----------------------------------------------------------

 --------------------------------
 TDDFT excited states in gaussian
 --------------------------------
 Symbolic Z-matrix:
 Charge =  0 Multiplicity = 1

                         Standard orientation:
 ---------------------------------------------------------------------
 Center     Atomic      Atomic             Coordinates (Angstroms)
 Number     Number       Type             X           Y           Z
 ---------------------------------------------------------------------
      1         12           0       16.330857    0.594317   -0.116916
      2          6           0       15.258728   -2.289546    1.599701
      3          6           0       13.827917    2.349924    1.360863
      4          6           0       17.329997    3.303082   -1.878806
      5          6           0       18.561407   -1.377786   -1.904092
      6          7           0       14.692121    0.081947    1.215880
      7          6           0       14.514212   -1.132500    1.884185
      8          6           0       13.443281   -0.976778    2.921697
      9          6           0       12.723217    0.314633    2.466134
     10          6           0       13.835322    0.974788    1.610911
     11          6           0       11.427985    0.154404    1.609110
     12          6           0       13.937593   -0.911899    4.415819
     13          6           0       13.177856   -1.790533    5.357948
     14          1           0       12.766267   -1.163363    6.703027
     15          7           0       15.737374    2.524009   -0.145518
     16          6           0       14.715937    3.111072    0.619708
     17          6           0       14.658652    4.495621    0.367329
     18          6           0       15.709835    4.836226   -0.608032
     19          6           0       16.307561    3.565023   -0.901823
     20          6           0       13.611978    5.439193    0.883536
     21          6           0       16.112321    6.197040   -1.325723
     22          8           0       17.045054    6.241805   -2.092343
     23          6           0       15.401203    7.500190   -0.990044
     24          7           0       17.674267    0.887713   -1.752346
     25          6           0       17.882452    2.112189   -2.301723
     26          6           0       18.935144    2.005650   -3.506236
     27          6           0       19.553428    0.552707   -3.309272
     28          6           0       18.532665   -0.043606   -2.249057
     29          6           0       18.365606    2.202466   -4.938370
     30          6           0       21.035714    0.546905   -2.791155
     31          6           0       21.902603   -0.269774   -3.654424
     32          7           0       16.795336   -1.420608   -0.200134
     33          6           0       17.810448   -2.065655   -0.905004
     34          6           0       17.843665   -3.457959   -0.548574
     35          6           0       16.850363   -3.590655    0.400171
     36          6           0       16.272026   -2.377770    0.605124
     37          6           0       18.896823   -4.441219   -1.122692
     38          6           0       16.159014   -4.534934    1.258599
     39          8           0       16.279636   -5.739777    1.291442
     40          6           0       15.049912   -3.706880    2.078769
     41          6           0       13.718167   -4.263113    1.777234
     42          8           0       13.223130   -4.342171    0.622337
     43          8           0       13.160421   -4.699030    2.943302
     44          6           0       12.004545   -5.617039    2.763777
     45          1           0       12.976503    2.838152    1.839515
     46          1           0       17.701710    4.120026   -2.500539
     47          1           0       19.215657   -1.994586   -2.522930
     48          1           0       12.659865   -1.733703    2.867927
     49          1           0       12.418502    0.957509    3.292122
     50          1           0       10.832479   -0.722274    1.867217
     51          1           0       11.741978    0.121293    0.565519
     52          1           0       10.760470    1.015590    1.593854
     53          1           0       13.877284    0.142283    4.685638
     54          1           0       15.002116   -1.133941    4.496074
     55          1           0       13.875837   -2.619566    5.475746
     56          1           0       12.226079   -2.071865    4.907498
     57          1           0       13.938977    6.126718    1.663898
     58          1           0       12.828908    4.866181    1.378446
     59          1           0       13.092950    6.077693    0.169177
     60          1           0       15.962014    8.279531   -1.504554
     61          1           0       15.273059    7.622993    0.085807
     62          1           0       14.344692    7.419044   -1.247255
     63          1           0       19.660048    2.816913   -3.437443
     64          1           0       19.472454    0.015993   -4.255688
     65          1           0       17.284600    2.320910   -5.019490
     66          1           0       18.605413    1.378553   -5.610963
     67          1           0       18.838675    3.098681   -5.340631
     68          1           0       21.055843    0.080943   -1.805272
     69          1           0       21.506840    1.528807   -2.751336
     70          1           0       22.447434    0.394710   -4.325553
     71          1           0       21.466221   -1.094062   -4.217425
     72          1           0       22.601836   -0.831123   -3.034600
     73          1           0       19.716833   -3.867148   -1.554774
     74          1           0       18.436668   -5.185189   -1.774585
     75          1           0       19.300759   -4.938679   -0.241735
     76          1           0       15.232886   -3.744875    3.152930
     77          1           0       11.697260   -6.029995    3.724439
     78          1           0       12.407077   -6.469059    2.215504
     79          1           0       11.245428   -5.061034    2.212884
     80         12           0      -16.121167    0.466622    0.306835
     81          6           0      -15.454828   -2.685724   -0.828317
     82          6           0      -12.733801    0.627917    1.384961
     83          6           0      -16.622500    3.712496    1.080709
     84          6           0      -19.044087    0.498717   -1.588592
     85          7           0      -14.136456   -0.816123   -0.075680
     86          6           0      -14.228245   -2.148219   -0.347364
     87          6           0      -12.864393   -2.777592   -0.278484
     88          6           0      -11.955714   -1.676103    0.421923
     89          6           0      -12.969397   -0.507199    0.632400
     90          6           0      -10.992964   -2.163554    1.442230
     91          6           0      -12.226284   -3.442998   -1.588230
     92          6           0      -12.573886   -2.854361   -2.923388
     93          1           0      -11.420839   -2.572629   -3.876490
     94          7           0      -14.928259    1.864229    1.328166
     95          6           0      -13.624755    1.750355    1.700545
     96          6           0      -13.138469    2.940693    2.333194
     97          6           0      -14.329082    3.835737    2.358527
     98          6           0      -15.373154    3.144829    1.570619
     99          6           0      -11.815322    3.207052    2.873852
    100          6           0      -14.489736    5.191153    3.031871
    101          8           0      -13.558491    5.740762    3.503478
    102          6           0      -15.745738    6.015456    3.093547
    103          7           0      -17.527392    1.905311   -0.285284
    104          6           0      -17.598226    3.097540    0.326207
    105          6           0      -18.759359    4.010342   -0.333757
    106          6           0      -19.706261    2.830605   -0.873250
    107          6           0      -18.688615    1.718516   -0.963997
    108          6           0      -19.469689    4.977121    0.617798
    109          6           0      -20.475620    3.218640   -2.148850
    110          6           0      -21.980776    2.952217   -2.268686
    111          7           0      -17.024286   -0.783133   -1.049926
    112          6           0      -18.232397   -0.689675   -1.729639
    113          6           0      -18.559256   -1.900322   -2.377004
    114          6           0      -17.538878   -2.770571   -2.030510
    115          6           0      -16.603653   -2.047962   -1.208012
    116          6           0      -19.781177   -2.209242   -3.185683
    117          6           0      -17.006067   -4.068298   -2.074077
    118          8           0      -17.468099   -5.041859   -2.665670
    119          6           0      -15.574756   -4.049426   -1.465923
    120          6           0      -15.603192   -5.209761   -0.481990
    121          8           0      -14.756712   -6.128233   -0.456392
    122          8           0      -16.614404   -4.963738    0.416624
    123          6           0      -16.775203   -5.758670    1.658681
    124          1           0      -11.659309    0.659297    1.576827
    125          1           0      -16.689447    4.799849    1.154167
    126          1           0      -19.996782    0.494433   -2.121593
    127          1           0      -12.928584   -3.667246    0.349080
    128          1           0      -11.329023   -1.262565   -0.367705
    129          1           0      -11.019363   -1.593692    2.370950
    130          1           0       -9.986381   -2.275966    1.039390
    131          1           0      -11.284394   -3.164342    1.761106
    132          1           0      -12.483928   -4.492554   -1.730667
    133          1           0      -11.144599   -3.305984   -1.572044
    134          1           0      -13.292481   -2.036179   -2.888851
    135          1           0      -13.064889   -3.642598   -3.495039
    136          1           0      -11.388273    2.269952    3.229659
    137          1           0      -11.804165    3.931373    3.687434
    138          1           0      -11.214328    3.594132    2.050215
    139          1           0      -16.420211    5.159166    3.116447
    140          1           0      -15.904918    6.614998    2.197815
    141          1           0      -15.868437    6.673265    3.954130
    142          1           0      -18.297734    4.494774   -1.194716
    143          1           0      -20.462243    2.420248   -0.204229
    144          1           0      -20.456230    4.557008    0.815502
    145          1           0      -19.392892    5.998935    0.247323
    146          1           0      -18.986243    5.052686    1.591341
    147          1           0      -19.983908    2.704036   -2.974812
    148          1           0      -20.261275    4.266390   -2.360039
    149          1           0      -22.629934    3.763034   -2.599594
    150          1           0      -22.402124    2.483056   -1.378647
    151          1           0      -22.000929    2.100800   -2.948220
    152          1           0      -20.136016   -3.236724   -3.101694
    153          1           0      -19.561835   -2.001332   -4.233204
    154          1           0      -20.652774   -1.623545   -2.890576
    155          1           0      -14.943523   -4.226335   -2.335903
    156          1           0      -17.074619   -5.148612    2.510723
    157          1           0      -15.820875   -6.237035    1.879558
    158          1           0      -17.480181   -6.587972    1.701129
 ---------------------------------------------------------------------

 SCF Done:  E(RCAM-B3LYP) =  -4069.78071011     A.U. after   19 cycles

 Excitation energies and oscillator strengths:

 Excited State   1:      Singlet-A      1.6349 eV  758.38 nm  f=0.3822  <S**2>=0.000
     309 -> 315       -0.16909
     311 -> 313        0.68876
     309 <- 315       -0.10870
 This state for optimization and/or second-order correction.
 Total Energy, E(TD-HF/TD-DFT) =  -4069.72063023
 Copying the excited state density for this state as the 1-particle RhoCI density.

 Excited State   2:      Singlet-A      1.7438 eV  711.01 nm  f=0.3977  <S**2>=0.000
     310 -> 316        0.17843
     312 -> 314        0.68458
     310 <- 316        0.10697

 Excited State   3:      Singlet-A      2.1489 eV  576.98 nm  f=0.1483  <S**2>=0.000
     309 -> 313        0.65208
     311 -> 315        0.25544

 Excited State   4:      Singlet-A      2.2019 eV  563.09 nm  f=0.1593  <S**2>=0.000
     310 -> 314        0.65401
     312 -> 316       -0.24988

 Excited State   5:      Singlet-A      2.9216 eV  424.37 nm  f=0.0000  <S**2>=0.000
     312 -> 313        0.70709

 The electronic state is 1-A.
 Alpha  occ. eigenvalues --  -46.89994 -46.87165 -19.26264 -19.25646 -19.20366
 Alpha  occ. eigenvalues --  -19.19870 -19.19500 -19.19022 -19.18521 -19.17289
 Alpha  occ. eigenvalues --  -14.42626 -14.42081 -14.42046 -14.41486 -14.40100
 Alpha  occ. eigenvalues --  -14.39705 -14.39272 -14.38539 -10.40519 -10.39415
 Alpha  occ. eigenvalues --  -10.36325 -10.35023 -10.34320 -10.33626 -10.32862
 Alpha  occ. eigenvalues --  -10.32165 -10.32139 -10.31652 -10.31057 -10.31033
 Alpha  occ. eigenvalues --  -10.30970 -10.30806 -10.30741 -10.30613 -10.30605
 Alpha  occ. eigenvalues --  -10.30603 -10.30421 -10.30221 -10.29903 -10.29435
 Alpha  occ. eigenvalues --  -10.29082 -10.28940 -10.28924 -10.28901 -10.28653
 Alpha  occ. eigenvalues --  -10.28506 -10.28479 -10.28339 -10.28245 -10.28121
 Alpha  occ. eigenvalues --  -10.28046 -10.28017 -10.28002 -10.27885 -10.27849
 Alpha  occ. eigenvalues --  -10.27848 -10.27750 -10.27742 -10.27627 -10.27597
 Alpha  occ. eigenvalues --  -10.27564 -10.27557 -10.27394 -10.27276 -10.27201
 Alpha  occ. eigenvalues --  -10.26934 -10.26832 -10.26819 -10.26775 -10.26738
 Alpha  occ. eigenvalues --  -10.26709 -10.26487 -10.26388 -10.26336 -10.26262
 Alpha  occ. eigenvalues --  -10.26117 -10.26107 -10.26069 -10.25777 -10.25698
 Alpha  occ. eigenvalues --  -10.25560 -10.25321 -10.25213 -10.25135 -10.24642
 Alpha  occ. eigenvalues --  -10.24339  -3.18466  -3.15893  -1.93324  -1.92958
 Alpha  occ. eigenvalues --   -1.92741  -1.90798  -1.90337  -1.90218  -1.15744
 Alpha  occ. eigenvalues --   -1.15723  -1.11691  -1.11466  -1.10309  -1.09401
 Alpha  occ. eigenvalues --   -1.07295  -1.06320  -1.05215  -1.04926  -1.04411
 Alpha  occ. eigenvalues --   -1.03327  -1.02985  -1.02538  -1.02204  -1.01411
 Alpha  occ. eigenvalues --   -0.93740  -0.92565  -0.89888  -0.89193  -0.88786
 Alpha  occ. eigenvalues --   -0.88648  -0.88453  -0.88015  -0.87990  -0.87302
 Alpha  occ. eigenvalues --   -0.87013  -0.86399  -0.85939  -0.85811  -0.84601
 Alpha  occ. eigenvalues --   -0.84298  -0.84044  -0.83816  -0.83149  -0.82893
 Alpha  occ. eigenvalues --   -0.82227  -0.82094  -0.81178  -0.81033  -0.80649
 Alpha  occ. eigenvalues --   -0.80640  -0.78565  -0.78219  -0.77856  -0.77308
 Alpha  occ. eigenvalues --   -0.77046  -0.76761  -0.76746  -0.75720  -0.75529
 Alpha  occ. eigenvalues --   -0.74869  -0.73638  -0.72867  -0.71806  -0.70914
 Alpha  occ. eigenvalues --   -0.70079  -0.69442  -0.68594  -0.68455  -0.68102
 Alpha  occ. eigenvalues --   -0.67576  -0.66621  -0.66529  -0.66322  -0.65543
 Alpha  occ. eigenvalues --   -0.65500  -0.65165  -0.64767  -0.64556  -0.64453
 Alpha  occ. eigenvalues --   -0.64027  -0.63646  -0.61931  -0.60333  -0.60306
 Alpha  occ. eigenvalues --   -0.60102  -0.59446  -0.59234  -0.58941  -0.58194
 Alpha  occ. eigenvalues --   -0.58115  -0.57675  -0.57673  -0.57607  -0.57273
 Alpha  occ. eigenvalues --   -0.56583  -0.56144  -0.55848  -0.55667  -0.55492
 Alpha  occ. eigenvalues --   -0.55380  -0.55165  -0.54979  -0.54515  -0.54021
 Alpha  occ. eigenvalues --   -0.53829  -0.53542  -0.53420  -0.53325  -0.53232
 Alpha  occ. eigenvalues --   -0.52611  -0.52569  -0.52560  -0.52128  -0.51902
 Alpha  occ. eigenvalues --   -0.51871  -0.51856  -0.51808  -0.51540  -0.51403
 Alpha  occ. eigenvalues --   -0.51130  -0.51015  -0.50880  -0.50744  -0.50644
 Alpha  occ. eigenvalues --   -0.50444  -0.50093  -0.50035  -0.49788  -0.49767
 Alpha  occ. eigenvalues --   -0.49515  -0.49438  -0.49396  -0.49234  -0.49092
 Alpha  occ. eigenvalues --   -0.49051  -0.48702  -0.48280  -0.47935  -0.47922
 Alpha  occ. eigenvalues --   -0.47661  -0.47614  -0.47357  -0.47276  -0.47242
 Alpha  occ. eigenvalues --   -0.47135  -0.46954  -0.46771  -0.46631  -0.46465
 Alpha  occ. eigenvalues --   -0.46443  -0.46194  -0.46131  -0.45831  -0.45758
 Alpha  occ. eigenvalues --   -0.45665  -0.45580  -0.45391  -0.45370  -0.45071
 Alpha  occ. eigenvalues --   -0.45068  -0.44934  -0.44730  -0.44660  -0.44440
 Alpha  occ. eigenvalues --   -0.44320  -0.44205  -0.44050  -0.43436  -0.43384
 Alpha  occ. eigenvalues --   -0.43341  -0.43124  -0.42904  -0.42859  -0.42758
 Alpha  occ. eigenvalues --   -0.42686  -0.42598  -0.42424  -0.42264  -0.42124
 Alpha  occ. eigenvalues --   -0.41998  -0.41924  -0.41864  -0.41777  -0.41533
 Alpha  occ. eigenvalues --   -0.41336  -0.41210  -0.40934  -0.40614  -0.40467
 Alpha  occ. eigenvalues --   -0.40281  -0.40057  -0.39139  -0.39082  -0.38826
 Alpha  occ. eigenvalues --   -0.38725  -0.38339  -0.38037  -0.37832  -0.37815
 Alpha  occ. eigenvalues --   -0.37415  -0.36929  -0.36743  -0.36316  -0.36197
 Alpha  occ. eigenvalues --   -0.35974  -0.35652  -0.34831  -0.34230  -0.34125
 Alpha  occ. eigenvalues --   -0.33913  -0.33139  -0.33133  -0.31746  -0.31618
 Alpha  occ. eigenvalues --   -0.31256  -0.30943  -0.30843  -0.30554  -0.29969
 Alpha  occ. eigenvalues --   -0.29599  -0.29546  -0.28402  -0.24510  -0.23953
 Alpha  occ. eigenvalues --   -0.21768  -0.21512
 Alpha virt. eigenvalues --   -0.09714  -0.08996  -0.02007  -0.01253   0.00097
 Alpha virt. eigenvalues --    0.00754   0.00953   0.02643   0.02809   0.03464
 Alpha virt. eigenvalues --    0.04523   0.04525   0.04865   0.05421   0.05866

 Mulliken charges:
               1
     1  Mg  11.999972
     2  C    6.000417
     3  C    6.000119
     4  C    5.999567
     5  C    5.999926
     6  N    7.000231
     7  C    5.999585
     8  C    6.000093
     9  C    5.999890
    10  C    6.000166
    11  C    5.999903
    12  C    6.000053
    13  C    5.999936
    14  H    1.000116
    15  N    6.999973
    16  C    6.000254
    17  C    6.000349
    18  C    6.000142
    19  C    6.000379
    20  C    5.999771
    21  C    6.000154
    22  O    8.000196
    23  C    5.999953
    24  N    6.999832
    25  C    6.000405
    26  C    5.999922
    27  C    6.000054
    28  C    5.999822
    29  C    6.000029
    30  C    6.000077
    31  C    6.000059
    32  N    6.999988
    33  C    5.999710
    34  C    5.999579
    35  C    6.000039
    36  C    5.999583
    37  C    6.000048
    38  C    5.999773
    39  O    7.999615
    40  C    5.999952
    41  C    5.999968
    42  O    7.999940
    43  O    8.000001
    44  C    6.000020
    45  H    1.000391
    46  H    1.000001
    47  H    0.999707
    48  H    1.000001
    49  H    1.000178
    50  H    1.000239
    51  H    0.999960
    52  H    1.000223
    53  H    0.999918
    54  H    0.999957
    55  H    0.999950
    56  H    1.000054
    57  H    1.000348
    58  H    1.000346
    59  H    1.000368
    60  H    1.000116
    61  H    1.000106
    62  H    1.000162
    63  H    0.999942
    64  H    0.999896
    65  H    0.999993
    66  H    1.000000
    67  H    0.999946
    68  H    1.000029
    69  H    0.999842
    70  H    0.999863
    71  H    0.999972
    72  H    0.999938
    73  H    0.999784
    74  H    0.999661
    75  H    0.999731
    76  H    0.999926
    77  H    0.999972
    78  H    0.999894
    79  H    1.000026
    80  Mg  11.996756
    81  C    5.994572
    82  C    6.022508
    83  C    6.022573
    84  C    5.979234
    85  N    7.007175
    86  C    6.027899
    87  C    5.989495
    88  C    6.015375
    89  C    5.960536
    90  C    6.001142
    91  C    5.999183
    92  C    5.996827
    93  H    1.011380
    94  N    7.006991
    95  C    5.949552
    96  C    5.976134
    97  C    5.992755
    98  C    5.952573
    99  C    6.006295
   100  C    5.989089
   101  O    7.979535
   102  C    5.999816
   103  N    6.995970
   104  C    5.969142
   105  C    6.010327
   106  C    5.986968
   107  C    6.039539
   108  C    6.000466
   109  C    5.998055
   110  C    6.001368
   111  N    6.995620
   112  C    6.040414
   113  C    6.023376
   114  C    6.009410
   115  C    6.029001
   116  C    5.996301
   117  C    6.015490
   118  O    8.035932
   119  C    5.999054
   120  C    6.006045
   121  O    8.011359
   122  O    7.994604
   123  C    5.994299
   124  H    0.991192
   125  H    0.993296
   126  H    1.007599
   127  H    0.998502
   128  H    0.994221
   129  H    1.005952
   130  H    0.995761
   131  H    0.990395
   132  H    0.997034
   133  H    1.010103
   134  H    0.995485
   135  H    0.996092
   136  H    0.979744
   137  H    0.983096
   138  H    0.976387
   139  H    0.995202
   140  H    0.987475
   141  H    0.986435
   142  H    0.995478
   143  H    1.004163
   144  H    0.991458
   145  H    0.998814
   146  H    1.007042
   147  H    0.996883
   148  H    1.010672
   149  H    1.005005
   150  H    1.001112
   151  H    0.994880
   152  H    1.014464
   153  H    1.019190
   154  H    1.019264
   155  H    1.008647
   156  H    1.007482
   157  H    1.007014
   158  H    1.004330
 Sum of Mulliken charges = 624.00000

 Dipole moment (field-independent basis, Debye):
    X=             -5.4952    Y=             -7.6829    Z=             -5.8378  Tot=             11.1043
 Quadrupole moment (field-independent basis, Debye-Ang):
   XX=            169.5843   YY=             -3.8461   ZZ=             -0.5739
   XY=            122.0474   XZ=             92.6701   YZ=             -5.0552

 Normal termination of Gaussian 16 at Tue Sep 21 21:00:59 2021.
