 Gaussian 16, Revision A.03,
 Gaussian 16:  ES64L-G16RevA.03 25-Dec-2016

 ----------------------------------------------------------
 #p cam-b3lyp/Def2SVP td=(nstates=5) density=(transition=1)
 ----------------------------------------------------------

 --------------------------------
 TDDFT excited states in gaussian
 --------------------------------
 Symbolic Z-matrix:
 Charge =  0 Multiplicity = 1

                         Standard orientation:
 ---------------------------------------------------------------------
 Center     Atomic      Atomic             Coordinates (Angstroms)
 Number     Number       Type             X           Y           Z
 ---------------------------------------------------------------------
      1         12           0      -30.064519   -0.451914    0.510745
      2          6           0      -29.428087    2.337511   -1.460030
      3          6           0      -28.938042   -2.347733   -2.166304
      4          6           0      -31.148225   -3.194231    2.205301
      5          6           0      -31.306530    1.618104    2.986291
      6          7           0      -29.325634   -0.042695   -1.595391
      7          6           0      -29.105247    1.189736   -2.191341
      8          6           0      -28.622556    1.095163   -3.691987
      9          6           0      -28.804690   -0.453194   -3.935079
     10          6           0      -29.079361   -1.006252   -2.488176
     11          6           0      -29.883294   -0.982662   -4.884703
     12          6           0      -27.193602    1.647641   -3.845243
     13          6           0      -27.042314    2.977128   -4.536427
     14          1           0      -25.811984    3.150635   -5.444584
     15          7           0      -29.892432   -2.496023    0.209691
     16          6           0      -29.330301   -3.019841   -0.912495
     17          6           0      -29.424930   -4.483997   -0.752228
     18          6           0      -30.134372   -4.764545    0.425980
     19          6           0      -30.418520   -3.515124    1.017630
     20          6           0      -28.729192   -5.395125   -1.680225
     21          6           0      -30.576150   -6.078993    0.999563
     22          8           0      -31.117246   -6.196418    2.134039
     23          6           0      -30.462786   -7.327205    0.312845
     24          7           0      -30.983685   -0.746725    2.322670
     25          6           0      -31.309498   -1.966161    2.831951
     26          6           0      -31.984391   -1.898429    4.145185
     27          6           0      -31.992811   -0.357080    4.448498
     28          6           0      -31.462246    0.187850    3.175954
     29          6           0      -33.380584   -2.530116    4.421135
     30          6           0      -31.236163    0.085454    5.796862
     31          6           0      -29.700533    0.336577    5.866976
     32          7           0      -30.378484    1.542023    0.767510
     33          6           0      -30.853768    2.247778    1.835102
     34          6           0      -30.658979    3.616839    1.632765
     35          6           0      -30.168016    3.676441    0.271817
     36          6           0      -29.993750    2.384981   -0.184202
     37          6           0      -30.900950    4.757432    2.619644
     38          6           0      -29.660423    4.609484   -0.692688
     39          8           0      -29.442955    5.804076   -0.691277
     40          6           0      -29.369732    3.752636   -1.974459
     41          6           0      -30.390759    4.028259   -3.004603
     42          8           0      -31.258985    3.231007   -3.422723
     43          8           0      -30.362904    5.285389   -3.498478
     44          6           0      -31.182088    5.626164   -4.711370
     45          1           0      -28.643130   -2.939547   -3.034616
     46          1           0      -31.550947   -4.030686    2.780616
     47          1           0      -31.517970    2.335288    3.782780
     48          1           0      -29.374109    1.466935   -4.389233
     49          1           0      -27.828724   -0.811369   -4.262500
     50          1           0      -30.667282   -1.486985   -4.319295
     51          1           0      -29.424513   -1.804647   -5.432233
     52          1           0      -30.328004   -0.242827   -5.551164
     53          1           0      -26.678560    0.923833   -4.477942
     54          1           0      -26.713329    1.620779   -2.867125
     55          1           0      -26.987310    3.742206   -3.761557
     56          1           0      -27.892602    3.292801   -5.141124
     57          1           0      -28.006387   -5.923519   -1.059910
     58          1           0      -28.212838   -4.988583   -2.550783
     59          1           0      -29.437714   -6.123134   -2.075236
     60          1           0      -30.798981   -7.124693   -0.703704
     61          1           0      -30.922338   -8.129441    0.888749
     62          1           0      -29.418047   -7.597355    0.158883
     63          1           0      -31.238645   -2.416783    4.747199
     64          1           0      -33.023146   -0.008919    4.511023
     65          1           0      -33.323826   -3.353942    5.132660
     66          1           0      -33.806506   -2.956833    3.512426
     67          1           0      -34.124877   -1.807255    4.755005
     68          1           0      -31.422869   -0.768094    6.448897
     69          1           0      -31.845913    0.939160    6.093037
     70          1           0      -29.184419    0.348075    4.907327
     71          1           0      -29.152662   -0.248297    6.606347
     72          1           0      -29.628610    1.331476    6.304449
     73          1           0      -31.589549    5.502658    2.220061
     74          1           0      -29.951974    5.274714    2.760005
     75          1           0      -31.208098    4.437865    3.615803
     76          1           0      -28.459006    4.146134   -2.426270
     77          1           0      -30.682902    6.566977   -4.943711
     78          1           0      -32.250625    5.738710   -4.530861
     79          1           0      -31.043372    4.860466   -5.475259
     80         12           0       30.615994    0.538735   -0.071694
     81          6           0       28.220538   -1.993264   -0.089992
     82          6           0       28.514789    2.456169    1.875859
     83          6           0       33.047196    2.742545   -0.099497
     84          6           0       33.065844   -1.929577   -1.161746
     85          7           0       28.489807    0.220171    0.749571
     86          6           0       27.712486   -0.899107    0.646549
     87          6           0       26.390346   -0.690134    1.295406
     88          6           0       26.509865    0.735989    1.966698
     89          6           0       27.942899    1.223458    1.518806
     90          6           0       25.317368    1.685365    1.688342
     91          6           0       26.043986   -1.786005    2.332486
     92          6           0       24.661646   -2.375046    2.056761
     93          1           0       23.642707   -2.400981    3.235785
     94          7           0       30.745234    2.374921    0.753021
     95          6           0       29.768597    3.040679    1.492258
     96          6           0       30.317796    4.364212    1.756977
     97          6           0       31.652587    4.493265    1.150512
     98          6           0       31.866151    3.172146    0.479463
     99          6           0       29.683220    5.309715    2.648706
    100          6           0       32.520004    5.657745    1.395094
    101          8           0       32.193558    6.627397    2.047120
    102          6           0       33.939627    5.742568    0.954255
    103          7           0       32.678136    0.389367   -0.506686
    104          6           0       33.396278    1.540662   -0.708800
    105          6           0       34.806691    1.205200   -1.145632
    106          6           0       34.896015   -0.266829   -0.989515
    107          6           0       33.512062   -0.652665   -0.812360
    108          6           0       35.230653    1.789128   -2.555279
    109          6           0       35.653559   -0.705049    0.310676
    110          6           0       36.363331   -1.978311    0.257526
    111          7           0       30.681945   -1.548522   -0.575256
    112          6           0       31.699195   -2.384035   -1.054859
    113          6           0       31.118374   -3.602699   -1.524304
    114          6           0       29.784278   -3.530399   -1.141304
    115          6           0       29.561397   -2.251538   -0.516810
    116          6           0       31.883627   -4.677922   -2.203332
    117          6           0       28.571403   -4.245624   -1.096773
    118          8           0       28.307870   -5.359074   -1.492767
    119          6           0       27.520806   -3.292132   -0.485131
    120          6           0       26.404304   -3.137450   -1.431152
    121          8           0       26.353609   -2.317696   -2.363586
    122          8           0       25.488348   -4.144503   -1.230294
    123          6           0       24.239208   -4.159053   -1.974073
    124          1           0       27.774784    3.029903    2.436729
    125          1           0       33.954103    3.351677   -0.128473
    126          1           0       33.829062   -2.627804   -1.511712
    127          1           0       25.715037   -0.487937    0.463560
    128          1           0       26.517066    0.705348    3.055810
    129          1           0       24.538624    0.990953    1.370668
    130          1           0       25.501603    2.514510    1.005123
    131          1           0       24.991621    2.152035    2.617650
    132          1           0       25.942161   -1.416061    3.352552
    133          1           0       26.836554   -2.530784    2.262398
    134          1           0       24.944497   -3.416530    1.904481
    135          1           0       24.292234   -1.916100    1.140885
    136          1           0       28.743004    4.873782    2.987104
    137          1           0       29.376779    6.256308    2.202550
    138          1           0       30.316935    5.461620    3.523159
    139          1           0       33.818077    5.414904   -0.078216
    140          1           0       34.526295    5.026368    1.530169
    141          1           0       34.311579    6.765781    1.011320
    142          1           0       35.419200    1.735637   -0.417474
    143          1           0       35.216338   -0.852735   -1.851091
    144          1           0       34.488605    2.504015   -2.911299
    145          1           0       35.518516    1.041547   -3.295264
    146          1           0       36.082059    2.466876   -2.499635
    147          1           0       34.953993   -0.711484    1.146628
    148          1           0       36.407629    0.033302    0.582835
    149          1           0       37.363554   -1.802466   -0.139857
    150          1           0       35.822976   -2.729994   -0.318827
    151          1           0       36.622253   -2.295554    1.268198
    152          1           0       32.633594   -4.262873   -2.876535
    153          1           0       31.260045   -5.399694   -2.731110
    154          1           0       32.459106   -5.129320   -1.395091
    155          1           0       27.001006   -3.725949    0.369204
    156          1           0       24.255849   -4.414436   -3.033653
    157          1           0       23.723187   -3.209152   -1.835870
    158          1           0       23.679480   -4.980386   -1.528157
 ---------------------------------------------------------------------

 SCF Done:  E(RCAM-B3LYP) =  -4069.78703304     A.U. after   18 cycles

 Excitation energies and oscillator strengths:

 Excited State   1:      Singlet-A      1.6751 eV  740.15 nm  f=0.3636  <S**2>=0.000
     309 -> 315       -0.18827
     311 -> 313        0.68339
     309 <- 315       -0.11090
 This state for optimization and/or second-order correction.
 Total Energy, E(TD-HF/TD-DFT) =  -4069.72547369
 Copying the excited state density for this state as the 1-particle RhoCI density.

 Excited State   2:      Singlet-A      1.7035 eV  727.83 nm  f=0.3904  <S**2>=0.000
     310 -> 316       -0.17724
     312 -> 314        0.68475
     310 <- 316       -0.10754

 Excited State   3:      Singlet-A      2.1859 eV  567.20 nm  f=0.1027  <S**2>=0.000
     309 -> 313        0.63557
     311 -> 315        0.29758

 Excited State   4:      Singlet-A      2.2075 eV  561.65 nm  f=0.1416  <S**2>=0.000
     310 -> 314        0.65096
     312 -> 316        0.26117

 Excited State   5:      Singlet-A      3.0925 eV  400.91 nm  f=0.0000  <S**2>=0.000
     312 -> 313        0.70711

 The electronic state is 1-A.
 Alpha  occ. eigenvalues --  -46.88959 -46.87529 -19.24888 -19.24064 -19.19382
 Alpha  occ. eigenvalues --  -19.18373 -19.18259 -19.18224 -19.17951 -19.17396
 Alpha  occ. eigenvalues --  -14.42343 -14.42002 -14.41947 -14.41860 -14.40284
 Alpha  occ. eigenvalues --  -14.39531 -14.39185 -14.38358 -10.39108 -10.38538
 Alpha  occ. eigenvalues --  -10.34517 -10.34227 -10.34178 -10.33720 -10.32013
 Alpha  occ. eigenvalues --  -10.31697 -10.31637 -10.31589 -10.31585 -10.31079
 Alpha  occ. eigenvalues --  -10.31067 -10.30957 -10.30803 -10.30592 -10.30490
 Alpha  occ. eigenvalues --  -10.30466 -10.30122 -10.30023 -10.29882 -10.29109
 Alpha  occ. eigenvalues --  -10.29003 -10.28904 -10.28571 -10.28563 -10.28556
 Alpha  occ. eigenvalues --  -10.28389 -10.28364 -10.28334 -10.28292 -10.28234
 Alpha  occ. eigenvalues --  -10.28147 -10.28140 -10.27985 -10.27837 -10.27828
 Alpha  occ. eigenvalues --  -10.27730 -10.27662 -10.27377 -10.27376 -10.27310
 Alpha  occ. eigenvalues --  -10.27255 -10.27251 -10.27224 -10.27193 -10.27157
 Alpha  occ. eigenvalues --  -10.27142 -10.27091 -10.26905 -10.26881 -10.26810
 Alpha  occ. eigenvalues --  -10.26747 -10.26695 -10.26484 -10.26456 -10.26314
 Alpha  occ. eigenvalues --  -10.26239 -10.25998 -10.25912 -10.25889 -10.25718
 Alpha  occ. eigenvalues --  -10.25666 -10.25567 -10.25201 -10.24880 -10.24739
 Alpha  occ. eigenvalues --  -10.24609  -3.17449  -3.16244  -1.92352  -1.91913
 Alpha  occ. eigenvalues --   -1.91739  -1.91154  -1.90703  -1.90548  -1.15467
 Alpha  occ. eigenvalues --   -1.15133  -1.10074  -1.09858  -1.09525  -1.07949
 Alpha  occ. eigenvalues --   -1.06727  -1.05129  -1.05001  -1.04838  -1.04084
 Alpha  occ. eigenvalues --   -1.03818  -1.03237  -1.03004  -1.02226  -1.01588
 Alpha  occ. eigenvalues --   -0.93080  -0.92669  -0.90780  -0.89609  -0.89066
 Alpha  occ. eigenvalues --   -0.89034  -0.88446  -0.88297  -0.87725  -0.87574
 Alpha  occ. eigenvalues --   -0.87258  -0.87006  -0.86312  -0.86096  -0.85279
 Alpha  occ. eigenvalues --   -0.84559  -0.84377  -0.83644  -0.83473  -0.82805
 Alpha  occ. eigenvalues --   -0.82588  -0.82460  -0.81426  -0.80985  -0.80840
 Alpha  occ. eigenvalues --   -0.80543  -0.78686  -0.78553  -0.77992  -0.77507
 Alpha  occ. eigenvalues --   -0.77136  -0.76866  -0.76324  -0.76208  -0.75399
 Alpha  occ. eigenvalues --   -0.75293  -0.73425  -0.73110  -0.72050  -0.71332
 Alpha  occ. eigenvalues --   -0.70103  -0.69353  -0.69124  -0.68772  -0.68009
 Alpha  occ. eigenvalues --   -0.68000  -0.67532  -0.67098  -0.66483  -0.65947
 Alpha  occ. eigenvalues --   -0.65290  -0.65197  -0.65085  -0.64699  -0.64609
 Alpha  occ. eigenvalues --   -0.64363  -0.62050  -0.61489  -0.60755  -0.59958
 Alpha  occ. eigenvalues --   -0.59642  -0.59513  -0.59480  -0.59146  -0.58977
 Alpha  occ. eigenvalues --   -0.58591  -0.57932  -0.57793  -0.57428  -0.57302
 Alpha  occ. eigenvalues --   -0.56421  -0.56167  -0.55914  -0.55634  -0.55497
 Alpha  occ. eigenvalues --   -0.55160  -0.54893  -0.54450  -0.54440  -0.54259
 Alpha  occ. eigenvalues --   -0.53826  -0.53245  -0.53209  -0.52908  -0.52847
 Alpha  occ. eigenvalues --   -0.52565  -0.52525  -0.52436  -0.52306  -0.52111
 Alpha  occ. eigenvalues --   -0.52072  -0.51883  -0.51758  -0.51697  -0.51300
 Alpha  occ. eigenvalues --   -0.51246  -0.51068  -0.50836  -0.50430  -0.50349
 Alpha  occ. eigenvalues --   -0.50162  -0.50023  -0.49760  -0.49672  -0.49635
 Alpha  occ. eigenvalues --   -0.49424  -0.49402  -0.49135  -0.48938  -0.48865
 Alpha  occ. eigenvalues --   -0.48803  -0.48577  -0.48524  -0.48475  -0.48184
 Alpha  occ. eigenvalues --   -0.47926  -0.47763  -0.47636  -0.47225  -0.47149
 Alpha  occ. eigenvalues --   -0.47015  -0.46805  -0.46751  -0.46616  -0.46493
 Alpha  occ. eigenvalues --   -0.46330  -0.46247  -0.46224  -0.45988  -0.45754
 Alpha  occ. eigenvalues --   -0.45703  -0.45399  -0.45321  -0.45262  -0.45169
 Alpha  occ. eigenvalues --   -0.44949  -0.44800  -0.44602  -0.44495  -0.44247
 Alpha  occ. eigenvalues --   -0.44063  -0.43978  -0.43815  -0.43790  -0.43699
 Alpha  occ. eigenvalues --   -0.43444  -0.43413  -0.43246  -0.43077  -0.42981
 Alpha  occ. eigenvalues --   -0.42890  -0.42757  -0.42580  -0.42452  -0.42100
 Alpha  occ. eigenvalues --   -0.41679  -0.41600  -0.41598  -0.41479  -0.41348
 Alpha  occ. eigenvalues --   -0.41184  -0.41123  -0.40791  -0.40688  -0.40330
 Alpha  occ. eigenvalues --   -0.40278  -0.39978  -0.39701  -0.39227  -0.38922
 Alpha  occ. eigenvalues --   -0.38501  -0.38201  -0.37815  -0.37752  -0.37348
 Alpha  occ. eigenvalues --   -0.36988  -0.36909  -0.36502  -0.36400  -0.36386
 Alpha  occ. eigenvalues --   -0.36337  -0.35600  -0.34363  -0.34304  -0.33730
 Alpha  occ. eigenvalues --   -0.33186  -0.33044  -0.32879  -0.31398  -0.30991
 Alpha  occ. eigenvalues --   -0.30694  -0.30611  -0.30031  -0.29896  -0.29892
 Alpha  occ. eigenvalues --   -0.29672  -0.29455  -0.29316  -0.24324  -0.23638
 Alpha  occ. eigenvalues --   -0.21590  -0.21108
 Alpha virt. eigenvalues --   -0.09179  -0.08687  -0.02527  -0.01306   0.00234
 Alpha virt. eigenvalues --    0.00688   0.02333   0.02365   0.02658   0.03572
 Alpha virt. eigenvalues --    0.04069   0.04977   0.05049   0.05443   0.05645

 Mulliken charges:
               1
     1  Mg  11.999997
     2  C    6.000173
     3  C    5.999950
     4  C    5.999800
     5  C    5.999964
     6  N    7.000017
     7  C    5.999830
     8  C    6.000073
     9  C    5.999981
    10  C    6.000112
    11  C    5.999969
    12  C    6.000025
    13  C    6.000016
    14  H    0.999958
    15  N    7.000000
    16  C    6.000211
    17  C    6.000212
    18  C    5.999996
    19  C    6.000267
    20  C    5.999910
    21  C    6.000087
    22  O    8.000148
    23  C    5.999963
    24  N    6.999950
    25  C    6.000248
    26  C    5.999902
    27  C    6.000069
    28  C    5.999875
    29  C    6.000002
    30  C    6.000037
    31  C    6.000015
    32  N    6.999972
    33  C    5.999867
    34  C    5.999831
    35  C    5.999965
    36  C    5.999790
    37  C    6.000046
    38  C    5.999922
    39  O    7.999806
    40  C    5.999983
    41  C    5.999985
    42  O    7.999961
    43  O    8.000002
    44  C    6.000024
    45  H    1.000073
    46  H    1.000069
    47  H    0.999910
    48  H    0.999970
    49  H    1.000016
    50  H    0.999978
    51  H    1.000013
    52  H    1.000071
    53  H    0.999955
    54  H    0.999996
    55  H    1.000018
    56  H    0.999998
    57  H    1.000148
    58  H    1.000149
    59  H    1.000154
    60  H    1.000018
    61  H    1.000092
    62  H    1.000053
    63  H    1.000005
    64  H    0.999990
    65  H    1.000005
    66  H    0.999989
    67  H    1.000056
    68  H    0.999924
    69  H    0.999996
    70  H    1.000010
    71  H    0.999948
    72  H    0.999995
    73  H    0.999871
    74  H    0.999874
    75  H    0.999885
    76  H    0.999941
    77  H    0.999971
    78  H    0.999978
    79  H    0.999970
    80  Mg  12.001309
    81  C    6.017979
    82  C    5.979224
    83  C    5.975449
    84  C    6.023874
    85  N    7.004602
    86  C    5.965942
    87  C    6.014205
    88  C    5.990982
    89  C    6.029881
    90  C    5.996886
    91  C    6.001076
    92  C    6.001153
    93  H    0.991885
    94  N    6.985789
    95  C    6.050831
    96  C    6.020509
    97  C    6.012751
    98  C    6.044727
    99  C    5.987885
   100  C    6.006760
   101  O    8.018373
   102  C    5.998807
   103  N    7.007563
   104  C    6.034737
   105  C    5.992090
   106  C    6.007729
   107  C    5.960997
   108  C    5.998811
   109  C    6.008238
   110  C    6.000833
   111  N    7.005896
   112  C    5.951318
   113  C    5.976000
   114  C    5.994898
   115  C    5.963715
   116  C    6.001997
   117  C    5.982606
   118  O    7.967167
   119  C    6.002678
   120  C    5.995045
   121  O    7.991941
   122  O    8.000451
   123  C    6.003750
   124  H    1.009812
   125  H    1.011088
   126  H    0.991071
   127  H    0.995943
   128  H    1.000947
   129  H    1.012393
   130  H    0.997257
   131  H    0.999911
   132  H    0.991875
   133  H    1.007404
   134  H    1.004241
   135  H    0.999344
   136  H    1.020789
   137  H    1.023222
   138  H    1.021249
   139  H    1.005884
   140  H    1.010701
   141  H    1.012485
   142  H    0.999657
   143  H    1.002219
   144  H    0.997458
   145  H    1.013025
   146  H    1.002114
   147  H    0.994329
   148  H    0.985150
   149  H    0.994534
   150  H    1.006217
   151  H    0.996197
   152  H    0.980370
   153  H    0.985617
   154  H    0.980943
   155  H    0.990548
   156  H    0.997052
   157  H    0.993635
   158  H    0.995982
 Sum of Mulliken charges = 624.00000

 Dipole moment (field-independent basis, Debye):
    X=              0.8049    Y=             10.1884    Z=              3.1654  Tot=             10.6991
 Quadrupole moment (field-independent basis, Debye-Ang):
   XX=             44.5520   YY=              8.1164   ZZ=              1.3682
   XY=            316.2173   XZ=             95.4878   YZ=              2.1240

 Normal termination of Gaussian 16 at Wed Sep 22 00:07:44 2021.
