 Gaussian 16, Revision A.03,
 Gaussian 16:  ES64L-G16RevA.03 25-Dec-2016

 -----------------------------------
 #p cam-b3lyp/Def2SVP td=(nstates=5)
 -----------------------------------

 --------------------------------
 TDDFT excited states in gaussian
 --------------------------------
 Symbolic Z-matrix:
 Charge =  0 Multiplicity = 1

                         Standard orientation:
 ---------------------------------------------------------------------
 Center     Atomic      Atomic             Coordinates (Angstroms)
 Number     Number       Type             X           Y           Z
 ---------------------------------------------------------------------
      1         12           0      -30.594416    0.136826    0.376492
      2          6           0      -28.312129   -1.728740   -1.378673
      3          6           0      -31.195564    1.959093   -2.465231
      4          6           0      -32.821753    2.105983    2.162420
      5          6           0      -29.629143   -1.437209    3.310947
      6          7           0      -29.803296    0.170757   -1.723018
      7          6           0      -28.933405   -0.774709   -2.186495
      8          6           0      -28.675310   -0.595822   -3.603943
      9          6           0      -29.392663    0.688597   -3.988253
     10          6           0      -30.179632    1.022187   -2.646177
     11          6           0      -28.543450    1.902585   -4.501096
     12          6           0      -29.123183   -1.844874   -4.436896
     13          6           0      -28.282367   -2.188089   -5.714864
     14          1           0      -27.579021   -1.018040   -6.430355
     15          7           0      -31.916007    1.735229   -0.150267
     16          6           0      -32.005805    2.318665   -1.402448
     17          6           0      -33.011094    3.399663   -1.354283
     18          6           0      -33.511382    3.453274    0.017807
     19          6           0      -32.775922    2.400712    0.740119
     20          6           0      -33.383106    4.287642   -2.530472
     21          6           0      -34.638389    4.304166    0.555066
     22          8           0      -34.988905    4.163596    1.739895
     23          6           0      -35.357296    5.343245   -0.221173
     24          7           0      -31.102998    0.376197    2.454607
     25          6           0      -32.065234    1.194999    2.889140
     26          6           0      -32.342086    0.966000    4.384344
     27          6           0      -31.494134   -0.369810    4.754910
     28          6           0      -30.747351   -0.537920    3.384937
     29          6           0      -31.979894    2.226250    5.229066
     30          6           0      -32.341023   -1.630948    5.079134
     31          6           0      -32.287222   -2.112416    6.536762
     32          7           0      -29.196266   -1.256554    0.931420
     33          6           0      -28.892267   -1.806915    2.178704
     34          6           0      -27.812824   -2.810040    2.043489
     35          6           0      -27.573310   -2.765992    0.649747
     36          6           0      -28.422966   -1.811152    0.029743
     37          6           0      -27.226608   -3.649313    3.068904
     38          6           0      -26.819797   -3.427177   -0.435703
     39          8           0      -26.052622   -4.352977   -0.426907
     40          6           0      -27.247704   -2.741207   -1.781816
     41          6           0      -26.034597   -2.273980   -2.471630
     42          8           0      -25.401594   -1.299253   -2.034887
     43          8           0      -25.772785   -2.894277   -3.654783
     44          6           0      -24.712494   -2.362901   -4.505417
     45          1           0      -31.364590    2.519027   -3.387388
     46          1           0      -33.499849    2.760451    2.714507
     47          1           0      -29.450619   -1.992759    4.233848
     48          1           0      -27.601253   -0.457473   -3.732588
     49          1           0      -30.216812    0.492556   -4.675132
     50          1           0      -27.460913    1.840153   -4.616733
     51          1           0      -28.742285    2.749319   -3.844586
     52          1           0      -28.889270    2.302328   -5.454681
     53          1           0      -30.184749   -1.766118   -4.671673
     54          1           0      -29.203334   -2.701313   -3.767691
     55          1           0      -28.909289   -2.696135   -6.448183
     56          1           0      -27.417857   -2.814909   -5.498194
     57          1           0      -32.930534    3.972242   -3.469948
     58          1           0      -33.036714    5.309815   -2.375334
     59          1           0      -34.439788    4.168044   -2.769009
     60          1           0      -36.160527    5.703380    0.420941
     61          1           0      -35.764796    4.978534   -1.164965
     62          1           0      -34.652268    6.112419   -0.536927
     63          1           0      -33.386478    0.665161    4.468075
     64          1           0      -30.754493   -0.191782    5.535432
     65          1           0      -32.769559    2.530414    5.916227
     66          1           0      -31.781843    3.082159    4.583278
     67          1           0      -31.050122    1.949565    5.726696
     68          1           0      -32.073523   -2.496532    4.474226
     69          1           0      -33.395702   -1.482588    4.846276
     70          1           0      -32.087549   -1.264089    7.191518
     71          1           0      -31.460402   -2.816257    6.626680
     72          1           0      -33.210778   -2.661228    6.716358
     73          1           0      -26.712236   -4.518757    2.660126
     74          1           0      -27.951068   -4.005039    3.801250
     75          1           0      -26.385102   -3.104907    3.497628
     76          1           0      -27.742214   -3.572035   -2.286234
     77          1           0      -23.711267   -2.452696   -4.083129
     78          1           0      -24.939024   -1.344819   -4.821967
     79          1           0      -24.655484   -2.949652   -5.422112
     80         12           0       30.556430    0.462985   -0.350116
     81          6           0       27.882245   -1.765744    0.229434
     82          6           0       28.302201    3.119874   -0.185585
     83          6           0       33.220177    2.536303    0.119124
     84          6           0       32.724166   -2.361424    0.041671
     85          7           0       28.388717    0.620968   -0.055874
     86          6           0       27.525813   -0.389194    0.183476
     87          6           0       26.094285    0.156646    0.494876
     88          6           0       26.242963    1.658472   -0.029642
     89          6           0       27.789967    1.849324   -0.145618
     90          6           0       25.639121    2.087786   -1.386026
     91          6           0       25.826382    0.030772    2.042329
     92          6           0       24.356762   -0.321344    2.404141
     93          1           0       23.762371    0.435920    3.660685
     94          7           0       30.769920    2.614481   -0.269685
     95          6           0       29.705247    3.476152   -0.267728
     96          6           0       30.243064    4.783420   -0.266002
     97          6           0       31.658656    4.702182   -0.109070
     98          6           0       31.976807    3.235114   -0.129669
     99          6           0       29.429048    6.054578   -0.320672
    100          6           0       32.592985    5.827700    0.178120
    101          8           0       32.193506    6.964339    0.373600
    102          6           0       34.019447    5.696935    0.322809
    103          7           0       32.687581    0.083560    0.141891
    104          6           0       33.586369    1.159966    0.107795
    105          6           0       34.999229    0.667068    0.142029
    106          6           0       34.874383   -0.900897    0.184905
    107          6           0       33.370122   -1.102394    0.123069
    108          6           0       35.746906    1.209580   -1.082684
    109          6           0       35.719057   -1.573304    1.331829
    110          6           0       36.723602   -2.605335    0.917348
    111          7           0       30.392537   -1.688555    0.022424
    112          6           0       31.359943   -2.660825    0.091397
    113          6           0       30.739855   -4.003004    0.144129
    114          6           0       29.371882   -3.641232    0.265085
    115          6           0       29.224271   -2.276777    0.100188
    116          6           0       31.396938   -5.369235    0.262588
    117          6           0       28.075611   -4.191191    0.560717
    118          8           0       27.747148   -5.358559    0.823816
    119          6           0       27.042615   -3.064853    0.539567
    120          6           0       25.956401   -3.353075   -0.415512
    121          8           0       24.827607   -3.424830   -0.088008
    122          8           0       26.354549   -3.330149   -1.720860
    123          6           0       25.184932   -3.363194   -2.625523
    124          1           0       27.616733    3.969886   -0.217033
    125          1           0       34.034327    3.260845    0.171757
    126          1           0       33.215877   -3.321811    0.213321
    127          1           0       25.376531   -0.433992   -0.074669
    128          1           0       26.095651    2.431269    0.724625
    129          1           0       25.555678    1.228987   -2.053035
    130          1           0       26.154028    2.890641   -1.913756
    131          1           0       24.624735    2.417115   -1.163476
    132          1           0       26.144180    0.933466    2.564878
    133          1           0       26.485543   -0.774222    2.367422
    134          1           0       24.395866   -1.394653    2.590924
    135          1           0       23.832798   -0.149604    1.463632
    136          1           0       29.947254    6.945817   -0.674818
    137          1           0       29.103825    6.189572    0.710530
    138          1           0       28.438146    5.980627   -0.768759
    139          1           0       34.398046    5.320968   -0.628534
    140          1           0       34.273045    5.052622    1.165112
    141          1           0       34.436749    6.683243    0.525888
    142          1           0       35.469326    0.916372    1.093020
    143          1           0       35.062720   -1.448206   -0.738981
    144          1           0       35.222881    2.025575   -1.580922
    145          1           0       35.882822    0.442562   -1.845121
    146          1           0       36.636418    1.747334   -0.755867
    147          1           0       34.973922   -2.010513    1.996462
    148          1           0       36.382706   -0.884976    1.853887
    149          1           0       36.503648   -3.510532    1.482694
    150          1           0       37.739353   -2.314007    1.185351
    151          1           0       36.781087   -2.739727   -0.162850
    152          1           0       31.663951   -5.620450    1.289286
    153          1           0       32.249798   -5.496057   -0.405418
    154          1           0       30.558270   -6.020325    0.016283
    155          1           0       26.514473   -3.034948    1.491734
    156          1           0       25.558814   -3.342525   -3.649518
    157          1           0       24.527816   -2.514291   -2.437190
    158          1           0       24.629105   -4.300012   -2.607091
 ---------------------------------------------------------------------

 SCF Done:  E(RCAM-B3LYP) =  -4069.82455908     A.U. after   19 cycles

 Excitation energies and oscillator strengths:

 Excited State   1:      Singlet-A      1.6804 eV  737.81 nm  f=0.4062  <S**2>=0.000
     309 -> 315       -0.17287
     311 -> 313        0.68702
     309 <- 315       -0.10657
 This state for optimization and/or second-order correction.
 Total Energy, E(TD-HF/TD-DFT) =  -4069.76280401
 Copying the excited state density for this state as the 1-particle RhoCI density.

 Excited State   2:      Singlet-A      1.7299 eV  716.71 nm  f=0.3913  <S**2>=0.000
     310 -> 316       -0.18860
     312 -> 314        0.68240
     310 <- 316       -0.10885

 Excited State   3:      Singlet-A      2.2017 eV  563.14 nm  f=0.1138  <S**2>=0.000
     309 -> 313        0.64204
     311 -> 315        0.28114

 Excited State   4:      Singlet-A      2.2550 eV  549.82 nm  f=0.0851  <S**2>=0.000
     310 -> 314        0.62545
     312 -> 316        0.31653

 Excited State   5:      Singlet-A      2.9485 eV  420.50 nm  f=0.0000  <S**2>=0.000
     312 -> 313        0.70711

 The electronic state is 1-A.
 Alpha  occ. eigenvalues --  -46.90848 -46.88880 -19.25966 -19.25123 -19.19928
 Alpha  occ. eigenvalues --  -19.19293 -19.19037 -19.18855 -19.18361 -19.17332
 Alpha  occ. eigenvalues --  -14.42986 -14.42713 -14.41823 -14.41715 -14.39918
 Alpha  occ. eigenvalues --  -14.39485 -14.39312 -14.39239 -10.39552 -10.38741
 Alpha  occ. eigenvalues --  -10.34957 -10.34845 -10.34783 -10.33516 -10.32310
 Alpha  occ. eigenvalues --  -10.32254 -10.31996 -10.31871 -10.31832 -10.31075
 Alpha  occ. eigenvalues --  -10.30999 -10.30908 -10.30642 -10.30604 -10.30409
 Alpha  occ. eigenvalues --  -10.30194 -10.30100 -10.30011 -10.29914 -10.29869
 Alpha  occ. eigenvalues --  -10.29319 -10.29299 -10.29147 -10.29094 -10.29044
 Alpha  occ. eigenvalues --  -10.28920 -10.28781 -10.28688 -10.28516 -10.28472
 Alpha  occ. eigenvalues --  -10.28436 -10.28389 -10.28275 -10.28181 -10.28159
 Alpha  occ. eigenvalues --  -10.27995 -10.27895 -10.27761 -10.27760 -10.27551
 Alpha  occ. eigenvalues --  -10.27520 -10.27491 -10.27452 -10.27384 -10.27373
 Alpha  occ. eigenvalues --  -10.27212 -10.27051 -10.26982 -10.26979 -10.26819
 Alpha  occ. eigenvalues --  -10.26672 -10.26529 -10.26478 -10.26402 -10.26098
 Alpha  occ. eigenvalues --  -10.26061 -10.26060 -10.26010 -10.26004 -10.25761
 Alpha  occ. eigenvalues --  -10.25503 -10.25461 -10.25349 -10.25301 -10.25270
 Alpha  occ. eigenvalues --  -10.25245  -3.18995  -3.17303  -1.93909  -1.93431
 Alpha  occ. eigenvalues --   -1.93291  -1.92224  -1.91742  -1.91610  -1.17984
 Alpha  occ. eigenvalues --   -1.16430  -1.10941  -1.09564  -1.09051  -1.08966
 Alpha  occ. eigenvalues --   -1.08914  -1.07118  -1.05126  -1.05114  -1.04045
 Alpha  occ. eigenvalues --   -1.03762  -1.03447  -1.03369  -1.02547  -1.00950
 Alpha  occ. eigenvalues --   -0.92641  -0.92480  -0.89435  -0.89120  -0.89032
 Alpha  occ. eigenvalues --   -0.88274  -0.88247  -0.88073  -0.87701  -0.87187
 Alpha  occ. eigenvalues --   -0.87027  -0.86727  -0.86252  -0.85835  -0.84894
 Alpha  occ. eigenvalues --   -0.84667  -0.83938  -0.83559  -0.82725  -0.82527
 Alpha  occ. eigenvalues --   -0.82319  -0.81867  -0.81208  -0.80940  -0.80564
 Alpha  occ. eigenvalues --   -0.80544  -0.78671  -0.78430  -0.77625  -0.77549
 Alpha  occ. eigenvalues --   -0.77302  -0.76881  -0.76509  -0.76230  -0.75444
 Alpha  occ. eigenvalues --   -0.74884  -0.73158  -0.72589  -0.72531  -0.71501
 Alpha  occ. eigenvalues --   -0.69386  -0.69278  -0.69233  -0.68348  -0.68022
 Alpha  occ. eigenvalues --   -0.67971  -0.66913  -0.66912  -0.66364  -0.65830
 Alpha  occ. eigenvalues --   -0.65725  -0.65438  -0.65021  -0.65009  -0.64663
 Alpha  occ. eigenvalues --   -0.64321  -0.63320  -0.62718  -0.60092  -0.60036
 Alpha  occ. eigenvalues --   -0.59843  -0.59581  -0.59213  -0.59006  -0.58901
 Alpha  occ. eigenvalues --   -0.58743  -0.58323  -0.58216  -0.57281  -0.57091
 Alpha  occ. eigenvalues --   -0.56522  -0.56094  -0.56044  -0.55958  -0.55569
 Alpha  occ. eigenvalues --   -0.55335  -0.55148  -0.54713  -0.54566  -0.53967
 Alpha  occ. eigenvalues --   -0.53519  -0.53440  -0.53395  -0.53210  -0.52915
 Alpha  occ. eigenvalues --   -0.52837  -0.52777  -0.52669  -0.52407  -0.52279
 Alpha  occ. eigenvalues --   -0.52208  -0.51770  -0.51654  -0.51496  -0.51484
 Alpha  occ. eigenvalues --   -0.51345  -0.51271  -0.51160  -0.50903  -0.50200
 Alpha  occ. eigenvalues --   -0.50059  -0.49954  -0.49870  -0.49835  -0.49577
 Alpha  occ. eigenvalues --   -0.49360  -0.49281  -0.49051  -0.48984  -0.48632
 Alpha  occ. eigenvalues --   -0.48530  -0.48466  -0.48411  -0.48216  -0.48104
 Alpha  occ. eigenvalues --   -0.47942  -0.47539  -0.47462  -0.47343  -0.47190
 Alpha  occ. eigenvalues --   -0.47097  -0.46974  -0.46807  -0.46695  -0.46689
 Alpha  occ. eigenvalues --   -0.46368  -0.46343  -0.46279  -0.45860  -0.45771
 Alpha  occ. eigenvalues --   -0.45697  -0.45504  -0.45191  -0.45150  -0.45101
 Alpha  occ. eigenvalues --   -0.44911  -0.44867  -0.44696  -0.44520  -0.44363
 Alpha  occ. eigenvalues --   -0.44318  -0.44027  -0.43795  -0.43607  -0.43591
 Alpha  occ. eigenvalues --   -0.43481  -0.43341  -0.43156  -0.43015  -0.43001
 Alpha  occ. eigenvalues --   -0.42891  -0.42659  -0.42611  -0.42309  -0.42134
 Alpha  occ. eigenvalues --   -0.41833  -0.41794  -0.41478  -0.41291  -0.41146
 Alpha  occ. eigenvalues --   -0.41039  -0.40902  -0.40804  -0.40678  -0.40327
 Alpha  occ. eigenvalues --   -0.40147  -0.39983  -0.39645  -0.39529  -0.39246
 Alpha  occ. eigenvalues --   -0.38687  -0.38178  -0.37910  -0.37649  -0.37467
 Alpha  occ. eigenvalues --   -0.37248  -0.37211  -0.36900  -0.36705  -0.36615
 Alpha  occ. eigenvalues --   -0.36414  -0.36015  -0.34933  -0.34145  -0.34031
 Alpha  occ. eigenvalues --   -0.33962  -0.33504  -0.33106  -0.31505  -0.31125
 Alpha  occ. eigenvalues --   -0.30985  -0.30886  -0.30686  -0.30403  -0.30055
 Alpha  occ. eigenvalues --   -0.30020  -0.29497  -0.29211  -0.24521  -0.23874
 Alpha  occ. eigenvalues --   -0.21586  -0.20795
 Alpha virt. eigenvalues --   -0.09395  -0.08282  -0.02264  -0.01713   0.00274
 Alpha virt. eigenvalues --    0.00553   0.01201   0.02417   0.02554   0.03101
 Alpha virt. eigenvalues --    0.04476   0.04679   0.05244   0.05434   0.06013

 Mulliken charges:
               1
     1  Mg   0.814822
     2  C   -0.017279
     3  C   -0.070455
     4  C   -0.047033
     5  C   -0.073579
     6  N   -0.243886
     7  C   -0.051315
     8  C   -0.008512
     9  C    0.010431
    10  C   -0.041615
    11  C    0.066179
    12  C    0.061611
    13  C   -0.064237
    14  H    0.001607
    15  N   -0.381029
    16  C    0.179983
    17  C   -0.151781
    18  C   -0.018612
    19  C    0.094781
    20  C    0.107325
    21  C   -0.005717
    22  O   -0.232218
    23  C    0.074372
    24  N   -0.261006
    25  C    0.046029
    26  C   -0.044092
    27  C   -0.048499
    28  C    0.017398
    29  C    0.079028
    30  C    0.027463
    31  C    0.003020
    32  N   -0.356644
    33  C    0.120857
    34  C   -0.150001
    35  C   -0.006749
    36  C    0.104754
    37  C    0.121496
    38  C    0.014253
    39  O   -0.146068
    40  C    0.025542
    41  C    0.218360
    42  O   -0.248919
    43  O   -0.321515
    44  C    0.184507
    45  H   -0.049203
    46  H    0.001132
    47  H   -0.028720
    48  H    0.022835
    49  H    0.008024
    50  H    0.027370
    51  H    0.010394
    52  H    0.004934
    53  H   -0.006433
    54  H    0.001663
    55  H    0.031400
    56  H    0.046809
    57  H    0.002018
    58  H    0.041588
    59  H    0.029950
    60  H    0.037758
    61  H    0.020619
    62  H    0.031148
    63  H    0.014343
    64  H    0.014673
    65  H    0.025707
    66  H    0.024983
    67  H    0.008094
    68  H    0.007534
    69  H    0.001697
    70  H    0.019688
    71  H    0.010873
    72  H    0.018622
    73  H    0.025108
    74  H    0.026372
    75  H    0.033634
    76  H    0.036817
    77  H    0.048273
    78  H    0.035146
    79  H    0.032091
    80  Mg   0.801187
    81  C    0.004423
    82  C   -0.071554
    83  C   -0.019797
    84  C   -0.048246
    85  N   -0.286925
    86  C   -0.055383
    87  C   -0.042466
    88  C   -0.052344
    89  C    0.058081
    90  C    0.080542
    91  C    0.048731
    92  C   -0.050670
    93  H    0.026247
    94  N   -0.365255
    95  C    0.114135
    96  C   -0.149651
    97  C   -0.022450
    98  C    0.090982
    99  C    0.140527
   100  C   -0.050237
   101  O   -0.214559
   102  C    0.079039
   103  N   -0.287382
   104  C    0.025742
   105  C   -0.009792
   106  C   -0.012930
   107  C    0.028444
   108  C    0.074437
   109  C    0.039546
   110  C   -0.004090
   111  N   -0.281407
   112  C    0.026168
   113  C   -0.155008
   114  C    0.014945
   115  C    0.076297
   116  C    0.107433
   117  C    0.020273
   118  O   -0.190052
   119  C    0.052725
   120  C    0.149220
   121  O   -0.180116
   122  O   -0.336495
   123  C    0.181929
   124  H   -0.017974
   125  H   -0.053343
   126  H   -0.027250
   127  H    0.012530
   128  H    0.009879
   129  H    0.010236
   130  H    0.025059
   131  H    0.017227
   132  H    0.017875
   133  H    0.012953
   134  H    0.042895
   135  H    0.031784
   136  H    0.047173
   137  H    0.015836
   138  H   -0.004957
   139  H    0.029967
   140  H    0.043489
   141  H    0.024761
   142  H    0.021289
   143  H    0.015154
   144  H    0.014940
   145  H    0.018905
   146  H    0.014599
   147  H    0.016986
   148  H    0.015941
   149  H    0.020666
   150  H    0.008638
   151  H    0.012710
   152  H    0.041384
   153  H    0.029838
   154  H    0.041883
   155  H    0.031450
   156  H    0.027477
   157  H    0.035971
   158  H    0.039787
 Sum of Mulliken charges =  -0.00000

 Dipole moment (field-independent basis, Debye):
    X=              1.7958    Y=              0.8229    Z=             -5.6751  Tot=              6.0090
 Quadrupole moment (field-independent basis, Debye-Ang):
   XX=           -128.4413   YY=           -568.0014   ZZ=           -472.8887
   XY=            -35.5372   XZ=             19.8589   YZ=            -10.0090

 Normal termination of Gaussian 16 at Thu Sep  2 04:21:11 2021.
