 Gaussian 16, Revision A.03,
 Gaussian 16:  ES64L-G16RevA.03 25-Dec-2016

 ----------------------------------------------------------
 #p cam-b3lyp/Def2SVP td=(nstates=5) density=(transition=1)
 ----------------------------------------------------------

 --------------------------------
 TDDFT excited states in gaussian
 --------------------------------
 Symbolic Z-matrix:
 Charge =  0 Multiplicity = 1

                         Standard orientation:
 ---------------------------------------------------------------------
 Center     Atomic      Atomic             Coordinates (Angstroms)
 Number     Number       Type             X           Y           Z
 ---------------------------------------------------------------------
      1         12           0      -13.366073   -0.557656    0.280758
      2          6           0      -13.567244    2.472434   -1.326072
      3          6           0      -12.508669    1.196936    3.254963
      4          6           0      -12.604498   -3.447504    1.861406
      5          6           0      -13.845399   -2.215262   -2.595563
      6          7           0      -13.068838    1.601922    0.884100
      7          6           0      -13.203618    2.649112    0.012557
      8          6           0      -13.053567    3.989407    0.735768
      9          6           0      -12.517412    3.500069    2.159652
     10          6           0      -12.701706    2.011553    2.109474
     11          6           0      -11.061399    3.986491    2.501882
     12          6           0      -14.416849    4.813058    0.849076
     13          6           0      -14.492731    6.300254    0.600322
     14          1           0      -13.473297    7.177124    1.236258
     15          7           0      -12.696466   -1.097560    2.314501
     16          6           0      -12.586953   -0.279761    3.384503
     17          6           0      -12.384162   -1.017834    4.585992
     18          6           0      -12.439230   -2.398747    4.216275
     19          6           0      -12.516714   -2.340318    2.726000
     20          6           0      -12.137473   -0.266958    5.854592
     21          6           0      -12.216746   -3.625605    5.084175
     22          8           0      -12.012033   -4.745724    4.606151
     23          6           0      -12.219810   -3.502697    6.597817
     24          7           0      -13.087303   -2.581078   -0.322595
     25          6           0      -12.900594   -3.604450    0.551973
     26          6           0      -13.052288   -4.951449   -0.152735
     27          6           0      -13.630416   -4.527971   -1.556377
     28          6           0      -13.527160   -3.016655   -1.497889
     29          6           0      -11.873827   -5.967549   -0.215711
     30          6           0      -15.065350   -5.086386   -1.935249
     31          6           0      -16.308160   -4.276756   -1.631492
     32          7           0      -13.549525   -0.035837   -1.589161
     33          6           0      -13.887589   -0.771905   -2.696318
     34          6           0      -14.008696    0.006224   -3.874908
     35          6           0      -13.940303    1.306039   -3.383308
     36          6           0      -13.684138    1.225339   -1.990305
     37          6           0      -14.281799   -0.343150   -5.332061
     38          6           0      -13.974598    2.664112   -3.709796
     39          8           0      -14.094320    3.170897   -4.810063
     40          6           0      -13.706871    3.561164   -2.374748
     41          6           0      -12.503412    4.351680   -2.601951
     42          8           0      -11.350135    3.901889   -2.752368
     43          8           0      -12.742402    5.686733   -2.693424
     44          6           0      -11.691866    6.559579   -3.229401
     45          1           0      -12.341658    1.843310    4.118687
     46          1           0      -12.646514   -4.396293    2.399993
     47          1           0      -14.355444   -2.684251   -3.438709
     48          1           0      -12.380986    4.620196    0.153125
     49          1           0      -13.110531    3.918632    2.972917
     50          1           0      -11.116991    4.575966    3.416406
     51          1           0      -10.729359    4.507214    1.603551
     52          1           0      -10.362196    3.200098    2.787756
     53          1           0      -14.695685    4.613786    1.883944
     54          1           0      -15.228139    4.297136    0.336612
     55          1           0      -15.502958    6.659458    0.796444
     56          1           0      -14.274022    6.426121   -0.459452
     57          1           0      -12.766254   -0.760025    6.595058
     58          1           0      -12.502371    0.757398    5.775460
     59          1           0      -11.104451   -0.232021    6.202312
     60          1           0      -13.007130   -2.857875    6.989358
     61          1           0      -11.204777   -3.318086    6.952230
     62          1           0      -12.479694   -4.503740    6.943347
     63          1           0      -13.758859   -5.481835    0.486021
     64          1           0      -13.073422   -4.956811   -2.388570
     65          1           0      -11.484627   -6.031652   -1.231736
     66          1           0      -12.292032   -6.934613    0.063059
     67          1           0      -11.134408   -5.604554    0.497302
     68          1           0      -15.166109   -6.043826   -1.425927
     69          1           0      -15.114650   -5.276011   -3.007734
     70          1           0      -17.045714   -4.858008   -1.077581
     71          1           0      -16.794192   -3.872547   -2.520457
     72          1           0      -15.954043   -3.443741   -1.024185
     73          1           0      -14.431081   -1.420158   -5.417737
     74          1           0      -13.442317   -0.010035   -5.942830
     75          1           0      -15.180516    0.184313   -5.650497
     76          1           0      -14.577785    4.216364   -2.408853
     77          1           0      -12.062465    7.495180   -3.648444
     78          1           0      -10.977062    6.079727   -3.897230
     79          1           0      -11.165069    6.931579   -2.350514
     80         12           0       12.744985   -0.631769   -0.694477
     81          6           0       15.033517    1.806648    0.297927
     82          6           0       10.232353    1.432789    0.013445
     83          6           0       10.739326   -3.381975   -0.380153
     84          6           0       15.407527   -2.773504   -1.372792
     85          7           0       12.653043    1.476416   -0.078419
     86          6           0       13.690790    2.240218    0.240763
     87          6           0       13.184595    3.704548    0.503922
     88          6           0       11.648116    3.520586    0.514689
     89          6           0       11.470302    2.049340    0.151773
     90          6           0       10.974739    3.721586    1.961996
     91          6           0       13.643826    4.787488   -0.574816
     92          6           0       14.041339    6.078962    0.053661
     93          1           0       13.437001    7.378026   -0.456681
     94          7           0       10.755827   -0.911710   -0.267773
     95          6           0        9.853659    0.088608   -0.019476
     96          6           0        8.498125   -0.474009   -0.093844
     97          6           0        8.661210   -1.882824   -0.208562
     98          6           0       10.116780   -2.102299   -0.239350
     99          6           0        7.205588    0.386840    0.074459
    100          6           0        7.566826   -2.992343   -0.218153
    101          8           0        7.802308   -4.190501   -0.326865
    102          6           0        6.149710   -2.570982   -0.115723
    103          7           0       13.012299   -2.706250   -0.814076
    104          6           0       12.054236   -3.698570   -0.585729
    105          6           0       12.744721   -5.086941   -0.546025
    106          6           0       14.023039   -4.872739   -1.469524
    107          6           0       14.127754   -3.345008   -1.198992
    108          6           0       13.015164   -5.592032    0.887533
    109          6           0       13.866860   -5.157863   -2.936256
    110          6           0       13.192614   -4.176791   -3.848672
    111          7           0       14.805353   -0.518985   -0.782784
    112          6           0       15.773397   -1.464154   -1.032167
    113          6           0       17.124180   -0.909259   -0.918917
    114          6           0       16.899063    0.393184   -0.281851
    115          6           0       15.459119    0.547182   -0.225893
    116          6           0       18.364379   -1.614267   -1.130847
    117          6           0       17.534520    1.567006    0.304367
    118          8           0       18.654872    1.831563    0.533391
    119          6           0       16.316381    2.577439    0.634967
    120          6           0       16.364195    3.177190    2.017563
    121          8           0       15.810527    2.713677    3.010176
    122          8           0       17.055648    4.386459    1.952676
    123          6           0       17.193305    5.161386    3.199126
    124          1           0        9.303219    2.007141    0.016328
    125          1           0       10.043164   -4.213481   -0.249129
    126          1           0       16.189529   -3.464206   -1.693928
    127          1           0       13.463114    4.063855    1.494907
    128          1           0       11.077016    4.185986   -0.132732
    129          1           0       10.677991    4.768609    2.026779
    130          1           0       11.639604    3.566985    2.811402
    131          1           0       10.086032    3.090953    2.006460
    132          1           0       12.849339    5.008730   -1.287711
    133          1           0       14.463949    4.484133   -1.225719
    134          1           0       15.096993    6.160750   -0.203750
    135          1           0       13.979671    6.159924    1.138538
    136          1           0        6.983687    0.377257    1.141222
    137          1           0        6.393720    0.020455   -0.554282
    138          1           0        7.368147    1.459297   -0.037978
    139          1           0        5.836780   -1.774433    0.559139
    140          1           0        5.531939   -3.427693    0.152402
    141          1           0        5.741346   -2.445665   -1.118944
    142          1           0       12.037010   -5.733763   -1.063754
    143          1           0       14.885466   -5.440727   -1.121107
    144          1           0       14.040660   -5.880352    1.118546
    145          1           0       12.286415   -6.323225    1.238087
    146          1           0       12.824785   -4.792237    1.602986
    147          1           0       13.339402   -6.084747   -3.158327
    148          1           0       14.863978   -5.310394   -3.349533
    149          1           0       14.038825   -3.623929   -4.256167
    150          1           0       12.542566   -3.446228   -3.366700
    151          1           0       12.655413   -4.720398   -4.626522
    152          1           0       19.047137   -0.885046   -1.567320
    153          1           0       18.165634   -2.398884   -1.860479
    154          1           0       18.759888   -1.974293   -0.181594
    155          1           0       16.389798    3.402800   -0.073206
    156          1           0       17.609388    4.485978    3.947143
    157          1           0       16.219323    5.488383    3.562227
    158          1           0       17.795477    6.070084    3.204735
 ---------------------------------------------------------------------

 SCF Done:  E(RCAM-B3LYP) =  -4069.84093517     A.U. after   18 cycles

 Excitation energies and oscillator strengths:

 Excited State   1:      Singlet-A      1.6810 eV  737.54 nm  f=0.3842  <S**2>=0.000
     309 -> 315        0.17699
     312 -> 314        0.68633
     309 <- 315        0.10854
 This state for optimization and/or second-order correction.
 Total Energy, E(TD-HF/TD-DFT) =  -4069.77915789
 Copying the excited state density for this state as the 1-particle RhoCI density.

 Excited State   2:      Singlet-A      1.7200 eV  720.84 nm  f=0.4127  <S**2>=0.000
     310 -> 316        0.17811
     311 -> 313        0.68636
     310 <- 316        0.10694

 Excited State   3:      Singlet-A      2.1905 eV  566.00 nm  f=0.1711  <S**2>=0.000
     310 -> 313        0.66245
     311 -> 316       -0.23749

 Excited State   4:      Singlet-A      2.2560 eV  549.58 nm  f=0.1059  <S**2>=0.000
     309 -> 314        0.63261
     312 -> 315       -0.30610

 Excited State   5:      Singlet-A      2.7941 eV  443.74 nm  f=0.0000  <S**2>=0.000
     312 -> 313        0.70709

 The electronic state is 1-A.
 Alpha  occ. eigenvalues --  -46.89161 -46.87876 -19.25145 -19.24989 -19.20067
 Alpha  occ. eigenvalues --  -19.19648 -19.19125 -19.18921 -19.18655 -19.18599
 Alpha  occ. eigenvalues --  -14.42189 -14.42152 -14.41595 -14.41379 -14.39633
 Alpha  occ. eigenvalues --  -14.39556 -14.39241 -14.39180 -10.39659 -10.39009
 Alpha  occ. eigenvalues --  -10.35589 -10.35483 -10.35410 -10.34583 -10.31773
 Alpha  occ. eigenvalues --  -10.31698 -10.31290 -10.31130 -10.30933 -10.30551
 Alpha  occ. eigenvalues --  -10.30541 -10.30479 -10.30181 -10.30127 -10.30106
 Alpha  occ. eigenvalues --  -10.29960 -10.29936 -10.29841 -10.29704 -10.29432
 Alpha  occ. eigenvalues --  -10.29344 -10.29065 -10.28733 -10.28638 -10.28620
 Alpha  occ. eigenvalues --  -10.28515 -10.28411 -10.28343 -10.28332 -10.28265
 Alpha  occ. eigenvalues --  -10.28253 -10.28176 -10.28061 -10.28060 -10.28030
 Alpha  occ. eigenvalues --  -10.27870 -10.27737 -10.27624 -10.27547 -10.27517
 Alpha  occ. eigenvalues --  -10.27511 -10.27481 -10.27362 -10.27031 -10.26964
 Alpha  occ. eigenvalues --  -10.26924 -10.26853 -10.26661 -10.26659 -10.26471
 Alpha  occ. eigenvalues --  -10.26275 -10.26222 -10.26133 -10.26077 -10.26047
 Alpha  occ. eigenvalues --  -10.26010 -10.25894 -10.25757 -10.25741 -10.25524
 Alpha  occ. eigenvalues --  -10.25499 -10.25331 -10.25259 -10.25083 -10.24676
 Alpha  occ. eigenvalues --  -10.24504  -3.17770  -3.16579  -1.92653  -1.92186
 Alpha  occ. eigenvalues --   -1.92119  -1.91483  -1.91010  -1.90906  -1.15929
 Alpha  occ. eigenvalues --   -1.15123  -1.12907  -1.10101  -1.09948  -1.09506
 Alpha  occ. eigenvalues --   -1.07420  -1.05922  -1.05430  -1.05139  -1.04696
 Alpha  occ. eigenvalues --   -1.04209  -1.03535  -1.03535  -1.02825  -1.02093
 Alpha  occ. eigenvalues --   -0.92672  -0.91829  -0.89074  -0.88988  -0.88594
 Alpha  occ. eigenvalues --   -0.88310  -0.88256  -0.87977  -0.87838  -0.87471
 Alpha  occ. eigenvalues --   -0.87140  -0.86856  -0.86478  -0.86255  -0.84342
 Alpha  occ. eigenvalues --   -0.84138  -0.83820  -0.83555  -0.82738  -0.82503
 Alpha  occ. eigenvalues --   -0.81892  -0.81806  -0.81224  -0.80956  -0.80378
 Alpha  occ. eigenvalues --   -0.80323  -0.78443  -0.78195  -0.77533  -0.77228
 Alpha  occ. eigenvalues --   -0.77160  -0.76693  -0.76311  -0.75812  -0.75549
 Alpha  occ. eigenvalues --   -0.74823  -0.73598  -0.72203  -0.71603  -0.71427
 Alpha  occ. eigenvalues --   -0.69683  -0.69270  -0.69183  -0.68454  -0.68187
 Alpha  occ. eigenvalues --   -0.67713  -0.67184  -0.66712  -0.65694  -0.65665
 Alpha  occ. eigenvalues --   -0.65177  -0.64823  -0.64572  -0.64267  -0.64198
 Alpha  occ. eigenvalues --   -0.64054  -0.62307  -0.61765  -0.60233  -0.60098
 Alpha  occ. eigenvalues --   -0.59893  -0.59553  -0.59126  -0.58833  -0.58355
 Alpha  occ. eigenvalues --   -0.58060  -0.57972  -0.57725  -0.57345  -0.57192
 Alpha  occ. eigenvalues --   -0.56298  -0.55760  -0.55482  -0.55469  -0.55305
 Alpha  occ. eigenvalues --   -0.55035  -0.54932  -0.54794  -0.54137  -0.54064
 Alpha  occ. eigenvalues --   -0.53529  -0.53362  -0.53339  -0.53188  -0.52924
 Alpha  occ. eigenvalues --   -0.52844  -0.52645  -0.52462  -0.52276  -0.52143
 Alpha  occ. eigenvalues --   -0.52123  -0.51721  -0.51581  -0.51496  -0.51344
 Alpha  occ. eigenvalues --   -0.51198  -0.50814  -0.50618  -0.50353  -0.50329
 Alpha  occ. eigenvalues --   -0.50131  -0.50026  -0.49895  -0.49594  -0.49575
 Alpha  occ. eigenvalues --   -0.49481  -0.49291  -0.49149  -0.49105  -0.48858
 Alpha  occ. eigenvalues --   -0.48813  -0.48621  -0.48555  -0.48271  -0.48267
 Alpha  occ. eigenvalues --   -0.47949  -0.47883  -0.47759  -0.47600  -0.47201
 Alpha  occ. eigenvalues --   -0.46916  -0.46909  -0.46754  -0.46580  -0.46550
 Alpha  occ. eigenvalues --   -0.46235  -0.46224  -0.46053  -0.46012  -0.45944
 Alpha  occ. eigenvalues --   -0.45707  -0.45463  -0.45374  -0.45161  -0.45048
 Alpha  occ. eigenvalues --   -0.44911  -0.44591  -0.44546  -0.44346  -0.44124
 Alpha  occ. eigenvalues --   -0.43997  -0.43979  -0.43685  -0.43676  -0.43427
 Alpha  occ. eigenvalues --   -0.43284  -0.43268  -0.43206  -0.43021  -0.42752
 Alpha  occ. eigenvalues --   -0.42616  -0.42290  -0.41935  -0.41878  -0.41843
 Alpha  occ. eigenvalues --   -0.41581  -0.41538  -0.41487  -0.41379  -0.41304
 Alpha  occ. eigenvalues --   -0.41171  -0.41145  -0.40681  -0.40456  -0.40194
 Alpha  occ. eigenvalues --   -0.40039  -0.39887  -0.39581  -0.39088  -0.38625
 Alpha  occ. eigenvalues --   -0.38562  -0.38288  -0.38025  -0.37635  -0.37400
 Alpha  occ. eigenvalues --   -0.36939  -0.36665  -0.36556  -0.36490  -0.36086
 Alpha  occ. eigenvalues --   -0.35871  -0.35739  -0.34610  -0.34429  -0.34241
 Alpha  occ. eigenvalues --   -0.33507  -0.32939  -0.32765  -0.31388  -0.31351
 Alpha  occ. eigenvalues --   -0.31272  -0.31180  -0.30971  -0.30946  -0.30476
 Alpha  occ. eigenvalues --   -0.30148  -0.29978  -0.29514  -0.23942  -0.23891
 Alpha  occ. eigenvalues --   -0.21522  -0.20735
 Alpha virt. eigenvalues --   -0.09140  -0.08421  -0.01338  -0.01247   0.00172
 Alpha virt. eigenvalues --    0.00450   0.01792   0.02420   0.02464   0.02835
 Alpha virt. eigenvalues --    0.04598   0.04694   0.05618   0.06094   0.06100

 Mulliken charges:
               1
     1  Mg  11.999996
     2  C    6.000681
     3  C    5.999725
     4  C    5.999390
     5  C    6.000139
     6  N    7.000169
     7  C    5.999235
     8  C    6.000301
     9  C    5.999582
    10  C    6.000902
    11  C    5.999862
    12  C    6.000196
    13  C    6.000002
    14  H    0.999886
    15  N    6.999811
    16  C    6.001123
    17  C    6.000518
    18  C    6.000401
    19  C    6.001151
    20  C    5.999894
    21  C    6.000395
    22  O    8.000831
    23  C    5.999837
    24  N    6.999662
    25  C    6.001102
    26  C    5.999699
    27  C    6.000305
    28  C    5.999495
    29  C    6.000026
    30  C    6.000104
    31  C    6.000178
    32  N    7.000148
    33  C    5.999124
    34  C    5.999317
    35  C    5.999913
    36  C    5.999215
    37  C    6.000081
    38  C    5.999586
    39  O    7.999066
    40  C    5.999721
    41  C    5.999920
    42  O    8.000173
    43  O    7.999824
    44  C    6.000067
    45  H    1.000365
    46  H    0.999985
    47  H    0.999482
    48  H    1.000147
    49  H    0.999900
    50  H    1.000007
    51  H    1.000536
    52  H    1.000348
    53  H    0.999569
    54  H    0.999960
    55  H    0.999696
    56  H    1.000149
    57  H    1.000241
    58  H    1.000292
    59  H    1.000895
    60  H    0.999947
    61  H    1.000521
    62  H    1.000205
    63  H    0.999758
    64  H    0.999999
    65  H    1.000410
    66  H    0.999877
    67  H    1.000197
    68  H    0.999592
    69  H    0.999918
    70  H    0.999532
    71  H    0.999931
    72  H    1.000042
    73  H    0.999467
    74  H    0.999622
    75  H    0.999305
    76  H    0.999612
    77  H    0.999648
    78  H    1.000156
    79  H    0.999936
    80  Mg  12.001356
    81  C    5.969187
    82  C    6.001484
    83  C    6.035229
    84  C    6.000961
    85  N    6.987649
    86  C    6.039850
    87  C    5.988952
    88  C    6.008758
    89  C    5.972048
    90  C    6.007746
    91  C    5.998078
    92  C    5.999859
    93  H    1.006027
    94  N    7.008377
    95  C    5.959039
    96  C    5.978020
    97  C    5.987148
    98  C    5.952342
    99  C    6.002802
   100  C    5.985904
   101  O    7.971554
   102  C    6.010885
   103  N    7.019060
   104  C    5.959151
   105  C    6.004424
   106  C    5.991708
   107  C    6.021660
   108  C    5.999196
   109  C    5.993547
   110  C    5.996148
   111  N    6.994781
   112  C    6.030580
   113  C    6.036478
   114  C    6.005475
   115  C    6.034302
   116  C    5.992803
   117  C    6.013548
   118  O    8.025245
   119  C    6.005038
   120  C    6.002759
   121  O    8.008449
   122  O    7.999964
   123  C    5.997464
   124  H    0.988052
   125  H    0.996475
   126  H    1.015253
   127  H    1.001208
   128  H    0.995295
   129  H    0.989346
   130  H    0.986875
   131  H    1.007701
   132  H    1.008339
   133  H    0.992997
   134  H    0.995381
   135  H    1.001374
   136  H    0.980727
   137  H    0.983067
   138  H    0.981424
   139  H    0.994097
   140  H    0.984643
   141  H    0.988469
   142  H    1.003400
   143  H    1.002206
   144  H    0.987744
   145  H    1.002855
   146  H    1.001384
   147  H    1.012733
   148  H    0.998479
   149  H    0.992809
   150  H    1.013582
   151  H    1.007929
   152  H    1.020419
   153  H    1.017708
   154  H    1.026154
   155  H    1.006006
   156  H    1.000825
   157  H    1.006400
   158  H    1.003607
 Sum of Mulliken charges = 624.00000

 Dipole moment (field-independent basis, Debye):
    X=             10.9511    Y=              0.0973    Z=             -0.7824  Tot=             10.9795
 Quadrupole moment (field-independent basis, Debye-Ang):
   XX=            273.9931   YY=              0.2802   ZZ=              2.6932
   XY=             -4.5402   XZ=            -20.1314   YZ=              3.3834

 Normal termination of Gaussian 16 at Thu Sep 23 13:09:45 2021.
