 Gaussian 16, Revision A.03,
 Gaussian 16:  ES64L-G16RevA.03 25-Dec-2016

 ----------------------------------------------------------
 #p cam-b3lyp/Def2SVP td=(nstates=5) density=(transition=1)
 ----------------------------------------------------------

 --------------------------------
 TDDFT excited states in gaussian
 --------------------------------
 Symbolic Z-matrix:
 Charge =  0 Multiplicity = 1

                         Standard orientation:
 ---------------------------------------------------------------------
 Center     Atomic      Atomic             Coordinates (Angstroms)
 Number     Number       Type             X           Y           Z
 ---------------------------------------------------------------------
      1         12           0      -25.236758   -0.484129   -0.234228
      2          6           0      -23.245169    2.299211   -0.471654
      3          6           0      -27.268780    1.232111    1.929757
      4          6           0      -27.199013   -3.323405    0.106676
      5          6           0      -22.920082   -2.301850   -2.064328
      6          7           0      -25.250057    1.555139    0.701813
      7          6           0      -24.352947    2.522310    0.347974
      8          6           0      -24.654347    3.779840    1.007936
      9          6           0      -25.801070    3.474698    1.958692
     10          6           0      -26.147852    1.973679    1.560634
     11          6           0      -25.569495    3.646499    3.499729
     12          6           0      -24.972474    4.914618   -0.024345
     13          6           0      -24.553004    6.373342    0.368262
     14          1           0      -24.507712    6.712802    1.871044
     15          7           0      -27.063855   -0.911896    0.794219
     16          6           0      -27.738552   -0.033364    1.624510
     17          6           0      -28.936987   -0.709270    2.161526
     18          6           0      -28.935450   -2.067733    1.622664
     19          6           0      -27.725736   -2.151636    0.785960
     20          6           0      -29.927276   -0.076946    3.125793
     21          6           0      -30.009954   -3.119397    1.771835
     22          8           0      -29.881188   -4.202787    1.175070
     23          6           0      -31.219189   -2.978366    2.618546
     24          7           0      -25.057753   -2.549603   -0.814131
     25          6           0      -26.010294   -3.461527   -0.599160
     26          6           0      -25.684712   -4.773435   -1.332383
     27          6           0      -24.410824   -4.408209   -2.272889
     28          6           0      -24.157737   -2.954746   -1.737949
     29          6           0      -25.442507   -5.941392   -0.327304
     30          6           0      -24.690437   -4.392061   -3.800752
     31          6           0      -24.008124   -5.502029   -4.614267
     32          7           0      -23.391485   -0.144590   -1.061243
     33          6           0      -22.536501   -0.985800   -1.777064
     34          6           0      -21.323947   -0.246090   -2.192134
     35          6           0      -21.594580    1.038360   -1.664149
     36          6           0      -22.843268    1.043901   -0.986810
     37          6           0      -20.207334   -0.716269   -2.986875
     38          6           0      -21.095191    2.428722   -1.638595
     39          8           0      -20.135754    2.942673   -2.149553
     40          6           0      -22.134061    3.279693   -0.824793
     41          6           0      -21.418952    3.976768    0.256168
     42          8           0      -20.989341    3.343062    1.233603
     43          8           0      -21.404406    5.334012    0.152036
     44          6           0      -20.899178    6.117932    1.274698
     45          1           0      -27.895716    1.806749    2.614747
     46          1           0      -27.809617   -4.216576    0.256174
     47          1           0      -22.285677   -2.876824   -2.741963
     48          1           0      -23.777569    4.071000    1.587397
     49          1           0      -26.713662    3.990824    1.658281
     50          1           0      -24.622120    4.005459    3.903197
     51          1           0      -25.772162    2.687580    3.976071
     52          1           0      -26.318456    4.273553    3.984053
     53          1           0      -26.024529    4.868186   -0.305893
     54          1           0      -24.567544    4.628406   -0.994841
     55          1           0      -25.213838    7.093907   -0.114423
     56          1           0      -23.523372    6.605939    0.098111
     57          1           0      -29.748568    0.984478    3.294190
     58          1           0      -29.863254   -0.537546    4.112019
     59          1           0      -30.918339   -0.042242    2.673719
     60          1           0      -31.825323   -3.865172    2.435877
     61          1           0      -31.796870   -2.077584    2.407149
     62          1           0      -30.920002   -2.842110    3.657928
     63          1           0      -26.502737   -4.955122   -2.029588
     64          1           0      -23.536852   -5.019416   -2.047997
     65          1           0      -26.004913   -6.844065   -0.566383
     66          1           0      -25.733892   -5.650817    0.682402
     67          1           0      -24.361547   -6.082347   -0.345234
     68          1           0      -24.403372   -3.457490   -4.281245
     69          1           0      -25.755999   -4.465667   -4.019252
     70          1           0      -23.855390   -6.374927   -3.979480
     71          1           0      -23.032650   -5.133973   -4.930644
     72          1           0      -24.613216   -5.648013   -5.508111
     73          1           0      -19.631896    0.096539   -3.429397
     74          1           0      -20.503498   -1.390325   -3.790399
     75          1           0      -19.468330   -1.131834   -2.301680
     76          1           0      -22.504715    3.948017   -1.602747
     77          1           0      -19.834368    5.987534    1.469695
     78          1           0      -21.506178    5.959786    2.166074
     79          1           0      -20.987373    7.179439    1.043869
     80         12           0       24.577357   -0.638308    0.416713
     81          6           0       24.679657    2.131759   -1.596203
     82          6           0       24.616024    1.316123    3.132973
     83          6           0       24.721999   -3.459287    2.256362
     84          6           0       25.063201   -2.690148   -2.545243
     85          7           0       24.916683    1.532780    0.705013
     86          6           0       24.814821    2.480056   -0.235122
     87          6           0       24.842472    3.949894    0.431590
     88          6           0       24.811327    3.555307    1.955504
     89          6           0       24.822190    2.013474    1.976194
     90          6           0       25.906657    4.240645    2.795452
     91          6           0       23.656642    4.858028   -0.001320
     92          6           0       23.368369    6.148948    0.832550
     93          1           0       23.821986    7.529949    0.223980
     94          7           0       24.707656   -1.018162    2.440001
     95          6           0       24.608284   -0.112808    3.391016
     96          6           0       24.619352   -0.789311    4.679195
     97          6           0       24.761155   -2.196665    4.488095
     98          6           0       24.729306   -2.278848    3.011276
     99          6           0       24.656194   -0.104283    6.035303
    100          6           0       24.947162   -3.325221    5.496975
    101          8           0       25.342984   -4.432073    5.143093
    102          6           0       24.643468   -3.061006    6.930186
    103          7           0       24.900980   -2.775466   -0.085452
    104          6           0       24.867003   -3.717635    0.849418
    105          6           0       24.863953   -5.131602    0.245110
    106          6           0       24.758678   -4.806183   -1.242548
    107          6           0       24.954110   -3.336551   -1.284043
    108          6           0       26.018362   -6.075726    0.612572
    109          6           0       23.564793   -5.423753   -1.925627
    110          6           0       23.875866   -6.469112   -3.055444
    111          7           0       24.766194   -0.387572   -1.603440
    112          6           0       24.873378   -1.295166   -2.710134
    113          6           0       24.811531   -0.590410   -3.971701
    114          6           0       24.718093    0.755938   -3.521571
    115          6           0       24.706841    0.809385   -2.122074
    116          6           0       24.693367   -1.079153   -5.372226
    117          6           0       24.444259    2.061796   -4.066241
    118          8           0       24.122524    2.481293   -5.188009
    119          6           0       24.526126    3.045092   -2.925501
    120          6           0       25.827091    3.863310   -3.080081
    121          8           0       26.951727    3.445106   -3.395244
    122          8           0       25.530612    5.163279   -2.795961
    123          6           0       26.632385    6.170458   -2.912721
    124          1           0       24.501589    1.835308    4.086823
    125          1           0       24.971752   -4.394582    2.761643
    126          1           0       25.071772   -3.377238   -3.393278
    127          1           0       25.815050    4.345842    0.141587
    128          1           0       23.835664    3.843148    2.347014
    129          1           0       25.435954    4.565434    3.722743
    130          1           0       26.291509    5.137665    2.310206
    131          1           0       26.727351    3.553149    3.000539
    132          1           0       22.762709    4.265788    0.194155
    133          1           0       23.791958    5.179881   -1.033827
    134          1           0       23.977167    6.082253    1.734810
    135          1           0       22.294540    6.221789    1.001369
    136          1           0       24.637422    0.980759    5.933410
    137          1           0       25.567750   -0.385892    6.561870
    138          1           0       23.816904   -0.401100    6.662983
    139          1           0       23.658770   -2.592758    6.929751
    140          1           0       25.269550   -2.434184    7.564452
    141          1           0       24.607098   -3.970632    7.528681
    142          1           0       23.949650   -5.625837    0.571787
    143          1           0       25.623594   -5.254830   -1.730834
    144          1           0       25.536511   -7.046270    0.728134
    145          1           0       26.547048   -5.711578    1.493354
    146          1           0       26.832220   -6.094696   -0.112188
    147          1           0       23.104048   -4.583005   -2.443263
    148          1           0       22.876731   -5.918648   -1.240849
    149          1           0       24.953920   -6.565807   -3.186818
    150          1           0       23.456187   -6.075900   -3.981888
    151          1           0       23.395364   -7.440719   -2.939670
    152          1           0       24.510599   -2.153367   -5.380467
    153          1           0       25.689045   -0.962081   -5.798478
    154          1           0       23.869600   -0.504284   -5.797809
    155          1           0       23.637750    3.665455   -3.045485
    156          1           0       27.576189    5.881432   -2.449692
    157          1           0       26.368225    7.168688   -2.565206
    158          1           0       26.860528    6.224010   -3.977096
 ---------------------------------------------------------------------

 SCF Done:  E(RCAM-B3LYP) =  -4069.85149033     A.U. after   19 cycles

 Excitation energies and oscillator strengths:

 Excited State   1:      Singlet-A      1.7216 eV  720.19 nm  f=0.3944  <S**2>=0.000
     309 -> 315        0.17577
     311 -> 313        0.68370
     309 <- 315        0.10317
 This state for optimization and/or second-order correction.
 Total Energy, E(TD-HF/TD-DFT) =  -4069.78822438
 Copying the excited state density for this state as the 1-particle RhoCI density.

 Excited State   2:      Singlet-A      1.7299 eV  716.71 nm  f=0.3978  <S**2>=0.000
     310 -> 316        0.18857
     312 -> 314        0.68227
     310 <- 316        0.10883

 Excited State   3:      Singlet-A      2.2550 eV  549.81 nm  f=0.0842  <S**2>=0.000
     310 -> 314        0.62548
     312 -> 316       -0.31649

 Excited State   4:      Singlet-A      2.2690 eV  546.42 nm  f=0.1134  <S**2>=0.000
     309 -> 313        0.63909
     311 -> 315       -0.28652

 Excited State   5:      Singlet-A      3.1534 eV  393.18 nm  f=0.0000  <S**2>=0.000
     312 -> 313        0.70711

 The electronic state is 1-A.
 Alpha  occ. eigenvalues --  -46.89170 -46.88898 -19.25985 -19.25606 -19.19520
 Alpha  occ. eigenvalues --  -19.19434 -19.19312 -19.19056 -19.18378 -19.17658
 Alpha  occ. eigenvalues --  -14.42050 -14.41841 -14.41733 -14.41712 -14.40069
 Alpha  occ. eigenvalues --  -14.39502 -14.39259 -14.39257 -10.39571 -10.39536
 Alpha  occ. eigenvalues --  -10.36079 -10.34973 -10.34863 -10.33324 -10.32330
 Alpha  occ. eigenvalues --  -10.32163 -10.31663 -10.30950 -10.30926 -10.30660
 Alpha  occ. eigenvalues --  -10.30622 -10.30471 -10.30426 -10.30365 -10.30292
 Alpha  occ. eigenvalues --  -10.30118 -10.30028 -10.30003 -10.29967 -10.29932
 Alpha  occ. eigenvalues --  -10.29332 -10.29316 -10.29165 -10.28786 -10.28706
 Alpha  occ. eigenvalues --  -10.28564 -10.28407 -10.28367 -10.28293 -10.28079
 Alpha  occ. eigenvalues --  -10.28046 -10.28014 -10.27971 -10.27912 -10.27779
 Alpha  occ. eigenvalues --  -10.27753 -10.27538 -10.27521 -10.27474 -10.27469
 Alpha  occ. eigenvalues --  -10.27402 -10.27390 -10.27230 -10.27009 -10.27006
 Alpha  occ. eigenvalues --  -10.26999 -10.26734 -10.26689 -10.26508 -10.26496
 Alpha  occ. eigenvalues --  -10.26475 -10.26239 -10.26225 -10.26208 -10.26163
 Alpha  occ. eigenvalues --  -10.26115 -10.26080 -10.26078 -10.26028 -10.26021
 Alpha  occ. eigenvalues --  -10.25695 -10.25645 -10.25521 -10.25365 -10.25263
 Alpha  occ. eigenvalues --  -10.24380  -3.17695  -3.17320  -1.92586  -1.92242
 Alpha  occ. eigenvalues --   -1.92143  -1.92008  -1.91760  -1.91628  -1.16450
 Alpha  occ. eigenvalues --   -1.15541  -1.10959  -1.10370  -1.08931  -1.07948
 Alpha  occ. eigenvalues --   -1.07137  -1.06519  -1.05711  -1.05132  -1.04366
 Alpha  occ. eigenvalues --   -1.04062  -1.03857  -1.03387  -1.02937  -1.00968
 Alpha  occ. eigenvalues --   -0.92498  -0.91251  -0.89901  -0.89138  -0.88710
 Alpha  occ. eigenvalues --   -0.88291  -0.88152  -0.87719  -0.87533  -0.87205
 Alpha  occ. eigenvalues --   -0.87137  -0.86983  -0.86744  -0.86270  -0.84171
 Alpha  occ. eigenvalues --   -0.83956  -0.83576  -0.83315  -0.82341  -0.82337
 Alpha  occ. eigenvalues --   -0.82148  -0.81884  -0.81226  -0.81089  -0.80561
 Alpha  occ. eigenvalues --   -0.80021  -0.78517  -0.78447  -0.77567  -0.77538
 Alpha  occ. eigenvalues --   -0.77319  -0.76721  -0.76247  -0.76079  -0.75333
 Alpha  occ. eigenvalues --   -0.74902  -0.72615  -0.72607  -0.71666  -0.71519
 Alpha  occ. eigenvalues --   -0.69425  -0.69251  -0.69092  -0.68366  -0.68040
 Alpha  occ. eigenvalues --   -0.67691  -0.67558  -0.66931  -0.65847  -0.65827
 Alpha  occ. eigenvalues --   -0.65456  -0.65039  -0.64870  -0.64443  -0.64338
 Alpha  occ. eigenvalues --   -0.63925  -0.62736  -0.62617  -0.60712  -0.59861
 Alpha  occ. eigenvalues --   -0.59639  -0.59598  -0.59231  -0.58862  -0.58761
 Alpha  occ. eigenvalues --   -0.58620  -0.58234  -0.57969  -0.57420  -0.57299
 Alpha  occ. eigenvalues --   -0.56292  -0.56062  -0.55977  -0.55642  -0.55353
 Alpha  occ. eigenvalues --   -0.55125  -0.54732  -0.54521  -0.54175  -0.53985
 Alpha  occ. eigenvalues --   -0.53723  -0.53457  -0.53382  -0.52933  -0.52795
 Alpha  occ. eigenvalues --   -0.52782  -0.52555  -0.52425  -0.52226  -0.52147
 Alpha  occ. eigenvalues --   -0.51671  -0.51665  -0.51514  -0.51289  -0.51178
 Alpha  occ. eigenvalues --   -0.51170  -0.51096  -0.50688  -0.50464  -0.50217
 Alpha  occ. eigenvalues --   -0.49971  -0.49950  -0.49853  -0.49772  -0.49675
 Alpha  occ. eigenvalues --   -0.49379  -0.49348  -0.49024  -0.49002  -0.48951
 Alpha  occ. eigenvalues --   -0.48552  -0.48548  -0.48484  -0.48148  -0.48122
 Alpha  occ. eigenvalues --   -0.47959  -0.47775  -0.47640  -0.47480  -0.47283
 Alpha  occ. eigenvalues --   -0.47207  -0.47115  -0.46769  -0.46707  -0.46365
 Alpha  occ. eigenvalues --   -0.46297  -0.46122  -0.45950  -0.45878  -0.45715
 Alpha  occ. eigenvalues --   -0.45522  -0.45209  -0.44966  -0.44928  -0.44678
 Alpha  occ. eigenvalues --   -0.44538  -0.44500  -0.44388  -0.44336  -0.44112
 Alpha  occ. eigenvalues --   -0.43990  -0.43844  -0.43813  -0.43609  -0.43575
 Alpha  occ. eigenvalues --   -0.43499  -0.43173  -0.43019  -0.42903  -0.42741
 Alpha  occ. eigenvalues --   -0.42629  -0.42190  -0.42153  -0.42000  -0.41970
 Alpha  occ. eigenvalues --   -0.41852  -0.41819  -0.41511  -0.41496  -0.41163
 Alpha  occ. eigenvalues --   -0.41078  -0.40919  -0.40821  -0.40696  -0.40408
 Alpha  occ. eigenvalues --   -0.40344  -0.40001  -0.39546  -0.39259  -0.39072
 Alpha  occ. eigenvalues --   -0.38249  -0.38196  -0.37851  -0.37485  -0.37229
 Alpha  occ. eigenvalues --   -0.37034  -0.36723  -0.36662  -0.36633  -0.36187
 Alpha  occ. eigenvalues --   -0.36033  -0.35939  -0.34270  -0.34048  -0.33985
 Alpha  occ. eigenvalues --   -0.33981  -0.33341  -0.33124  -0.31951  -0.31142
 Alpha  occ. eigenvalues --   -0.31090  -0.30903  -0.30704  -0.30573  -0.30073
 Alpha  occ. eigenvalues --   -0.29952  -0.29651  -0.29514  -0.23897  -0.23891
 Alpha  occ. eigenvalues --   -0.21089  -0.20812
 Alpha virt. eigenvalues --   -0.08535  -0.08300  -0.01755  -0.01731   0.00535
 Alpha virt. eigenvalues --    0.00592   0.01912   0.02536   0.02568   0.03083
 Alpha virt. eigenvalues --    0.04457   0.04917   0.05226   0.05695   0.05994

 Mulliken charges:
               1
     1  Mg  12.000008
     2  C    6.000777
     3  C    5.999864
     4  C    5.999157
     5  C    6.000012
     6  N    7.000266
     7  C    5.999179
     8  C    6.000297
     9  C    5.999916
    10  C    6.000550
    11  C    5.999971
    12  C    6.000088
    13  C    6.000010
    14  H    0.999877
    15  N    6.999749
    16  C    6.000796
    17  C    6.000529
    18  C    6.000253
    19  C    6.000913
    20  C    5.999881
    21  C    6.000232
    22  O    8.000589
    23  C    5.999899
    24  N    6.999707
    25  C    6.000898
    26  C    5.999765
    27  C    6.000223
    28  C    5.999421
    29  C    5.999930
    30  C    6.000166
    31  C    5.999994
    32  N    7.000167
    33  C    5.999273
    34  C    5.999382
    35  C    6.000033
    36  C    5.999167
    37  C    6.000147
    38  C    5.999599
    39  O    7.999431
    40  C    5.999837
    41  C    5.999968
    42  O    7.999952
    43  O    7.999958
    44  C    6.000063
    45  H    1.000286
    46  H    1.000051
    47  H    0.999672
    48  H    0.999980
    49  H    0.999992
    50  H    1.000285
    51  H    0.999928
    52  H    1.000080
    53  H    0.999790
    54  H    1.000106
    55  H    0.999937
    56  H    1.000077
    57  H    1.000380
    58  H    1.000458
    59  H    1.000411
    60  H    1.000296
    61  H    1.000118
    62  H    1.000157
    63  H    0.999971
    64  H    0.999959
    65  H    1.000020
    66  H    0.999885
    67  H    1.000227
    68  H    1.000046
    69  H    0.999719
    70  H    0.999886
    71  H    1.000049
    72  H    0.999866
    73  H    0.999624
    74  H    0.999619
    75  H    0.999557
    76  H    0.999885
    77  H    0.999983
    78  H    0.999896
    79  H    0.999911
    80  Mg  12.001188
    81  C    5.978499
    82  C    6.030175
    83  C    6.009241
    84  C    5.984863
    85  N    7.000447
    86  C    6.033697
    87  C    5.992206
    88  C    6.011062
    89  C    5.963058
    90  C    6.001392
    91  C    5.994535
    92  C    6.001333
    93  H    0.999779
    94  N    7.005776
    95  C    5.950617
    96  C    5.981293
    97  C    5.982292
    98  C    5.965658
    99  C    6.004799
   100  C    5.986365
   101  O    7.974825
   102  C    6.007428
   103  N    6.997955
   104  C    5.964692
   105  C    6.012497
   106  C    5.986173
   107  C    6.035459
   108  C    6.002309
   109  C    6.000461
   110  C    5.999593
   111  N    6.996282
   112  C    6.045183
   113  C    6.026147
   114  C    6.010385
   115  C    6.029930
   116  C    5.997227
   117  C    6.014227
   118  O    8.035614
   119  C    5.998217
   120  C    6.005997
   121  O    8.002038
   122  O    8.002057
   123  C    5.998389
   124  H    0.996646
   125  H    0.991539
   126  H    1.012112
   127  H    1.000079
   128  H    0.998408
   129  H    1.001328
   130  H    0.989121
   131  H    1.002221
   132  H    1.003906
   133  H    0.994205
   134  H    1.007218
   135  H    1.002154
   136  H    0.977944
   137  H    0.980453
   138  H    0.979594
   139  H    0.994779
   140  H    0.990202
   141  H    0.984401
   142  H    0.999160
   143  H    0.999907
   144  H    0.994503
   145  H    1.006787
   146  H    0.988682
   147  H    0.993627
   148  H    1.012427
   149  H    1.001967
   150  H    0.996556
   151  H    1.005860
   152  H    1.018611
   153  H    1.018576
   154  H    1.013681
   155  H    1.009458
   156  H    1.005042
   157  H    1.006280
   158  H    1.001207
 Sum of Mulliken charges = 624.00000

 Dipole moment (field-independent basis, Debye):
    X=             -0.3071    Y=              2.5825    Z=            -10.6795  Tot=             10.9916
 Quadrupole moment (field-independent basis, Debye-Ang):
   XX=              4.2549   YY=             -0.5836   ZZ=             -9.6923
   XY=             65.9309   XZ=           -269.9717   YZ=              9.0191

 Normal termination of Gaussian 16 at Wed Sep 22 21:20:07 2021.
