 Gaussian 16, Revision A.03,
 Gaussian 16:  ES64L-G16RevA.03 25-Dec-2016

 -----------------------------------
 #p cam-b3lyp/Def2SVP td=(nstates=5)
 -----------------------------------

 --------------------------------
 TDDFT excited states in gaussian
 --------------------------------
 Symbolic Z-matrix:
 Charge =  0 Multiplicity = 1

                         Standard orientation:
 ---------------------------------------------------------------------
 Center     Atomic      Atomic             Coordinates (Angstroms)
 Number     Number       Type             X           Y           Z
 ---------------------------------------------------------------------
      1         12           0       -4.440022   -0.621981   -0.022174
      2          6           0       -4.543729    2.872792    0.744651
      3          6           0       -5.214905    0.212679   -3.238688
      4          6           0       -4.800942   -3.714791   -0.622913
      5          6           0       -4.799375   -1.230839    3.390423
      6          7           0       -4.806279    1.329788   -1.000489
      7          6           0       -4.756593    2.598983   -0.608258
      8          6           0       -4.876859    3.614141   -1.783998
      9          6           0       -5.637161    2.690115   -2.837619
     10          6           0       -5.164547    1.330511   -2.353845
     11          6           0       -7.156479    2.753003   -2.718376
     12          6           0       -3.478570    4.067343   -2.323559
     13          6           0       -3.498474    5.292506   -3.242218
     14          1           0       -2.392038    6.235269   -3.176296
     15          7           0       -4.453445   -1.600765   -1.738173
     16          6           0       -4.778709   -1.099390   -2.953950
     17          6           0       -4.634549   -2.219468   -3.908584
     18          6           0       -4.383049   -3.458595   -3.121560
     19          6           0       -4.564133   -2.972591   -1.777542
     20          6           0       -4.689474   -2.045658   -5.395367
     21          6           0       -4.045087   -4.860906   -3.518343
     22          8           0       -4.096928   -5.833403   -2.690009
     23          6           0       -3.733305   -5.083845   -4.941766
     24          7           0       -4.974936   -2.247737    1.172992
     25          6           0       -4.999637   -3.489873    0.677540
     26          6           0       -5.130082   -4.510549    1.768935
     27          6           0       -4.944652   -3.716116    3.141612
     28          6           0       -4.813858   -2.283138    2.569129
     29          6           0       -6.453276   -5.287694    1.803796
     30          6           0       -3.846395   -4.227661    4.107310
     31          6           0       -2.481154   -4.004459    3.496248
     32          7           0       -4.461278    0.574278    1.788781
     33          6           0       -4.647179    0.114799    3.100647
     34          6           0       -4.691692    1.303163    3.972356
     35          6           0       -4.544236    2.379250    3.099352
     36          6           0       -4.442079    1.895150    1.763873
     37          6           0       -4.909350    1.297608    5.378425
     38          6           0       -4.473929    3.826668    2.981471
     39          8           0       -4.411676    4.759976    3.783066
     40          6           0       -4.593105    4.210270    1.440538
     41          6           0       -3.505169    5.203066    1.133849
     42          8           0       -2.303759    4.867556    1.171437
     43          8           0       -4.050675    6.315003    0.617553
     44          6           0       -3.022614    7.329869    0.263589
     45          1           0       -5.683729    0.334682   -4.217085
     46          1           0       -4.821473   -4.796265   -0.772682
     47          1           0       -4.824217   -1.347176    4.475458
     48          1           0       -5.476442    4.497228   -1.562456
     49          1           0       -5.295750    2.869322   -3.856954
     50          1           0       -7.464066    3.324428   -1.842713
     51          1           0       -7.484743    1.717055   -2.631503
     52          1           0       -7.601867    3.132299   -3.638453
     53          1           0       -3.102512    3.318710   -3.020833
     54          1           0       -2.786468    4.245592   -1.499819
     55          1           0       -4.452079    5.818122   -3.185014
     56          1           0       -3.441372    4.946474   -4.274304
     57          1           0       -5.051377   -1.055562   -5.669742
     58          1           0       -5.454157   -2.727152   -5.767570
     59          1           0       -3.734308   -2.270124   -5.870344
     60          1           0       -4.586507   -4.780475   -5.548860
     61          1           0       -3.429054   -6.126750   -5.023195
     62          1           0       -2.906453   -4.433296   -5.228209
     63          1           0       -4.353961   -5.270534    1.688409
     64          1           0       -5.853129   -3.723409    3.744347
     65          1           0       -6.327587   -6.369135    1.745550
     66          1           0       -7.080116   -4.922499    0.990780
     67          1           0       -7.081146   -5.082569    2.670468
     68          1           0       -3.953697   -5.299582    4.269848
     69          1           0       -3.869517   -3.740446    5.082163
     70          1           0       -2.358460   -4.873287    2.850557
     71          1           0       -1.715658   -3.983823    4.272650
     72          1           0       -2.470170   -3.120363    2.858487
     73          1           0       -4.196313    2.005845    5.800263
     74          1           0       -4.771899    0.300631    5.796453
     75          1           0       -5.946337    1.629992    5.423548
     76          1           0       -5.586516    4.634839    1.299122
     77          1           0       -3.284376    8.248574    0.788656
     78          1           0       -2.982258    7.363342   -0.825289
     79          1           0       -2.017614    7.152327    0.648028
     80         12           0        4.556129   -0.919997    0.175067
     81          6           0        4.476986    2.649486   -0.187696
     82          6           0        3.746781   -1.124446   -3.132160
     83          6           0        4.175811   -4.046007    0.563425
     84          6           0        4.226447   -0.438993    3.611009
     85          7           0        4.186520    0.632410   -1.356488
     86          6           0        4.245310    1.955107   -1.393348
     87          6           0        4.124311    2.564920   -2.815688
     88          6           0        3.339997    1.358513   -3.528641
     89          6           0        3.809502    0.205249   -2.644204
     90          6           0        1.829124    1.468428   -3.408070
     91          6           0        5.523683    2.812811   -3.480780
     92          6           0        5.493166    3.687275   -4.736229
     93          1           0        6.611394    4.594239   -4.980068
     94          7           0        4.521607   -2.385520   -1.162699
     95          6           0        4.191455   -2.288486   -2.467633
     96          6           0        4.303295   -3.650091   -3.013244
     97          6           0        4.566516   -4.586573   -1.886997
     98          6           0        4.407371   -3.692258   -0.757857
     99          6           0        4.241131   -3.945073   -4.483808
    100          6           0        4.893180   -6.048325   -1.834306
    101          8           0        4.847083   -6.709455   -0.737212
    102          6           0        5.177632   -6.703247   -3.119468
    103          7           0        4.034324   -2.083651    1.817004
    104          6           0        3.991929   -3.424662    1.728510
    105          6           0        3.865338   -4.057687    3.093662
    106          6           0        4.075735   -2.867117    4.140486
    107          6           0        4.204496   -1.684192    3.155847
    108          6           0        2.538076   -4.759181    3.381161
    109          6           0        5.182856   -3.060185    5.212717
    110          6           0        6.543916   -3.061618    4.554770
    111          7           0        4.566543    0.773597    1.516592
    112          6           0        4.386226    0.753583    2.917015
    113          6           0        4.358398    2.158635    3.372524
    114          6           0        4.502549    2.905022    2.193276
    115          6           0        4.592171    2.027537    1.079053
    116          6           0        4.167111    2.594616    4.713960
    117          6           0        4.588603    4.235930    1.636517
    118          8           0        4.657724    5.371109    2.105891
    119          6           0        4.448872    4.132782    0.056572
    120          6           0        5.538529    4.965389   -0.561430
    121          8           0        6.732971    4.649763   -0.418993
    122          8           0        4.986099    5.866087   -1.394454
    123          6           0        6.027870    6.708468   -2.040163
    124          1           0        3.273993   -1.300624   -4.098755
    125          1           0        4.147430   -5.119111    0.766191
    126          1           0        4.225448   -0.207477    4.678274
    127          1           0        3.537924    3.474201   -2.871721
    128          1           0        3.678903    1.216947   -4.551607
    129          1           0        1.534711    2.279816   -2.759144
    130          1           0        1.496569    0.521168   -3.004133
    131          1           0        1.376583    1.548347   -4.400624
    132          1           0        5.885053    1.872110   -3.915779
    133          1           0        6.215432    3.223368   -2.771169
    134          1           0        4.538499    4.215655   -4.847412
    135          1           0        5.543473    3.037292   -5.613162
    136          1           0        3.874412   -3.081427   -5.052164
    137          1           0        3.469734   -4.709999   -4.624170
    138          1           0        5.187532   -4.320992   -4.878377
    139          1           0        4.320806   -6.590855   -3.779525
    140          1           0        5.476029   -7.722891   -2.868116
    141          1           0        6.014702   -6.183774   -3.599141
    142          1           0        4.637098   -4.801783    3.247959
    143          1           0        3.169376   -2.683146    4.735895
    144          1           0        2.658392   -5.822116    3.663623
    145          1           0        1.906992   -4.667069    2.507206
    146          1           0        1.929179   -4.295965    4.155674
    147          1           0        5.072697   -4.032040    5.700075
    148          1           0        5.165881   -2.305435    5.991860
    149          1           0        6.649011   -4.093793    4.207411
    150          1           0        7.318173   -2.807010    5.275698
    151          1           0        6.554349   -2.413613    3.670670
    152          1           0        4.881358    3.388341    4.888205
    153          1           0        4.299333    1.777626    5.420229
    154          1           0        3.127651    2.929677    4.663781
    155          1           0        3.455419    4.496320   -0.208866
    156          1           0        5.773707    7.751135   -1.825843
    157          1           0        6.043383    6.402016   -3.102991
    158          1           0        7.035187    6.650727   -1.644667
 ---------------------------------------------------------------------

 SCF Done:  E(RCAM-B3LYP) =  -4069.81125951     A.U. after   19 cycles

 Excitation energies and oscillator strengths:

 Excited State   1:      Singlet-A      1.6485 eV  752.11 nm  f=0.0198  <S**2>=0.000
     309 -> 315       -0.11502
     310 -> 316        0.12101
     311 -> 313       -0.47194
     312 -> 314        0.50004
 This state for optimization and/or second-order correction.
 Total Energy, E(TD-HF/TD-DFT) =  -4069.75067908
 Copying the excited state density for this state as the 1-particle RhoCI density.

 Excited State   2:      Singlet-A      1.7031 eV  728.00 nm  f=0.6742  <S**2>=0.000
     309 -> 315        0.13210
     310 -> 316        0.12413
     311 -> 313        0.49749
     312 -> 314        0.46966

 Excited State   3:      Singlet-A      2.1815 eV  568.35 nm  f=0.0148  <S**2>=0.000
     309 -> 313       -0.34673
     310 -> 314        0.54346
     311 -> 315        0.14404
     312 -> 316       -0.22736

 Excited State   4:      Singlet-A      2.1951 eV  564.83 nm  f=0.1621  <S**2>=0.000
     309 -> 313        0.53910
     310 -> 314        0.34238
     311 -> 315       -0.23735
     312 -> 316       -0.15205

 Excited State   5:      Singlet-A      2.3487 eV  527.88 nm  f=0.0000  <S**2>=0.000
     312 -> 313        0.70709

 The electronic state is 1-A.
 Alpha  occ. eigenvalues --  -46.87893 -46.87438 -19.26270 -19.26173 -19.19018
 Alpha  occ. eigenvalues --  -19.18965 -19.18924 -19.18510 -19.18224 -19.17764
 Alpha  occ. eigenvalues --  -14.42552 -14.42286 -14.41544 -14.41142 -14.39503
 Alpha  occ. eigenvalues --  -14.39131 -14.38678 -14.38358 -10.39084 -10.38886
 Alpha  occ. eigenvalues --  -10.35561 -10.35191 -10.34442 -10.33939 -10.31628
 Alpha  occ. eigenvalues --  -10.31623 -10.31502 -10.31087 -10.31015 -10.30826
 Alpha  occ. eigenvalues --  -10.30666 -10.30597 -10.30310 -10.30155 -10.30119
 Alpha  occ. eigenvalues --  -10.30002 -10.29948 -10.29729 -10.29661 -10.29360
 Alpha  occ. eigenvalues --  -10.29222 -10.29162 -10.28866 -10.28688 -10.28581
 Alpha  occ. eigenvalues --  -10.28556 -10.28459 -10.28230 -10.28171 -10.27985
 Alpha  occ. eigenvalues --  -10.27887 -10.27833 -10.27755 -10.27690 -10.27645
 Alpha  occ. eigenvalues --  -10.27591 -10.27523 -10.27494 -10.27470 -10.27349
 Alpha  occ. eigenvalues --  -10.27326 -10.27256 -10.27237 -10.27207 -10.27201
 Alpha  occ. eigenvalues --  -10.26860 -10.26766 -10.26572 -10.26569 -10.26332
 Alpha  occ. eigenvalues --  -10.26285 -10.26251 -10.26119 -10.25991 -10.25922
 Alpha  occ. eigenvalues --  -10.25879 -10.25716 -10.25502 -10.25498 -10.25247
 Alpha  occ. eigenvalues --  -10.24921 -10.24875 -10.24805 -10.24611 -10.24587
 Alpha  occ. eigenvalues --  -10.24466  -3.16636  -3.16188  -1.91518  -1.91104
 Alpha  occ. eigenvalues --   -1.91070  -1.90946  -1.90659  -1.90495  -1.16622
 Alpha  occ. eigenvalues --   -1.16461  -1.08674  -1.08367  -1.07324  -1.06764
 Alpha  occ. eigenvalues --   -1.06748  -1.06641  -1.04682  -1.04280  -1.03856
 Alpha  occ. eigenvalues --   -1.03443  -1.03329  -1.02813  -1.02505  -1.01882
 Alpha  occ. eigenvalues --   -0.92053  -0.91744  -0.89612  -0.89303  -0.89293
 Alpha  occ. eigenvalues --   -0.88987  -0.88375  -0.88032  -0.87961  -0.87779
 Alpha  occ. eigenvalues --   -0.87528  -0.87474  -0.87397  -0.86921  -0.85094
 Alpha  occ. eigenvalues --   -0.84826  -0.84020  -0.83693  -0.83093  -0.82750
 Alpha  occ. eigenvalues --   -0.82747  -0.82476  -0.81635  -0.81393  -0.80675
 Alpha  occ. eigenvalues --   -0.80238  -0.78910  -0.78417  -0.77322  -0.77018
 Alpha  occ. eigenvalues --   -0.76958  -0.76723  -0.76001  -0.75647  -0.74976
 Alpha  occ. eigenvalues --   -0.74618  -0.72869  -0.72470  -0.71758  -0.71381
 Alpha  occ. eigenvalues --   -0.70001  -0.69588  -0.68981  -0.68648  -0.67732
 Alpha  occ. eigenvalues --   -0.67388  -0.67347  -0.67034  -0.65389  -0.65088
 Alpha  occ. eigenvalues --   -0.64933  -0.64701  -0.64562  -0.64463  -0.64358
 Alpha  occ. eigenvalues --   -0.64011  -0.62330  -0.62084  -0.60552  -0.60137
 Alpha  occ. eigenvalues --   -0.59912  -0.59606  -0.59074  -0.58778  -0.58587
 Alpha  occ. eigenvalues --   -0.58209  -0.57637  -0.57388  -0.57305  -0.57025
 Alpha  occ. eigenvalues --   -0.56406  -0.56016  -0.55984  -0.55707  -0.55620
 Alpha  occ. eigenvalues --   -0.55405  -0.55252  -0.55053  -0.54575  -0.54305
 Alpha  occ. eigenvalues --   -0.54007  -0.53749  -0.53401  -0.53327  -0.53021
 Alpha  occ. eigenvalues --   -0.52984  -0.52952  -0.52879  -0.52715  -0.52531
 Alpha  occ. eigenvalues --   -0.52495  -0.52231  -0.51995  -0.51730  -0.51575
 Alpha  occ. eigenvalues --   -0.51484  -0.51274  -0.50982  -0.50719  -0.50307
 Alpha  occ. eigenvalues --   -0.50134  -0.50035  -0.49805  -0.49685  -0.49622
 Alpha  occ. eigenvalues --   -0.49302  -0.49299  -0.49193  -0.48999  -0.48894
 Alpha  occ. eigenvalues --   -0.48661  -0.48561  -0.48516  -0.48354  -0.48183
 Alpha  occ. eigenvalues --   -0.48137  -0.47793  -0.47414  -0.47389  -0.46935
 Alpha  occ. eigenvalues --   -0.46892  -0.46665  -0.46516  -0.46449  -0.46389
 Alpha  occ. eigenvalues --   -0.46232  -0.46067  -0.45882  -0.45863  -0.45593
 Alpha  occ. eigenvalues --   -0.45286  -0.45019  -0.44654  -0.44620  -0.44331
 Alpha  occ. eigenvalues --   -0.44270  -0.44242  -0.44198  -0.44097  -0.43932
 Alpha  occ. eigenvalues --   -0.43888  -0.43729  -0.43546  -0.43487  -0.43365
 Alpha  occ. eigenvalues --   -0.43193  -0.43111  -0.42774  -0.42736  -0.42683
 Alpha  occ. eigenvalues --   -0.42674  -0.42368  -0.42102  -0.41788  -0.41786
 Alpha  occ. eigenvalues --   -0.41644  -0.41438  -0.41289  -0.41232  -0.40979
 Alpha  occ. eigenvalues --   -0.40942  -0.40796  -0.40660  -0.40551  -0.40529
 Alpha  occ. eigenvalues --   -0.40372  -0.40309  -0.40083  -0.39538  -0.39257
 Alpha  occ. eigenvalues --   -0.38562  -0.38176  -0.37868  -0.37507  -0.37414
 Alpha  occ. eigenvalues --   -0.37372  -0.37073  -0.37006  -0.36745  -0.36588
 Alpha  occ. eigenvalues --   -0.36251  -0.36028  -0.34379  -0.34031  -0.33787
 Alpha  occ. eigenvalues --   -0.33658  -0.33272  -0.32953  -0.31451  -0.31127
 Alpha  occ. eigenvalues --   -0.31070  -0.30753  -0.30080  -0.29668  -0.29552
 Alpha  occ. eigenvalues --   -0.29410  -0.29101  -0.28942  -0.24174  -0.23808
 Alpha  occ. eigenvalues --   -0.21227  -0.20894
 Alpha virt. eigenvalues --   -0.08872  -0.08559  -0.01847  -0.01468  -0.00164
 Alpha virt. eigenvalues --    0.00186   0.02123   0.02465   0.02848   0.03492
 Alpha virt. eigenvalues --    0.04612   0.04925   0.05081   0.05373   0.06058

 Mulliken charges:
               1
     1  Mg   0.838611
     2  C   -0.002919
     3  C   -0.095083
     4  C   -0.045375
     5  C   -0.064045
     6  N   -0.256680
     7  C   -0.052693
     8  C   -0.013747
     9  C   -0.086833
    10  C    0.046001
    11  C    0.104804
    12  C    0.053631
    13  C   -0.071802
    14  H    0.036237
    15  N   -0.433098
    16  C    0.168086
    17  C   -0.178012
    18  C   -0.004191
    19  C    0.148827
    20  C    0.110344
    21  C    0.012362
    22  O   -0.248766
    23  C    0.062793
    24  N   -0.341113
    25  C    0.041110
    26  C   -0.028395
    27  C   -0.023956
    28  C    0.074981
    29  C    0.076043
    30  C    0.034990
    31  C   -0.005763
    32  N   -0.310596
    33  C    0.080722
    34  C   -0.169717
    35  C    0.008723
    36  C    0.083243
    37  C    0.127268
    38  C    0.046530
    39  O   -0.187211
    40  C   -0.005452
    41  C    0.213153
    42  O   -0.256622
    43  O   -0.305138
    44  C    0.156717
    45  H   -0.017828
    46  H   -0.016449
    47  H   -0.041464
    48  H    0.001499
    49  H   -0.004737
    50  H    0.025789
    51  H    0.016574
    52  H    0.016639
    53  H    0.009500
    54  H    0.044142
    55  H    0.018678
    56  H    0.016936
    57  H    0.005594
    58  H    0.027123
    59  H    0.037534
    60  H    0.037475
    61  H    0.035797
    62  H    0.029502
    63  H    0.017175
    64  H    0.009704
    65  H    0.023605
    66  H    0.012537
    67  H    0.004835
    68  H    0.006834
    69  H    0.004329
    70  H    0.010498
    71  H    0.016965
    72  H    0.029503
    73  H    0.047916
    74  H    0.008884
    75  H    0.046378
    76  H    0.035288
    77  H    0.043748
    78  H    0.045564
    79  H    0.056025
    80  Mg   0.837839
    81  C   -0.015779
    82  C   -0.088125
    83  C   -0.045164
    84  C   -0.064221
    85  N   -0.254422
    86  C   -0.048912
    87  C   -0.015033
    88  C   -0.090805
    89  C    0.045803
    90  C    0.113869
    91  C    0.062696
    92  C   -0.077285
    93  H    0.034334
    94  N   -0.423386
    95  C    0.162667
    96  C   -0.175225
    97  C   -0.007775
    98  C    0.151624
    99  C    0.099660
   100  C    0.015624
   101  O   -0.253485
   102  C    0.061317
   103  N   -0.349876
   104  C    0.037131
   105  C   -0.019912
   106  C   -0.034946
   107  C    0.089156
   108  C    0.073547
   109  C    0.034787
   110  C   -0.007498
   111  N   -0.324724
   112  C    0.079202
   113  C   -0.161253
   114  C    0.004339
   115  C    0.096204
   116  C    0.130411
   117  C    0.045138
   118  O   -0.186981
   119  C   -0.000251
   120  C    0.210756
   121  O   -0.251595
   122  O   -0.305443
   123  C    0.152272
   124  H   -0.021684
   125  H   -0.015884
   126  H   -0.040290
   127  H   -0.000537
   128  H   -0.005738
   129  H    0.026054
   130  H    0.014445
   131  H    0.012759
   132  H    0.013691
   133  H    0.037790
   134  H    0.020001
   135  H    0.018854
   136  H    0.007234
   137  H    0.025223
   138  H    0.039079
   139  H    0.038082
   140  H    0.035981
   141  H    0.033319
   142  H    0.013981
   143  H    0.012082
   144  H    0.024285
   145  H    0.013137
   146  H    0.004447
   147  H    0.005547
   148  H    0.003679
   149  H    0.010687
   150  H    0.017622
   151  H    0.030382
   152  H    0.045380
   153  H    0.007409
   154  H    0.052253
   155  H    0.038965
   156  H    0.043351
   157  H    0.048706
   158  H    0.053367
 Sum of Mulliken charges =  -0.00000

 Dipole moment (field-independent basis, Debye):
    X=             -4.0273    Y=             -1.8799    Z=             -7.2570  Tot=              8.5099
 Quadrupole moment (field-independent basis, Debye-Ang):
   XX=           -518.8541   YY=           -548.2259   ZZ=           -451.0539
   XY=             -9.8432   XZ=             -0.8534   YZ=            -45.4504

 Normal termination of Gaussian 16 at Thu Aug 19 22:05:04 2021.
