 Gaussian 16, Revision A.03,
 Gaussian 16:  ES64L-G16RevA.03 25-Dec-2016

 -----------------------------------
 #p cam-b3lyp/Def2SVP td=(nstates=5)
 -----------------------------------

 --------------------------------
 TDDFT excited states in gaussian
 --------------------------------
 Symbolic Z-matrix:
 Charge =  0 Multiplicity = 1

                         Standard orientation:
 ---------------------------------------------------------------------
 Center     Atomic      Atomic             Coordinates (Angstroms)
 Number     Number       Type             X           Y           Z
 ---------------------------------------------------------------------
      1         12           0       -4.409202    0.640291    0.387405
      2          6           0       -4.745547   -2.503962   -1.289722
      3          6           0       -4.958071   -1.029736    3.311925
      4          6           0       -4.568557    3.455416    1.838714
      5          6           0       -5.016464    2.175074   -2.682014
      6          7           0       -4.788893   -1.496029    0.826287
      7          6           0       -4.833398   -2.608695    0.100227
      8          6           0       -4.906405   -3.905437    0.960752
      9          6           0       -5.531996   -3.289482    2.291629
     10          6           0       -5.034834   -1.861142    2.155247
     11          6           0       -7.057230   -3.279971    2.300166
     12          6           0       -3.492417   -4.523813    1.225293
     13          6           0       -3.496790   -5.953919    1.773137
     14          1           0       -2.446736   -6.868659    1.351252
     15          7           0       -4.234444    1.108008    2.298832
     16          6           0       -4.483195    0.298935    3.356570
     17          6           0       -4.206978    1.108511    4.562793
     18          6           0       -3.960610    2.510089    4.123505
     19          6           0       -4.274533    2.418077    2.720521
     20          6           0       -4.148476    0.532884    5.944452
     21          6           0       -3.523359    3.739958    4.854508
     22          8           0       -3.595331    4.904115    4.330931
     23          6           0       -3.085660    3.554103    6.249828
     24          7           0       -4.960221    2.545112   -0.265030
     25          6           0       -4.883719    3.602705    0.550217
     26          6           0       -5.053114    4.887610   -0.204941
     27          6           0       -5.019568    4.498181   -1.753157
     28          6           0       -4.912384    2.960155   -1.607359
     29          6           0       -6.335260    5.676280    0.095247
     30          6           0       -3.980381    5.229217   -2.639777
     31          6           0       -2.582230    4.812945   -2.241044
     32          7           0       -4.636853   -0.009376   -1.671029
     33          6           0       -4.906848    0.798403   -2.785152
     34          6           0       -5.080416   -0.102086   -3.939734
     35          6           0       -4.914657   -1.380436   -3.410403
     36          6           0       -4.680094   -1.285972   -2.008851
     37          6           0       -5.411860    0.296254   -5.264839
     38          6           0       -4.905584   -2.805515   -3.698367
     39          8           0       -4.954700   -3.482851   -4.726130
     40          6           0       -4.916837   -3.596099   -2.316094
     41          6           0       -3.857151   -4.661206   -2.393042
     42          8           0       -2.647922   -4.357749   -2.448230
     43          8           0       -4.412138   -5.858745   -2.151317
     44          6           0       -3.409262   -6.956633   -2.183488
     45          1           0       -5.350658   -1.405307    4.258901
     46          1           0       -4.524020    4.453838    2.278724
     47          1           0       -5.124301    2.586646   -3.687217
     48          1           0       -5.564438   -4.678307    0.563149
     49          1           0       -5.117470   -3.751075    3.187632
     50          1           0       -7.462922   -3.580120    1.334120
     51          1           0       -7.340608   -2.252541    2.529460
     52          1           0       -7.443801   -3.887273    3.119022
     53          1           0       -3.024522   -4.005864    2.062468
     54          1           0       -2.879550   -4.484852    0.324070
     55          1           0       -4.476364   -6.419962    1.662925
     56          1           0       -3.338632   -5.907376    2.850643
     57          1           0       -4.534549   -0.485349    5.970773
     58          1           0       -4.846005    1.103777    6.557023
     59          1           0       -3.147845    0.594314    6.372585
     60          1           0       -3.900099    3.116007    6.827159
     61          1           0       -2.725289    4.526383    6.583974
     62          1           0       -2.270842    2.829822    6.270782
     63          1           0       -4.236883    5.576763    0.007808
     64          1           0       -5.972877    4.693542   -2.244797
     65          1           0       -6.152657    6.696339    0.434130
     66          1           0       -6.910531    5.116475    0.832114
     67          1           0       -7.041188    5.733452   -0.732892
     68          1           0       -4.048241    6.306687   -2.493493
     69          1           0       -4.106913    5.030398   -3.704067
     70          1           0       -2.364908    5.466796   -1.397194
     71          1           0       -1.884746    4.988517   -3.060740
     72          1           0       -2.562212    3.787277   -1.872139
     73          1           0       -4.771105   -0.285391   -5.927480
     74          1           0       -5.260635    1.366184   -5.406205
     75          1           0       -6.464027    0.014596   -5.303153
     76          1           0       -5.914858   -4.018838   -2.204880
     77          1           0       -3.757582   -7.688279   -2.912597
     78          1           0       -3.281628   -7.290016   -1.153454
     79          1           0       -2.431632   -6.704543   -2.595833
     80         12           0        4.544477    0.765847   -0.547623
     81          6           0        4.528598   -2.547454    0.831096
     82          6           0        3.978906    1.921837    2.611244
     83          6           0        4.104796    3.652350   -1.789488
     84          6           0        3.967505   -0.678943   -3.666180
     85          7           0        4.304516   -0.276296    1.388506
     86          6           0        4.379314   -1.533132    1.799760
     87          6           0        4.369632   -1.706806    3.342256
     88          6           0        3.627721   -0.337433    3.733767
     89          6           0        4.019043    0.507368    2.523053
     90          6           0        2.113277   -0.460044    3.761254
     91          6           0        5.816638   -1.769014    3.945849
     92          6           0        5.887594   -2.245177    5.398431
     93          1           0        7.029914   -3.056481    5.809946
     94          7           0        4.593685    2.554424    0.310953
     95          6           0        4.361558    2.840483    1.609238
     96          6           0        4.499416    4.300093    1.730492
     97          6           0        4.669422    4.870126    0.366346
     98          6           0        4.436644    3.690800   -0.443037
     99          6           0        4.542755    5.006134    3.054517
    100          6           0        4.976410    6.251157   -0.128331
    101          8           0        4.842908    6.569407   -1.362725
    102          6           0        5.348093    7.244641    0.889681
    103          7           0        3.891328    1.414176   -2.411863
    104          6           0        3.841917    2.724395   -2.709876
    105          6           0        3.608682    2.939583   -4.186254
    106          6           0        3.753492    1.495963   -4.858985
    107          6           0        3.966472    0.644708   -3.588002
    108          6           0        2.256769    3.543966   -4.565008
    109          6           0        4.776604    1.359881   -6.019771
    110          6           0        6.182347    1.534822   -5.491884
    111          7           0        4.473287   -1.241953   -1.342431
    112          6           0        4.190095   -1.623367   -2.672243
    113          6           0        4.143105   -3.099646   -2.701126
    114          6           0        4.381306   -3.477052   -1.370969
    115          6           0        4.543834   -2.317347   -0.565891
    116          6           0        3.857964   -3.900689   -3.842672
    117          6           0        4.521681   -4.592572   -0.462899
    118          8           0        4.567591   -5.815493   -0.589741
    119          6           0        4.497678   -4.037917    1.026454
    120          6           0        5.638307   -4.670113    1.775991
    121          8           0        6.815736   -4.422479    1.461437
    122          8           0        5.157932   -5.286874    2.871083
    123          6           0        6.252953   -5.919898    3.653392
    124          1           0        3.576832    2.373909    3.518358
    125          1           0        4.050629    4.622085   -2.289632
    126          1           0        3.890251   -1.207529   -4.618702
    127          1           0        3.798251   -2.554788    3.700327
    128          1           0        4.039601    0.088386    4.645035
    129          1           0        1.780126   -1.420322    3.396539
    130          1           0        1.742252    0.334822    3.127547
    131          1           0        1.735909   -0.246012    4.765308
    132          1           0        6.199488   -0.747171    4.064171
    133          1           0        6.458380   -2.374172    3.335455
    134          1           0        4.949133   -2.708299    5.726698
    135          1           0        5.995729   -1.371125    6.045238
    136          1           0        4.227702    4.346631    3.872566
    137          1           0        3.776038    5.787900    3.025261
    138          1           0        5.511763    5.468752    3.253666
    139          1           0        4.543404    7.336597    1.615265
    140          1           0        5.616767    8.145452    0.334504
    141          1           0        6.223464    6.875460    1.435623
    142          1           0        4.359365    3.598994   -4.604294
    143          1           0        2.807658    1.158976   -5.308064
    144          1           0        2.345136    4.479334   -5.149258
    145          1           0        1.692748    3.714258   -3.657590
    146          1           0        1.597218    2.884628   -5.126669
    147          1           0        4.620964    2.151767   -6.756546
    148          1           0        4.709965    0.413224   -6.545497
    149          1           0        6.302230    2.622014   -5.464718
    150          1           0        6.903944    1.074823   -6.163994
    151          1           0        6.264472    1.168309   -4.462040
    152          1           0        4.565469   -4.719131   -3.833296
    153          1           0        3.929473   -3.322850   -4.761779
    154          1           0        2.828478   -4.195240   -3.622036
    155          1           0        3.530224   -4.298369    1.457480
    156          1           0        5.994333   -6.977176    3.767244
    157          1           0        6.343605   -5.320995    4.579056
    158          1           0        7.227774   -5.989868    3.185104
 ---------------------------------------------------------------------

 SCF Done:  E(RCAM-B3LYP) =  -4069.81186062     A.U. after   19 cycles

 Excitation energies and oscillator strengths:

 Excited State   1:      Singlet-A      1.6557 eV  748.83 nm  f=0.1285  <S**2>=0.000
     309 -> 315       -0.11562
     310 -> 316        0.12270
     311 -> 313        0.46986
     312 -> 314        0.50108
 This state for optimization and/or second-order correction.
 Total Energy, E(TD-HF/TD-DFT) =  -4069.75101432
 Copying the excited state density for this state as the 1-particle RhoCI density.

 Excited State   2:      Singlet-A      1.6928 eV  732.41 nm  f=0.5481  <S**2>=0.000
     309 -> 315       -0.12999
     310 -> 316       -0.12222
     311 -> 313        0.49936
     312 -> 314       -0.46849

 Excited State   3:      Singlet-A      2.1841 eV  567.68 nm  f=0.0483  <S**2>=0.000
     309 -> 313       -0.32634
     310 -> 314        0.55449
     311 -> 315       -0.13661
     312 -> 316       -0.23445

 Excited State   4:      Singlet-A      2.1917 eV  565.69 nm  f=0.1409  <S**2>=0.000
     309 -> 313        0.55196
     310 -> 314        0.32367
     311 -> 315        0.23997
     312 -> 316       -0.14190

 Excited State   5:      Singlet-A      2.3490 eV  527.82 nm  f=0.0000  <S**2>=0.000
     312 -> 313        0.70707

 The electronic state is 1-A.
 Alpha  occ. eigenvalues --  -46.87892 -46.87451 -19.26277 -19.26256 -19.19058
 Alpha  occ. eigenvalues --  -19.19019 -19.18990 -19.18522 -19.18254 -19.17854
 Alpha  occ. eigenvalues --  -14.42540 -14.42304 -14.41539 -14.41148 -14.39510
 Alpha  occ. eigenvalues --  -14.39144 -14.38683 -14.38376 -10.39083 -10.38982
 Alpha  occ. eigenvalues --  -10.35629 -10.35202 -10.34468 -10.34034 -10.31723
 Alpha  occ. eigenvalues --  -10.31588 -10.31485 -10.31116 -10.31000 -10.30859
 Alpha  occ. eigenvalues --  -10.30665 -10.30610 -10.30310 -10.30169 -10.30133
 Alpha  occ. eigenvalues --  -10.30004 -10.29926 -10.29744 -10.29669 -10.29371
 Alpha  occ. eigenvalues --  -10.29216 -10.29170 -10.28795 -10.28637 -10.28626
 Alpha  occ. eigenvalues --  -10.28494 -10.28467 -10.28202 -10.28176 -10.28048
 Alpha  occ. eigenvalues --  -10.27904 -10.27823 -10.27774 -10.27709 -10.27655
 Alpha  occ. eigenvalues --  -10.27568 -10.27517 -10.27490 -10.27475 -10.27293
 Alpha  occ. eigenvalues --  -10.27287 -10.27265 -10.27244 -10.27212 -10.27182
 Alpha  occ. eigenvalues --  -10.26885 -10.26721 -10.26664 -10.26624 -10.26290
 Alpha  occ. eigenvalues --  -10.26242 -10.26221 -10.26115 -10.25989 -10.25953
 Alpha  occ. eigenvalues --  -10.25931 -10.25697 -10.25501 -10.25462 -10.25235
 Alpha  occ. eigenvalues --  -10.24938 -10.24883 -10.24698 -10.24636 -10.24546
 Alpha  occ. eigenvalues --  -10.24484  -3.16635  -3.16201  -1.91517  -1.91103
 Alpha  occ. eigenvalues --   -1.91083  -1.90946  -1.90672  -1.90509  -1.16611
 Alpha  occ. eigenvalues --   -1.16563  -1.08705  -1.08467  -1.07395  -1.06843
 Alpha  occ. eigenvalues --   -1.06777  -1.06641  -1.04671  -1.04306  -1.03853
 Alpha  occ. eigenvalues --   -1.03457  -1.03335  -1.02820  -1.02508  -1.01895
 Alpha  occ. eigenvalues --   -0.92055  -0.91791  -0.89594  -0.89285  -0.89242
 Alpha  occ. eigenvalues --   -0.89042  -0.88359  -0.88020  -0.87975  -0.87757
 Alpha  occ. eigenvalues --   -0.87540  -0.87475  -0.87425  -0.86912  -0.85046
 Alpha  occ. eigenvalues --   -0.84866  -0.83996  -0.83684  -0.83131  -0.82742
 Alpha  occ. eigenvalues --   -0.82717  -0.82510  -0.81620  -0.81443  -0.80669
 Alpha  occ. eigenvalues --   -0.80270  -0.78926  -0.78413  -0.77295  -0.76980
 Alpha  occ. eigenvalues --   -0.76972  -0.76755  -0.75976  -0.75693  -0.74962
 Alpha  occ. eigenvalues --   -0.74625  -0.72868  -0.72476  -0.71748  -0.71409
 Alpha  occ. eigenvalues --   -0.69961  -0.69562  -0.68949  -0.68683  -0.67740
 Alpha  occ. eigenvalues --   -0.67412  -0.67290  -0.67063  -0.65344  -0.65136
 Alpha  occ. eigenvalues --   -0.64923  -0.64679  -0.64581  -0.64497  -0.64340
 Alpha  occ. eigenvalues --   -0.64006  -0.62319  -0.62136  -0.60569  -0.60134
 Alpha  occ. eigenvalues --   -0.59877  -0.59650  -0.59069  -0.58797  -0.58586
 Alpha  occ. eigenvalues --   -0.58237  -0.57642  -0.57389  -0.57384  -0.57037
 Alpha  occ. eigenvalues --   -0.56415  -0.55998  -0.55991  -0.55763  -0.55633
 Alpha  occ. eigenvalues --   -0.55390  -0.55279  -0.55067  -0.54557  -0.54330
 Alpha  occ. eigenvalues --   -0.53950  -0.53802  -0.53418  -0.53309  -0.53028
 Alpha  occ. eigenvalues --   -0.52987  -0.52984  -0.52869  -0.52755  -0.52500
 Alpha  occ. eigenvalues --   -0.52488  -0.52206  -0.52015  -0.51694  -0.51567
 Alpha  occ. eigenvalues --   -0.51515  -0.51262  -0.51014  -0.50754  -0.50290
 Alpha  occ. eigenvalues --   -0.50108  -0.50049  -0.49830  -0.49676  -0.49607
 Alpha  occ. eigenvalues --   -0.49323  -0.49310  -0.49157  -0.49045  -0.48937
 Alpha  occ. eigenvalues --   -0.48652  -0.48596  -0.48517  -0.48398  -0.48189
 Alpha  occ. eigenvalues --   -0.48156  -0.47781  -0.47431  -0.47392  -0.46932
 Alpha  occ. eigenvalues --   -0.46872  -0.46613  -0.46530  -0.46446  -0.46421
 Alpha  occ. eigenvalues --   -0.46230  -0.46064  -0.45876  -0.45874  -0.45631
 Alpha  occ. eigenvalues --   -0.45275  -0.45028  -0.44663  -0.44604  -0.44382
 Alpha  occ. eigenvalues --   -0.44293  -0.44230  -0.44153  -0.44102  -0.43970
 Alpha  occ. eigenvalues --   -0.43892  -0.43762  -0.43540  -0.43455  -0.43411
 Alpha  occ. eigenvalues --   -0.43226  -0.43105  -0.42796  -0.42748  -0.42714
 Alpha  occ. eigenvalues --   -0.42658  -0.42358  -0.42062  -0.41799  -0.41785
 Alpha  occ. eigenvalues --   -0.41588  -0.41490  -0.41317  -0.41217  -0.40986
 Alpha  occ. eigenvalues --   -0.40910  -0.40833  -0.40633  -0.40577  -0.40555
 Alpha  occ. eigenvalues --   -0.40308  -0.40272  -0.40127  -0.39486  -0.39224
 Alpha  occ. eigenvalues --   -0.38531  -0.38173  -0.37786  -0.37549  -0.37395
 Alpha  occ. eigenvalues --   -0.37320  -0.37071  -0.37033  -0.36733  -0.36657
 Alpha  occ. eigenvalues --   -0.36234  -0.36045  -0.34377  -0.34050  -0.33790
 Alpha  occ. eigenvalues --   -0.33738  -0.33274  -0.32964  -0.31515  -0.31126
 Alpha  occ. eigenvalues --   -0.31084  -0.30776  -0.30108  -0.29762  -0.29575
 Alpha  occ. eigenvalues --   -0.29427  -0.29108  -0.28968  -0.24172  -0.23825
 Alpha  occ. eigenvalues --   -0.21227  -0.20903
 Alpha virt. eigenvalues --   -0.08883  -0.08573  -0.01851  -0.01477  -0.00190
 Alpha virt. eigenvalues --    0.00164   0.02104   0.02423   0.02853   0.03483
 Alpha virt. eigenvalues --    0.04656   0.04900   0.05085   0.05282   0.06175

 Mulliken charges:
               1
     1  Mg   0.838768
     2  C   -0.002723
     3  C   -0.094566
     4  C   -0.045857
     5  C   -0.064132
     6  N   -0.256839
     7  C   -0.052118
     8  C   -0.013950
     9  C   -0.086867
    10  C    0.046250
    11  C    0.104807
    12  C    0.053598
    13  C   -0.073036
    14  H    0.039636
    15  N   -0.433022
    16  C    0.168059
    17  C   -0.177895
    18  C   -0.004735
    19  C    0.148665
    20  C    0.110292
    21  C    0.011254
    22  O   -0.249642
    23  C    0.063154
    24  N   -0.341279
    25  C    0.041396
    26  C   -0.028188
    27  C   -0.024083
    28  C    0.075362
    29  C    0.076117
    30  C    0.034884
    31  C   -0.005291
    32  N   -0.310551
    33  C    0.080784
    34  C   -0.170059
    35  C    0.008447
    36  C    0.083211
    37  C    0.127361
    38  C    0.046023
    39  O   -0.187976
    40  C   -0.005191
    41  C    0.212841
    42  O   -0.257021
    43  O   -0.305006
    44  C    0.157253
    45  H   -0.017640
    46  H   -0.016963
    47  H   -0.041384
    48  H    0.001357
    49  H   -0.004115
    50  H    0.025646
    51  H    0.016264
    52  H    0.016808
    53  H    0.009961
    54  H    0.044906
    55  H    0.017785
    56  H    0.017322
    57  H    0.006171
    58  H    0.026993
    59  H    0.037384
    60  H    0.038080
    61  H    0.034849
    62  H    0.028899
    63  H    0.016761
    64  H    0.009594
    65  H    0.023300
    66  H    0.012418
    67  H    0.004933
    68  H    0.006979
    69  H    0.004354
    70  H    0.009796
    71  H    0.019586
    72  H    0.028468
    73  H    0.047206
    74  H    0.009092
    75  H    0.046454
    76  H    0.035400
    77  H    0.043152
    78  H    0.047108
    79  H    0.054910
    80  Mg   0.837987
    81  C   -0.016790
    82  C   -0.088003
    83  C   -0.045253
    84  C   -0.061989
    85  N   -0.254425
    86  C   -0.049787
    87  C   -0.014975
    88  C   -0.090614
    89  C    0.045544
    90  C    0.114851
    91  C    0.062715
    92  C   -0.077389
    93  H    0.034495
    94  N   -0.423388
    95  C    0.162432
    96  C   -0.174390
    97  C   -0.008018
    98  C    0.151849
    99  C    0.099288
   100  C    0.015431
   101  O   -0.253933
   102  C    0.061200
   103  N   -0.349748
   104  C    0.037222
   105  C   -0.019972
   106  C   -0.035332
   107  C    0.088848
   108  C    0.072973
   109  C    0.034669
   110  C   -0.007560
   111  N   -0.324617
   112  C    0.078647
   113  C   -0.159861
   114  C    0.002859
   115  C    0.096631
   116  C    0.130211
   117  C    0.043469
   118  O   -0.188627
   119  C    0.000537
   120  C    0.210963
   121  O   -0.251081
   122  O   -0.305996
   123  C    0.152188
   124  H   -0.020640
   125  H   -0.016186
   126  H   -0.038877
   127  H   -0.001830
   128  H   -0.005305
   129  H    0.022427
   130  H    0.015808
   131  H    0.012605
   132  H    0.014089
   133  H    0.037805
   134  H    0.019612
   135  H    0.019185
   136  H    0.007897
   137  H    0.027108
   138  H    0.038963
   139  H    0.038725
   140  H    0.035753
   141  H    0.033499
   142  H    0.013867
   143  H    0.014582
   144  H    0.023668
   145  H    0.012167
   146  H    0.006310
   147  H    0.005726
   148  H    0.004407
   149  H    0.010457
   150  H    0.017629
   151  H    0.030054
   152  H    0.044434
   153  H    0.008412
   154  H    0.053854
   155  H    0.034797
   156  H    0.043180
   157  H    0.048972
   158  H    0.053613
 Sum of Mulliken charges =  -0.00000

 Dipole moment (field-independent basis, Debye):
    X=             -3.4038    Y=              1.8303    Z=              6.8991  Tot=              7.9078
 Quadrupole moment (field-independent basis, Debye-Ang):
   XX=           -519.1830   YY=           -531.8479   ZZ=           -467.4829
   XY=             16.6276   XZ=              0.5215   YZ=            -30.3631

 Normal termination of Gaussian 16 at Thu Aug 19 21:24:53 2021.
