 Gaussian 16, Revision A.03,
 Gaussian 16:  ES64L-G16RevA.03 25-Dec-2016

 -----------------------------------
 #p cam-b3lyp/Def2SVP td=(nstates=5)
 -----------------------------------

 --------------------------------
 TDDFT excited states in gaussian
 --------------------------------
 Symbolic Z-matrix:
 Charge =  0 Multiplicity = 1

                         Standard orientation:
 ---------------------------------------------------------------------
 Center     Atomic      Atomic             Coordinates (Angstroms)
 Number     Number       Type             X           Y           Z
 ---------------------------------------------------------------------
      1         12           0       -4.431827   -0.553974    0.386230
      2          6           0       -4.494181    2.998520   -0.047488
      3          6           0       -5.551519   -0.816424   -2.826320
      4          6           0       -4.818559   -3.660969    0.889861
      5          6           0       -4.421851    0.014146    3.824660
      6          7           0       -4.921747    0.970360   -1.142504
      7          6           0       -4.845529    2.296169   -1.202435
      8          6           0       -5.100922    2.865793   -2.629908
      9          6           0       -5.957536    1.663085   -3.231326
     10          6           0       -5.420882    0.530263   -2.374214
     11          6           0       -7.456395    1.798999   -2.983438
     12          6           0       -3.772719    3.079851   -3.431023
     13          6           0       -3.903590    3.930434   -4.697804
     14          1           0       -2.807295    4.814323   -5.064173
     15          7           0       -4.615088   -2.046512   -0.895018
     16          6           0       -5.072638   -1.969646   -2.167821
     17          6           0       -5.017199   -3.346369   -2.704701
     18          6           0       -4.669778   -4.259483   -1.580595
     19          6           0       -4.713529   -3.350407   -0.463884
     20          6           0       -5.230783   -3.674966   -4.150438
     21          6           0       -4.359491   -5.721765   -1.520697
     22          8           0       -4.312400   -6.362359   -0.415258
     23          6           0       -4.197190   -6.412350   -2.812901
     24          7           0       -4.818835   -1.676928    2.102864
     25          6           0       -4.881419   -3.012115    2.054457
     26          6           0       -4.884161   -3.608850    3.430625
     27          6           0       -4.563992   -2.408360    4.433655
     28          6           0       -4.510860   -1.250516    3.406599
     29          6           0       -6.187253   -4.297820    3.858741
     30          6           0       -3.364107   -2.596709    5.395538
     31          6           0       -2.073669   -2.622465    4.607373
     32          7           0       -4.275525    1.176008    1.687681
     33          6           0       -4.316586    1.183013    3.089443
     34          6           0       -4.282482    2.594155    3.515570
     35          6           0       -4.240406    3.315260    2.323898
     36          6           0       -4.274255    2.412737    1.222717
     37          6           0       -4.350396    3.061233    4.857829
     38          6           0       -4.199588    4.639186    1.724389
     39          8           0       -4.063791    5.783942    2.158652
     40          6           0       -4.485191    4.491984    0.164712
     41          6           0       -3.447204    5.299740   -0.565646
     42          8           0       -2.244762    4.966600   -0.542936
     43          8           0       -4.056923    6.190006   -1.363275
     44          6           0       -3.083719    7.004328   -2.139101
     45          1           0       -6.122391   -1.014932   -3.735517
     46          1           0       -4.842349   -4.729951    1.111557
     47          1           0       -4.330659    0.265440    4.882955
     48          1           0       -5.683881    3.786659   -2.654199
     49          1           0       -5.727736    1.485181   -4.281690
     50          1           0       -7.676364    2.636141   -2.321073
     51          1           0       -7.761717    0.859039   -2.523279
     52          1           0       -8.000766    1.861897   -3.926032
     53          1           0       -3.463794    2.133199   -3.874280
     54          1           0       -2.999612    3.504663   -2.789800
     55          1           0       -4.851809    4.468276   -4.720555
     56          1           0       -3.951797    3.259966   -5.555912
     57          1           0       -5.630995   -2.823706   -4.699740
     58          1           0       -6.022599   -4.422554   -4.193435
     59          1           0       -4.328584   -4.067647   -4.619662
     60          1           0       -5.113151   -6.307156   -3.394707
     61          1           0       -3.891262   -7.430178   -2.573559
     62          1           0       -3.412737   -5.914220   -3.383382
     63          1           0       -4.112190   -4.371104    3.527870
     64          1           0       -5.403613   -2.192913    5.094937
     65          1           0       -6.055987   -5.339934    4.151097
     66          1           0       -6.900584   -4.208239    3.039947
     67          1           0       -6.722430   -3.801251    4.667705
     68          1           0       -3.441314   -3.550839    5.915750
     69          1           0       -3.289779   -1.812954    6.149497
     70          1           0       -2.009847   -3.659146    4.278659
     71          1           0       -1.230769   -2.363778    5.249098
     72          1           0       -2.140248   -2.000932    3.714204
     73          1           0       -3.605001    3.851781    4.943785
     74          1           0       -4.158121    2.256666    5.567269
     75          1           0       -5.380577    3.414891    4.896688
     76          1           0       -5.492796    4.869546   -0.006460
     77          1           0       -3.299132    8.051362   -1.925673
     78          1           0       -3.158937    6.673245   -3.175021
     79          1           0       -2.041773    6.940128   -1.823560
     80         12           0        4.538031   -0.983463   -0.258472
     81          6           0        4.563929    2.486898    0.655300
     82          6           0        3.484760   -0.007085   -3.352321
     83          6           0        4.072308   -4.043404   -0.956526
     84          6           0        4.475482   -1.735765    3.143854
     85          7           0        4.115900    1.010925   -1.116649
     86          6           0        4.220378    2.261864   -0.694059
     87          6           0        4.019336    3.333062   -1.799348
     88          6           0        3.141778    2.460679   -2.822926
     89          6           0        3.631351    1.066207   -2.437626
     90          6           0        1.648631    2.534931   -2.550260
     91          6           0        5.375107    3.785927   -2.446503
     92          6           0        5.286034    5.045556   -3.310874
     93          1           0        6.416238    5.970275   -3.312014
     94          7           0        4.353131   -1.885999   -2.016257
     95          6           0        3.933288   -1.334257   -3.174096
     96          6           0        3.955342   -2.418777   -4.167826
     97          6           0        4.264744   -3.693243   -3.464471
     98          6           0        4.220580   -3.250617   -2.085261
     99          6           0        3.776255   -2.178401   -5.638739
    100          6           0        4.540494   -5.083421   -3.951881
    101          8           0        4.549596   -6.087041   -3.154704
    102          6           0        4.707070   -5.248283   -5.403279
    103          7           0        4.093926   -2.644517    0.910285
    104          6           0        3.996061   -3.868766    0.362945
    105          6           0        3.945343   -4.939399    1.426686
    106          6           0        4.274420   -4.193808    2.802696
    107          6           0        4.374990   -2.741816    2.285994
    108          6           0        2.617485   -5.685157    1.557150
    109          6           0        5.448315   -4.760840    3.647153
    110          6           0        6.757280   -4.543596    2.922722
    111          7           0        4.707551    0.131527    1.584390
    112          6           0        4.628327   -0.376991    2.899379
    113          6           0        4.685089    0.779067    3.817386
    114          6           0        4.770912    1.890462    2.965366
    115          6           0        4.747484    1.458980    1.611563
    116          6           0        4.607405    0.718325    5.237386
    117          6           0        4.865278    3.331261    2.903248
    118          8           0        5.009768    4.228894    3.732176
    119          6           0        4.608011    3.790350    1.403432
    120          6           0        5.679960    4.777005    1.029315
    121          8           0        6.869176    4.420688    0.955887
    122          8           0        5.102180    5.917688    0.610526
    123          6           0        6.124756    6.923630    0.217814
    124          1           0        2.937185    0.171391   -4.278169
    125          1           0        4.019292   -5.119125   -1.139545
    126          1           0        4.560131   -1.893476    4.221187
    127          1           0        3.464197    4.209442   -1.486992
    128          1           0        3.400421    2.684015   -3.854708
    129          1           0        1.431876    3.069641   -1.637438
    130          1           0        1.311614    1.509204   -2.477026
    131          1           0        1.128765    2.962136   -3.412555
    132          1           0        5.669331    3.054462   -3.210132
    133          1           0        6.130949    3.915108   -1.696403
    134          1           0        4.345868    5.587951   -3.153309
    135          1           0        5.248923    4.744198   -4.360558
    136          1           0        3.401350   -1.166962   -5.838321
    137          1           0        2.969173   -2.838436   -5.974660
    138          1           0        4.677207   -2.400495   -6.214597
    139          1           0        3.809476   -4.903684   -5.911245
    140          1           0        4.985235   -6.293931   -5.548607
    141          1           0        5.525770   -4.601098   -5.737213
    142          1           0        4.698409   -5.697258    1.248807
    143          1           0        3.420834   -4.222297    3.495825
    144          1           0        2.718817   -6.780659    1.440113
    145          1           0        1.928684   -5.286537    0.824225
    146          1           0        2.083580   -5.517693    2.491016
    147          1           0        5.338092   -5.840882    3.771764
    148          1           0        5.515428   -4.327364    4.639417
    149          1           0        6.799042   -5.389151    2.229628
    150          1           0        7.590452   -4.565156    3.622292
    151          1           0        6.727554   -3.626693    2.322680
    152          1           0        5.361022    1.393954    5.619602
    153          1           0        4.760263   -0.295708    5.600910
    154          1           0        3.580036    1.059053    5.391260
    155          1           0        3.611980    4.232870    1.362560
    156          1           0        5.925196    7.827039    0.802372
    157          1           0        6.052143    7.009488   -0.882696
    158          1           0        7.155235    6.721698    0.485734
 ---------------------------------------------------------------------

 SCF Done:  E(RCAM-B3LYP) =  -4069.81182027     A.U. after   19 cycles

 Excitation energies and oscillator strengths:

 Excited State   1:      Singlet-A      1.6491 eV  751.84 nm  f=0.0217  <S**2>=0.000
     309 -> 315       -0.11245
     310 -> 316        0.12336
     311 -> 313       -0.46036
     312 -> 314        0.51079
 This state for optimization and/or second-order correction.
 Total Energy, E(TD-HF/TD-DFT) =  -4069.75121792
 Copying the excited state density for this state as the 1-particle RhoCI density.

 Excited State   2:      Singlet-A      1.7015 eV  728.67 nm  f=0.6764  <S**2>=0.000
     309 -> 315        0.13506
     310 -> 316        0.11987
     311 -> 313        0.50823
     312 -> 314        0.45806

 Excited State   3:      Singlet-A      2.1795 eV  568.85 nm  f=0.0264  <S**2>=0.000
     309 -> 313       -0.28055
     310 -> 314        0.58116
     311 -> 315        0.11538
     312 -> 316       -0.24031

 Excited State   4:      Singlet-A      2.1968 eV  564.37 nm  f=0.1498  <S**2>=0.000
     309 -> 313        0.57579
     310 -> 314        0.27596
     311 -> 315       -0.25450
     312 -> 316       -0.12311

 Excited State   5:      Singlet-A      2.3415 eV  529.51 nm  f=0.0000  <S**2>=0.000
     312 -> 313        0.70709

 The electronic state is 1-A.
 Alpha  occ. eigenvalues --  -46.87911 -46.87415 -19.26510 -19.26015 -19.19259
 Alpha  occ. eigenvalues --  -19.18876 -19.18850 -19.18554 -19.18269 -19.17758
 Alpha  occ. eigenvalues --  -14.42578 -14.42231 -14.41563 -14.41116 -14.39511
 Alpha  occ. eigenvalues --  -14.39117 -14.38696 -14.38350 -10.39305 -10.38771
 Alpha  occ. eigenvalues --  -10.35508 -10.35238 -10.34496 -10.33925 -10.31927
 Alpha  occ. eigenvalues --  -10.31538 -10.31455 -10.31051 -10.31019 -10.30750
 Alpha  occ. eigenvalues --  -10.30684 -10.30607 -10.30311 -10.30161 -10.30111
 Alpha  occ. eigenvalues --  -10.30024 -10.29932 -10.29729 -10.29650 -10.29355
 Alpha  occ. eigenvalues --  -10.29220 -10.29177 -10.28954 -10.28872 -10.28480
 Alpha  occ. eigenvalues --  -10.28409 -10.28352 -10.28293 -10.28149 -10.27889
 Alpha  occ. eigenvalues --  -10.27851 -10.27765 -10.27751 -10.27681 -10.27601
 Alpha  occ. eigenvalues --  -10.27593 -10.27547 -10.27531 -10.27420 -10.27353
 Alpha  occ. eigenvalues --  -10.27326 -10.27306 -10.27254 -10.27213 -10.27158
 Alpha  occ. eigenvalues --  -10.27003 -10.26687 -10.26438 -10.26411 -10.26383
 Alpha  occ. eigenvalues --  -10.26326 -10.26292 -10.26124 -10.25980 -10.25882
 Alpha  occ. eigenvalues --  -10.25711 -10.25649 -10.25519 -10.25425 -10.25152
 Alpha  occ. eigenvalues --  -10.24931 -10.24896 -10.24817 -10.24625 -10.24578
 Alpha  occ. eigenvalues --  -10.24448  -3.16654  -3.16165  -1.91535  -1.91122
 Alpha  occ. eigenvalues --   -1.91047  -1.90964  -1.90636  -1.90473  -1.16858
 Alpha  occ. eigenvalues --   -1.16315  -1.08733  -1.08354  -1.07274  -1.06870
 Alpha  occ. eigenvalues --   -1.06811  -1.06633  -1.04711  -1.04224  -1.03875
 Alpha  occ. eigenvalues --   -1.03414  -1.03341  -1.02801  -1.02522  -1.01865
 Alpha  occ. eigenvalues --   -0.92099  -0.91704  -0.89630  -0.89375  -0.89273
 Alpha  occ. eigenvalues --   -0.88799  -0.88396  -0.88000  -0.87958  -0.87810
 Alpha  occ. eigenvalues --   -0.87561  -0.87430  -0.87365  -0.86946  -0.85157
 Alpha  occ. eigenvalues --   -0.84703  -0.84050  -0.83658  -0.83049  -0.82799
 Alpha  occ. eigenvalues --   -0.82776  -0.82374  -0.81748  -0.81319  -0.80731
 Alpha  occ. eigenvalues --   -0.80186  -0.78894  -0.78432  -0.77355  -0.77104
 Alpha  occ. eigenvalues --   -0.76895  -0.76606  -0.76077  -0.75515  -0.75013
 Alpha  occ. eigenvalues --   -0.74554  -0.72882  -0.72457  -0.71798  -0.71289
 Alpha  occ. eigenvalues --   -0.70020  -0.69555  -0.69031  -0.68545  -0.67761
 Alpha  occ. eigenvalues --   -0.67399  -0.67364  -0.66961  -0.65459  -0.64990
 Alpha  occ. eigenvalues --   -0.64968  -0.64768  -0.64515  -0.64384  -0.64379
 Alpha  occ. eigenvalues --   -0.63976  -0.62468  -0.61996  -0.60537  -0.60142
 Alpha  occ. eigenvalues --   -0.59961  -0.59485  -0.59110  -0.58738  -0.58627
 Alpha  occ. eigenvalues --   -0.58168  -0.57736  -0.57423  -0.57251  -0.57000
 Alpha  occ. eigenvalues --   -0.56423  -0.56170  -0.55973  -0.55627  -0.55602
 Alpha  occ. eigenvalues --   -0.55471  -0.55221  -0.55002  -0.54677  -0.54231
 Alpha  occ. eigenvalues --   -0.54083  -0.53583  -0.53408  -0.53363  -0.53076
 Alpha  occ. eigenvalues --   -0.53009  -0.52885  -0.52869  -0.52646  -0.52554
 Alpha  occ. eigenvalues --   -0.52448  -0.52211  -0.51991  -0.51780  -0.51659
 Alpha  occ. eigenvalues --   -0.51387  -0.51325  -0.50941  -0.50655  -0.50325
 Alpha  occ. eigenvalues --   -0.50147  -0.50028  -0.49731  -0.49649  -0.49646
 Alpha  occ. eigenvalues --   -0.49340  -0.49247  -0.49232  -0.48937  -0.48753
 Alpha  occ. eigenvalues --   -0.48734  -0.48572  -0.48538  -0.48270  -0.48162
 Alpha  occ. eigenvalues --   -0.48114  -0.47828  -0.47414  -0.47341  -0.46927
 Alpha  occ. eigenvalues --   -0.46903  -0.46734  -0.46476  -0.46460  -0.46281
 Alpha  occ. eigenvalues --   -0.46257  -0.46047  -0.45956  -0.45837  -0.45542
 Alpha  occ. eigenvalues --   -0.45310  -0.44965  -0.44705  -0.44639  -0.44262
 Alpha  occ. eigenvalues --   -0.44256  -0.44241  -0.44211  -0.44135  -0.43870
 Alpha  occ. eigenvalues --   -0.43810  -0.43699  -0.43645  -0.43531  -0.43274
 Alpha  occ. eigenvalues --   -0.43150  -0.43105  -0.42885  -0.42780  -0.42656
 Alpha  occ. eigenvalues --   -0.42610  -0.42347  -0.42151  -0.41831  -0.41727
 Alpha  occ. eigenvalues --   -0.41707  -0.41387  -0.41271  -0.41184  -0.41036
 Alpha  occ. eigenvalues --   -0.40932  -0.40695  -0.40691  -0.40529  -0.40460
 Alpha  occ. eigenvalues --   -0.40431  -0.40235  -0.39950  -0.39560  -0.39234
 Alpha  occ. eigenvalues --   -0.38598  -0.38114  -0.37974  -0.37439  -0.37425
 Alpha  occ. eigenvalues --   -0.37389  -0.37029  -0.36921  -0.36905  -0.36481
 Alpha  occ. eigenvalues --   -0.36347  -0.35956  -0.34403  -0.33999  -0.33986
 Alpha  occ. eigenvalues --   -0.33563  -0.33307  -0.32930  -0.31411  -0.31155
 Alpha  occ. eigenvalues --   -0.31109  -0.30714  -0.30133  -0.29654  -0.29544
 Alpha  occ. eigenvalues --   -0.29418  -0.29117  -0.28965  -0.24199  -0.23781
 Alpha  occ. eigenvalues --   -0.21240  -0.20872
 Alpha virt. eigenvalues --   -0.08880  -0.08555  -0.01860  -0.01446  -0.00156
 Alpha virt. eigenvalues --    0.00191   0.02099   0.02458   0.02840   0.03511
 Alpha virt. eigenvalues --    0.04540   0.04861   0.05017   0.05482   0.05875

 Mulliken charges:
               1
     1  Mg   0.838650
     2  C   -0.003755
     3  C   -0.094974
     4  C   -0.045494
     5  C   -0.063507
     6  N   -0.256685
     7  C   -0.053016
     8  C   -0.013850
     9  C   -0.086884
    10  C    0.045937
    11  C    0.104761
    12  C    0.053423
    13  C   -0.071042
    14  H    0.033156
    15  N   -0.433219
    16  C    0.168408
    17  C   -0.177309
    18  C   -0.003472
    19  C    0.148793
    20  C    0.110233
    21  C    0.013036
    22  O   -0.249260
    23  C    0.062293
    24  N   -0.340988
    25  C    0.041154
    26  C   -0.028233
    27  C   -0.023965
    28  C    0.074660
    29  C    0.076078
    30  C    0.035093
    31  C   -0.004529
    32  N   -0.310568
    33  C    0.080421
    34  C   -0.168914
    35  C    0.008682
    36  C    0.082910
    37  C    0.127096
    38  C    0.046292
    39  O   -0.187576
    40  C   -0.005612
    41  C    0.213740
    42  O   -0.259142
    43  O   -0.304264
    44  C    0.157767
    45  H   -0.017702
    46  H   -0.016540
    47  H   -0.040995
    48  H    0.001206
    49  H   -0.004730
    50  H    0.025724
    51  H    0.016924
    52  H    0.016696
    53  H    0.010026
    54  H    0.042915
    55  H    0.019184
    56  H    0.017709
    57  H    0.005290
    58  H    0.027203
    59  H    0.039186
    60  H    0.036962
    61  H    0.036689
    62  H    0.031929
    63  H    0.016448
    64  H    0.009807
    65  H    0.023390
    66  H    0.012682
    67  H    0.004984
    68  H    0.006296
    69  H    0.005216
    70  H    0.007973
    71  H    0.017390
    72  H    0.029894
    73  H    0.048906
    74  H    0.009425
    75  H    0.046123
    76  H    0.035462
    77  H    0.044009
    78  H    0.045723
    79  H    0.052513
    80  Mg   0.837466
    81  C   -0.016207
    82  C   -0.088055
    83  C   -0.046094
    84  C   -0.065620
    85  N   -0.254867
    86  C   -0.047710
    87  C   -0.015428
    88  C   -0.091307
    89  C    0.046509
    90  C    0.113257
    91  C    0.062557
    92  C   -0.077205
    93  H    0.033580
    94  N   -0.423353
    95  C    0.162867
    96  C   -0.175794
    97  C   -0.008559
    98  C    0.151991
    99  C    0.100078
   100  C    0.014753
   101  O   -0.253580
   102  C    0.061516
   103  N   -0.350185
   104  C    0.037523
   105  C   -0.019778
   106  C   -0.034592
   107  C    0.089326
   108  C    0.073620
   109  C    0.034847
   110  C   -0.007543
   111  N   -0.324363
   112  C    0.079161
   113  C   -0.163345
   114  C    0.003333
   115  C    0.096016
   116  C    0.131229
   117  C    0.043179
   118  O   -0.187173
   119  C    0.000310
   120  C    0.210661
   121  O   -0.252146
   122  O   -0.304109
   123  C    0.152464
   124  H   -0.021023
   125  H   -0.016082
   126  H   -0.041386
   127  H    0.003051
   128  H   -0.006575
   129  H    0.035444
   130  H    0.011767
   131  H    0.013926
   132  H    0.012907
   133  H    0.037243
   134  H    0.021479
   135  H    0.018397
   136  H    0.008060
   137  H    0.023825
   138  H    0.039104
   139  H    0.036885
   140  H    0.035728
   141  H    0.033828
   142  H    0.013825
   143  H    0.011776
   144  H    0.025061
   145  H    0.012790
   146  H    0.005484
   147  H    0.005884
   148  H    0.003044
   149  H    0.010780
   150  H    0.017412
   151  H    0.030380
   152  H    0.045827
   153  H    0.007569
   154  H    0.047323
   155  H    0.041139
   156  H    0.044066
   157  H    0.048921
   158  H    0.052674
 Sum of Mulliken charges =  -0.00000

 Dipole moment (field-independent basis, Debye):
    X=             -4.8836    Y=             -1.8443    Z=             -6.9001  Tot=              8.6524
 Quadrupole moment (field-independent basis, Debye-Ang):
   XX=           -518.5126   YY=           -547.0364   ZZ=           -452.9275
   XY=             -1.8965   XZ=              0.8742   YZ=            -45.0936

 Normal termination of Gaussian 16 at Thu Aug 19 19:34:10 2021.
