 Gaussian 16, Revision A.03,
 Gaussian 16:  ES64L-G16RevA.03 25-Dec-2016

 -----------------------------------
 #p cam-b3lyp/Def2SVP td=(nstates=5)
 -----------------------------------

 --------------------------------
 TDDFT excited states in gaussian
 --------------------------------
 Symbolic Z-matrix:
 Charge =  0 Multiplicity = 1

                         Standard orientation:
 ---------------------------------------------------------------------
 Center     Atomic      Atomic             Coordinates (Angstroms)
 Number     Number       Type             X           Y           Z
 ---------------------------------------------------------------------
      1         12           0       -4.359727    0.472923   -0.843037
      2          6           0       -4.723420   -2.702909    0.767564
      3          6           0       -5.814196    1.868579    1.910093
      4          6           0       -4.464884    3.219338   -2.425051
      5          6           0       -4.001209   -1.257276   -3.846958
      6          7           0       -5.126713   -0.409405    1.036824
      7          6           0       -5.152314   -1.632883    1.556069
      8          6           0       -5.607475   -1.662391    3.045811
      9          6           0       -6.438858   -0.302431    3.081996
     10          6           0       -5.729416    0.445698    1.967133
     11          6           0       -7.905890   -0.474872    2.701757
     12          6           0       -4.397073   -1.620480    4.038233
     13          6           0       -4.730642   -1.972636    5.490841
     14          1           0       -3.748545   -2.703383    6.277506
     15          7           0       -4.580097    2.322702   -0.185311
     16          6           0       -5.183031    2.706589    0.965509
     17          6           0       -5.090860    4.182020    1.001420
     18          6           0       -4.554378    4.636501   -0.311488
     19          6           0       -4.536076    3.396968   -1.045383
     20          6           0       -5.442729    4.999338    2.206381
     21          6           0       -4.136031    5.977226   -0.826827
     22          8           0       -3.918691    6.191128   -2.068432
     23          6           0       -4.072253    7.069900    0.160614
     24          7           0       -4.469104    0.937851   -2.875158
     25          6           0       -4.441581    2.207476   -3.295016
     26          6           0       -4.246115    2.287359   -4.780058
     27          6           0       -3.900762    0.804358   -5.260884
     28          6           0       -4.046721    0.075746   -3.902175
     29          6           0       -5.440038    2.819655   -5.584557
     30          6           0       -2.589402    0.612792   -6.063415
     31          6           0       -1.397893    0.875933   -5.170015
     32          7           0       -4.180685   -1.605632   -1.441869
     33          6           0       -4.063265   -2.099300   -2.749224
     34          6           0       -4.081679   -3.570869   -2.658589
     35          6           0       -4.226139   -3.832627   -1.297538
     36          6           0       -4.320054   -2.602509   -0.586004
     37          6           0       -4.030346   -4.474153   -3.756714
     38          6           0       -4.347744   -4.865431   -0.281475
     39          8           0       -4.245498   -6.093035   -0.276229
     40          6           0       -4.796787   -4.176410    1.082137
     41          6           0       -3.908243   -4.707440    2.173836
     42          8           0       -2.690313   -4.436295    2.196039
     43          8           0       -4.666101   -5.247007    3.140821
     44          6           0       -3.847370   -5.766570    4.268601
     45          1           0       -6.468695    2.386961    2.613550
     46          1           0       -4.387298    4.144389   -3.000115
     47          1           0       -3.808972   -1.863849   -4.733844
     48          1           0       -6.253486   -2.500719    3.307152
     49          1           0       -6.317310    0.223780    4.028596
     50          1           0       -8.108515   -1.483906    2.342988
     51          1           0       -8.089509    0.253979    1.912104
     52          1           0       -8.556507   -0.190519    3.529174
     53          1           0       -4.073704   -0.587602    4.167293
     54          1           0       -3.588582   -2.263133    3.687997
     55          1           0       -5.711202   -2.442564    5.571952
     56          1           0       -4.827796   -1.044216    6.053688
     57          1           0       -5.962085    4.404061    2.956354
     58          1           0       -6.179100    5.736577    1.887093
     59          1           0       -4.573773    5.505874    2.626701
     60          1           0       -5.053313    7.199185    0.618169
     61          1           0       -3.669552    7.931801   -0.370243
     62          1           0       -3.394842    6.780274    0.964467
     63          1           0       -3.415821    2.946460   -5.030304
     64          1           0       -4.673355    0.395269   -5.912358
     65          1           0       -5.202704    3.690654   -6.195899
     66          1           0       -6.245991    3.040537   -4.885313
     67          1           0       -5.914217    2.087346   -6.237469
     68          1           0       -2.539150    1.327726   -6.883958
     69          1           0       -2.486207   -0.386220   -6.487181
     70          1           0       -1.298061    1.960015   -5.210398
     71          1           0       -0.508356    0.386839   -5.568414
     72          1           0       -1.609172    0.606493   -4.135003
     73          1           0       -3.338175   -5.265331   -3.468779
     74          1           0       -3.702263   -3.972680   -4.666928
     75          1           0       -5.072053   -4.790708   -3.806656
     76          1           0       -5.841588   -4.442830    1.238765
     77          1           0       -4.111215   -6.816028    4.399973
     78          1           0       -4.015566   -5.093470    5.109464
     79          1           0       -2.774501   -5.844992    4.089316
     80         12           0        4.488032    0.848310    0.780140
     81          6           0        4.799727   -1.983630   -1.402057
     82          6           0        3.256985   -1.290333    3.134998
     83          6           0        3.780985    3.376041    2.562862
     84          6           0        4.646916    2.872884   -2.052094
     85          7           0        4.123567   -1.333116    0.751696
     86          6           0        4.337916   -2.314885   -0.111156
     87          6           0        4.117050   -3.738609    0.466602
     88          6           0        3.109587   -3.360733    1.658692
     89          6           0        3.540987   -1.914653    1.894159
     90          6           0        1.649939   -3.360907    1.235886
     91          6           0        5.443092   -4.373570    1.014741
     92          6           0        5.364201   -5.873148    1.309357
     93          1           0        6.545702   -6.694480    1.060472
     94          7           0        4.110163    0.983954    2.723684
     95          6           0        3.635416    0.011577    3.530149
     96          6           0        3.512318    0.619612    4.864064
     97          6           0        3.796856    2.075414    4.744050
     98          6           0        3.888660    2.208209    3.303897
     99          6           0        3.233292   -0.182984    6.101558
    100          6           0        3.947137    3.169694    5.757045
    101          8           0        3.956958    4.405427    5.416918
    102          6           0        3.988584    2.756344    7.167332
    103          7           0        4.035586    2.822519    0.310951
    104          6           0        3.819647    3.730986    1.278405
    105          6           0        3.786782    5.131347    0.714215
    106          6           0        4.268404    4.994032   -0.804590
    107          6           0        4.417414    3.458869   -0.885006
    108          6           0        2.429823    5.833705    0.756021
    109          6           0        5.467849    5.877165   -1.245127
    110          6           0        6.726692    5.427313   -0.539208
    111          7           0        4.870391    0.550279   -1.325335
    112          6           0        4.863589    1.531573   -2.340775
    113          6           0        5.063580    0.830107   -3.625438
    114          6           0        5.150527   -0.523773   -3.267729
    115          6           0        4.994152   -0.658616   -1.861718
    116          6           0        5.094188    1.440879   -4.910793
    117          6           0        5.328421   -1.870511   -3.761028
    118          8           0        5.592746   -2.367001   -4.855263
    119          6           0        4.982832   -2.887585   -2.589482
    120          6           0        6.080863   -3.913662   -2.526186
    121          8           0        7.236372   -3.583897   -2.205802
    122          8           0        5.543419   -5.141817   -2.640944
    123          6           0        6.592054   -6.194215   -2.572859
    124          1           0        2.650369   -1.831819    3.861409
    125          1           0        3.647488    4.292006    3.143085
    126          1           0        4.806128    3.442650   -2.970080
    127          1           0        3.643329   -4.436364   -0.213467
    128          1           0        3.299588   -3.964053    2.542589
    129          1           0        1.539032   -3.500195    0.170794
    130          1           0        1.257092   -2.397794    1.534443
    131          1           0        1.091222   -4.105456    1.810178
    132          1           0        5.630666   -3.992839    2.026968
    133          1           0        6.262102   -4.178488    0.350058
    134          1           0        4.474594   -6.334546    0.863650
    135          1           0        5.226143   -6.008721    2.384800
    136          1           0        2.906968   -1.201039    5.855652
    137          1           0        2.363114    0.271168    6.587778
    138          1           0        4.070762   -0.181195    6.802498
    139          1           0        3.076799    2.216908    7.412500
    140          1           0        4.189421    3.668067    7.733302
    141          1           0        4.816850    2.051581    7.301150
    142          1           0        4.475334    5.778023    1.244124
    143          1           0        3.471836    5.269872   -1.511163
    144          1           0        2.453862    6.797747    1.298343
    145          1           0        1.711429    5.161779    1.206533
    146          1           0        1.982361    6.032113   -0.216406
    147          1           0        5.301342    6.916273   -0.950704
    148          1           0        5.639379    5.869507   -2.316356
    149          1           0        6.661580    5.934062    0.428292
    150          1           0        7.609368    5.743200   -1.091603
    151          1           0        6.706488    4.348098   -0.348092
    152          1           0        5.915777    0.989163   -5.450659
    153          1           0        5.212309    2.519842   -4.835567
    154          1           0        4.105077    1.161208   -5.283237
    155          1           0        4.015872   -3.336433   -2.819924
    156          1           0        6.495189   -6.800822   -3.478571
    157          1           0        6.438559   -6.706682   -1.604573
    158          1           0        7.625984   -5.876639   -2.640579
 ---------------------------------------------------------------------

 SCF Done:  E(RCAM-B3LYP) =  -4069.81305147     A.U. after   19 cycles

 Excitation energies and oscillator strengths:

 Excited State   1:      Singlet-A      1.6617 eV  746.11 nm  f=0.1901  <S**2>=0.000
     309 -> 315       -0.10374
     310 -> 316        0.13397
     311 -> 313       -0.41746
     312 -> 314        0.54528
 This state for optimization and/or second-order correction.
 Total Energy, E(TD-HF/TD-DFT) =  -4069.75198331
 Copying the excited state density for this state as the 1-particle RhoCI density.

 Excited State   2:      Singlet-A      1.6846 eV  735.98 nm  f=0.4894  <S**2>=0.000
     309 -> 315        0.14074
     310 -> 316        0.10541
     311 -> 313        0.54387
     312 -> 314        0.41640

 Excited State   3:      Singlet-A      2.1816 eV  568.32 nm  f=0.0775  <S**2>=0.000
     309 -> 313       -0.19729
     310 -> 314        0.61305
     312 -> 316       -0.25446

 Excited State   4:      Singlet-A      2.1946 eV  564.95 nm  f=0.1149  <S**2>=0.000
     309 -> 313        0.60942
     310 -> 314        0.19496
     311 -> 315       -0.26632

 Excited State   5:      Singlet-A      2.3266 eV  532.91 nm  f=0.0000  <S**2>=0.000
     312 -> 313        0.70707

 The electronic state is 1-A.
 Alpha  occ. eigenvalues --  -46.87937 -46.87396 -19.26673 -19.26063 -19.19456
 Alpha  occ. eigenvalues --  -19.18934 -19.18890 -19.18573 -19.18373 -19.17822
 Alpha  occ. eigenvalues --  -14.42600 -14.42178 -14.41580 -14.41106 -14.39540
 Alpha  occ. eigenvalues --  -14.39101 -14.38736 -14.38345 -10.39479 -10.38816
 Alpha  occ. eigenvalues --  -10.35564 -10.35256 -10.34601 -10.33992 -10.32097
 Alpha  occ. eigenvalues --  -10.31569 -10.31478 -10.31076 -10.30953 -10.30720
 Alpha  occ. eigenvalues --  -10.30701 -10.30648 -10.30312 -10.30171 -10.30098
 Alpha  occ. eigenvalues --  -10.30051 -10.29904 -10.29771 -10.29668 -10.29378
 Alpha  occ. eigenvalues --  -10.29191 -10.29181 -10.28967 -10.28856 -10.28522
 Alpha  occ. eigenvalues --  -10.28302 -10.28254 -10.28231 -10.28142 -10.27935
 Alpha  occ. eigenvalues --  -10.27868 -10.27762 -10.27719 -10.27572 -10.27572
 Alpha  occ. eigenvalues --  -10.27567 -10.27534 -10.27519 -10.27405 -10.27338
 Alpha  occ. eigenvalues --  -10.27319 -10.27290 -10.27255 -10.27201 -10.27200
 Alpha  occ. eigenvalues --  -10.26995 -10.26772 -10.26494 -10.26396 -10.26330
 Alpha  occ. eigenvalues --  -10.26293 -10.26202 -10.26136 -10.25968 -10.25951
 Alpha  occ. eigenvalues --  -10.25690 -10.25681 -10.25510 -10.25261 -10.24988
 Alpha  occ. eigenvalues --  -10.24972 -10.24924 -10.24694 -10.24634 -10.24575
 Alpha  occ. eigenvalues --  -10.24457  -3.16680  -3.16147  -1.91561  -1.91148
 Alpha  occ. eigenvalues --   -1.91029  -1.90990  -1.90617  -1.90455  -1.17024
 Alpha  occ. eigenvalues --   -1.16361  -1.08848  -1.08428  -1.07335  -1.07050
 Alpha  occ. eigenvalues --   -1.06832  -1.06675  -1.04737  -1.04181  -1.03896
 Alpha  occ. eigenvalues --   -1.03393  -1.03373  -1.02794  -1.02551  -1.01855
 Alpha  occ. eigenvalues --   -0.92154  -0.91710  -0.89626  -0.89385  -0.89270
 Alpha  occ. eigenvalues --   -0.88639  -0.88388  -0.88009  -0.88008  -0.87827
 Alpha  occ. eigenvalues --   -0.87566  -0.87392  -0.87377  -0.86932  -0.85175
 Alpha  occ. eigenvalues --   -0.84600  -0.84042  -0.83680  -0.83070  -0.82833
 Alpha  occ. eigenvalues --   -0.82775  -0.82293  -0.81829  -0.81318  -0.80781
 Alpha  occ. eigenvalues --   -0.80175  -0.78923  -0.78415  -0.77365  -0.77136
 Alpha  occ. eigenvalues --   -0.76864  -0.76535  -0.76121  -0.75411  -0.75021
 Alpha  occ. eigenvalues --   -0.74565  -0.72911  -0.72434  -0.71826  -0.71245
 Alpha  occ. eigenvalues --   -0.69978  -0.69550  -0.69054  -0.68456  -0.67803
 Alpha  occ. eigenvalues --   -0.67419  -0.67361  -0.66880  -0.65487  -0.65041
 Alpha  occ. eigenvalues --   -0.64901  -0.64795  -0.64495  -0.64382  -0.64335
 Alpha  occ. eigenvalues --   -0.63971  -0.62557  -0.62013  -0.60560  -0.60140
 Alpha  occ. eigenvalues --   -0.59983  -0.59386  -0.59144  -0.58724  -0.58670
 Alpha  occ. eigenvalues --   -0.58166  -0.57840  -0.57450  -0.57289  -0.57018
 Alpha  occ. eigenvalues --   -0.56481  -0.56254  -0.55952  -0.55674  -0.55601
 Alpha  occ. eigenvalues --   -0.55507  -0.55206  -0.55022  -0.54725  -0.54252
 Alpha  occ. eigenvalues --   -0.54101  -0.53442  -0.53436  -0.53404  -0.53139
 Alpha  occ. eigenvalues --   -0.52997  -0.52896  -0.52861  -0.52626  -0.52505
 Alpha  occ. eigenvalues --   -0.52344  -0.52208  -0.52056  -0.51811  -0.51684
 Alpha  occ. eigenvalues --   -0.51367  -0.51310  -0.50929  -0.50668  -0.50300
 Alpha  occ. eigenvalues --   -0.50135  -0.50045  -0.49731  -0.49691  -0.49612
 Alpha  occ. eigenvalues --   -0.49394  -0.49284  -0.49164  -0.48919  -0.48806
 Alpha  occ. eigenvalues --   -0.48640  -0.48622  -0.48569  -0.48220  -0.48180
 Alpha  occ. eigenvalues --   -0.48100  -0.47853  -0.47441  -0.47291  -0.46941
 Alpha  occ. eigenvalues --   -0.46885  -0.46759  -0.46513  -0.46424  -0.46317
 Alpha  occ. eigenvalues --   -0.46127  -0.46031  -0.46025  -0.45856  -0.45528
 Alpha  occ. eigenvalues --   -0.45313  -0.44991  -0.44774  -0.44651  -0.44308
 Alpha  occ. eigenvalues --   -0.44267  -0.44242  -0.44183  -0.44158  -0.43872
 Alpha  occ. eigenvalues --   -0.43725  -0.43712  -0.43645  -0.43546  -0.43274
 Alpha  occ. eigenvalues --   -0.43188  -0.43042  -0.43010  -0.42755  -0.42659
 Alpha  occ. eigenvalues --   -0.42616  -0.42344  -0.42148  -0.41873  -0.41720
 Alpha  occ. eigenvalues --   -0.41704  -0.41389  -0.41298  -0.41105  -0.41039
 Alpha  occ. eigenvalues --   -0.40965  -0.40679  -0.40636  -0.40507  -0.40467
 Alpha  occ. eigenvalues --   -0.40364  -0.40129  -0.39837  -0.39505  -0.39226
 Alpha  occ. eigenvalues --   -0.38586  -0.38102  -0.37983  -0.37458  -0.37439
 Alpha  occ. eigenvalues --   -0.37307  -0.37033  -0.37001  -0.36837  -0.36509
 Alpha  occ. eigenvalues --   -0.36382  -0.35944  -0.34439  -0.34148  -0.33979
 Alpha  occ. eigenvalues --   -0.33595  -0.33343  -0.32915  -0.31466  -0.31190
 Alpha  occ. eigenvalues --   -0.31129  -0.30694  -0.30239  -0.29722  -0.29586
 Alpha  occ. eigenvalues --   -0.29471  -0.29114  -0.28980  -0.24230  -0.23767
 Alpha  occ. eigenvalues --   -0.21267  -0.20848
 Alpha virt. eigenvalues --   -0.08916  -0.08548  -0.01885  -0.01432  -0.00201
 Alpha virt. eigenvalues --    0.00210   0.02033   0.02425   0.02836   0.03525
 Alpha virt. eigenvalues --    0.04536   0.04735   0.05087   0.05440   0.05910

 Mulliken charges:
               1
     1  Mg   0.838944
     2  C   -0.004190
     3  C   -0.094048
     4  C   -0.045653
     5  C   -0.063243
     6  N   -0.256835
     7  C   -0.052769
     8  C   -0.014068
     9  C   -0.087044
    10  C    0.046252
    11  C    0.104702
    12  C    0.053602
    13  C   -0.071202
    14  H    0.033119
    15  N   -0.433244
    16  C    0.168777
    17  C   -0.176576
    18  C   -0.003593
    19  C    0.148867
    20  C    0.109934
    21  C    0.012203
    22  O   -0.249684
    23  C    0.062186
    24  N   -0.341152
    25  C    0.041606
    26  C   -0.028273
    27  C   -0.024059
    28  C    0.074755
    29  C    0.076084
    30  C    0.034941
    31  C   -0.004859
    32  N   -0.310272
    33  C    0.079998
    34  C   -0.169746
    35  C    0.007800
    36  C    0.082474
    37  C    0.127422
    38  C    0.045066
    39  O   -0.189242
    40  C   -0.005163
    41  C    0.213976
    42  O   -0.260792
    43  O   -0.303611
    44  C    0.158337
    45  H   -0.017324
    46  H   -0.016564
    47  H   -0.040563
    48  H    0.000849
    49  H   -0.003982
    50  H    0.025523
    51  H    0.016931
    52  H    0.016957
    53  H    0.011700
    54  H    0.041654
    55  H    0.018763
    56  H    0.018701
    57  H    0.005916
    58  H    0.027116
    59  H    0.040849
    60  H    0.037654
    61  H    0.035640
    62  H    0.032466
    63  H    0.016601
    64  H    0.009809
    65  H    0.023441
    66  H    0.012462
    67  H    0.005177
    68  H    0.006670
    69  H    0.005856
    70  H    0.007850
    71  H    0.020170
    72  H    0.028723
    73  H    0.047105
    74  H    0.010309
    75  H    0.046200
    76  H    0.035718
    77  H    0.043833
    78  H    0.046809
    79  H    0.050530
    80  Mg   0.837237
    81  C   -0.016979
    82  C   -0.087346
    83  C   -0.046772
    84  C   -0.065295
    85  N   -0.255209
    86  C   -0.048320
    87  C   -0.015359
    88  C   -0.090602
    89  C    0.046106
    90  C    0.114649
    91  C    0.062349
    92  C   -0.077478
    93  H    0.032694
    94  N   -0.423499
    95  C    0.162953
    96  C   -0.174786
    97  C   -0.008959
    98  C    0.152496
    99  C    0.099719
   100  C    0.014741
   101  O   -0.254397
   102  C    0.061490
   103  N   -0.350282
   104  C    0.037694
   105  C   -0.019736
   106  C   -0.034916
   107  C    0.088960
   108  C    0.073408
   109  C    0.034911
   110  C   -0.007519
   111  N   -0.324043
   112  C    0.078469
   113  C   -0.163826
   114  C    0.001970
   115  C    0.096172
   116  C    0.131640
   117  C    0.041581
   118  O   -0.188924
   119  C    0.001376
   120  C    0.211195
   121  O   -0.251593
   122  O   -0.304964
   123  C    0.152348
   124  H   -0.017265
   125  H   -0.017071
   126  H   -0.041125
   127  H    0.001175
   128  H   -0.005622
   129  H    0.022668
   130  H    0.013997
   131  H    0.029706
   132  H    0.012843
   133  H    0.036374
   134  H    0.023115
   135  H    0.019235
   136  H    0.009589
   137  H    0.024451
   138  H    0.039000
   139  H    0.037312
   140  H    0.035351
   141  H    0.034086
   142  H    0.013683
   143  H    0.013146
   144  H    0.023424
   145  H    0.010238
   146  H    0.007652
   147  H    0.005709
   148  H    0.003503
   149  H    0.010443
   150  H    0.017423
   151  H    0.030425
   152  H    0.045485
   153  H    0.008249
   154  H    0.045610
   155  H    0.036147
   156  H    0.043387
   157  H    0.050222
   158  H    0.052806
 Sum of Mulliken charges =  -0.00000

 Dipole moment (field-independent basis, Debye):
    X=             -5.5611    Y=              1.5361    Z=              5.4960  Tot=              7.9681
 Quadrupole moment (field-independent basis, Debye-Ang):
   XX=           -518.3138   YY=           -520.9780   ZZ=           -479.9682
   XY=            -12.3017   XZ=             -0.4596   YZ=            -22.4581

 Normal termination of Gaussian 16 at Thu Aug 19 22:50:44 2021.
