 Gaussian 16, Revision A.03,
 Gaussian 16:  ES64L-G16RevA.03 25-Dec-2016

 -----------------------------------
 #p cam-b3lyp/Def2SVP td=(nstates=5)
 -----------------------------------

 --------------------------------
 TDDFT excited states in gaussian
 --------------------------------
 Symbolic Z-matrix:
 Charge =  0 Multiplicity = 1

                         Standard orientation:
 ---------------------------------------------------------------------
 Center     Atomic      Atomic             Coordinates (Angstroms)
 Number     Number       Type             X           Y           Z
 ---------------------------------------------------------------------
      1         12           0        4.155504   -1.527890    0.156986
      2          6           0        5.331709    1.386509   -1.556208
      3          6           0        5.654508   -0.299778    2.965507
      4          6           0        3.522130   -4.293833    1.572973
      5          6           0        3.754870   -3.021528   -2.966186
      6          7           0        5.314499    0.320635    0.531595
      7          6           0        5.643217    1.384382   -0.194737
      8          6           0        6.283533    2.530969    0.643539
      9          6           0        6.833425    1.670665    1.868077
     10          6           0        5.854938    0.510927    1.808953
     11          6           0        8.244632    1.134224    1.650753
     12          6           0        5.226063    3.585761    1.113542
     13          6           0        5.805819    4.896760    1.652540
     14          1           0        5.093508    6.138009    1.389359
     15          7           0        4.096362   -2.001898    2.073928
     16          6           0        4.756682   -1.382928    3.081966
     17          6           0        4.385953   -2.106741    4.317011
     18          6           0        3.607032   -3.312839    3.921153
     19          6           0        3.734716   -3.264545    2.487018
     20          6           0        4.725137   -1.616628    5.691236
     21          6           0        2.874139   -4.350930    4.710688
     22          8           0        2.461381   -5.440329    4.183987
     23          6           0        2.727730   -4.095690    6.155146
     24          7           0        3.910050   -3.470391   -0.566947
     25          6           0        3.583333   -4.475960    0.252242
     26          6           0        3.186440   -5.700526   -0.517728
     27          6           0        3.075791   -5.246157   -2.044508
     28          6           0        3.533884   -3.775259   -1.886777
     29          6           0        4.140899   -6.897729   -0.409450
     30          6           0        1.734100   -5.527445   -2.766423
     31          6           0        0.639409   -4.674255   -2.165744
     32          7           0        4.306731   -0.894273   -1.913450
     33          6           0        4.119701   -1.688466   -3.054042
     34          6           0        4.434251   -0.846587   -4.222959
     35          6           0        4.800783    0.381938   -3.676856
     36          6           0        4.745581    0.303993   -2.255882
     37          6           0        4.417772   -1.267744   -5.581925
     38          6           0        5.249953    1.734910   -3.962459
     39          8           0        5.388908    2.404316   -4.987193
     40          6           0        5.728929    2.402309   -2.598279
     41          6           0        5.108229    3.770437   -2.519124
     42          8           0        3.874054    3.906755   -2.394243
     43          8           0        6.074366    4.688624   -2.364029
     44          6           0        5.523992    6.065585   -2.249050
     45          1           0        6.281302   -0.131153    3.843366
     46          1           0        3.193453   -5.236131    2.016237
     47          1           0        3.571108   -3.393898   -3.975653
     48          1           0        7.107836    3.047768    0.151739
     49          1           0        6.735262    2.201386    2.814872
     50          1           0        8.590875    1.323860    0.634843
     51          1           0        8.180343    0.062019    1.837126
     52          1           0        8.928938    1.528512    2.402444
     53          1           0        4.728176    3.220016    2.011540
     54          1           0        4.519072    3.806377    0.313031
     55          1           0        6.860938    5.000477    1.397831
     56          1           0        5.793035    4.853613    2.741656
     57          1           0        5.442143   -0.797250    5.658577
     58          1           0        5.257415   -2.423441    6.194665
     59          1           0        3.836072   -1.349919    6.262868
     60          1           0        3.715796   -3.995673    6.604892
     61          1           0        2.100777   -4.899020    6.540427
     62          1           0        2.228542   -3.136476    6.295392
     63          1           0        2.219043   -6.074911   -0.185454
     64          1           0        3.822486   -5.733941   -2.671554
     65          1           0        3.662648   -7.807502   -0.045728
     66          1           0        4.972060   -6.609036    0.233293
     67          1           0        4.659768   -7.153610   -1.332877
     68          1           0        1.441071   -6.567885   -2.630166
     69          1           0        1.772597   -5.331345   -3.838017
     70          1           0        0.327182   -5.254276   -1.298033
     71          1           0       -0.182349   -4.556506   -2.872894
     72          1           0        1.030410   -3.724801   -1.799492
     73          1           0        3.934888   -0.467958   -6.143292
     74          1           0        3.884315   -2.210939   -5.697729
     75          1           0        5.485778   -1.365507   -5.775994
     76          1           0        6.816847    2.447936   -2.636667
     77          1           0        6.000751    6.667461   -3.022794
     78          1           0        5.665561    6.370282   -1.211975
     79          1           0        4.472635    6.187961   -2.511751
     80         12           0       -4.315522    1.497266    0.542479
     81          6           0       -5.280514   -1.627148   -0.935986
     82          6           0       -3.190916    2.436551   -2.537718
     83          6           0       -3.049728    4.071151    1.899068
     84          6           0       -4.453020   -0.086710    3.643744
     85          7           0       -4.294538    0.452533   -1.406972
     86          6           0       -4.744490   -0.707409   -1.861295
     87          6           0       -4.686113   -0.859867   -3.404972
     88          6           0       -3.515330    0.197001   -3.706880
     89          6           0       -3.693459    1.111462   -2.496622
     90          6           0       -2.124329   -0.411782   -3.644906
     91          6           0       -6.030222   -0.441691   -4.098156
     92          6           0       -6.152158   -0.854737   -5.566580
     93          1           0       -7.464833   -1.245862   -6.072911
     94          7           0       -3.723258    3.212597   -0.260915
     95          6           0       -3.322653    3.420009   -1.532834
     96          6           0       -2.971156    4.846058   -1.616454
     97          6           0       -3.040070    5.427173   -0.248150
     98          6           0       -3.258216    4.228568    0.536606
     99          6           0       -2.692502    5.540478   -2.917824
    100          6           0       -2.915778    6.828059    0.269805
    101          8           0       -2.771093    7.073556    1.519460
    102          6           0       -2.874653    7.898201   -0.737461
    103          7           0       -3.616630    1.879545    2.462832
    104          6           0       -3.165581    3.099321    2.804308
    105          6           0       -2.976764    3.212574    4.298266
    106          6           0       -3.627523    1.888350    4.915152
    107          6           0       -4.017509    1.165155    3.607378
    108          6           0       -1.531197    3.340125    4.778327
    109          6           0       -4.716376    2.081625    6.005895
    110          6           0       -5.949840    2.709859    5.398219
    111          7           0       -4.953757   -0.431871    1.276735
    112          6           0       -4.901243   -0.897546    2.608831
    113          6           0       -5.337556   -2.308864    2.594184
    114          6           0       -5.593651   -2.575281    1.240695
    115          6           0       -5.315875   -1.418130    0.463941
    116          6           0       -5.406384   -3.170091    3.725412
    117          6           0       -6.025650   -3.575473    0.291128
    118          8           0       -6.474177   -4.717958    0.376454
    119          6           0       -5.721239   -3.044498   -1.175772
    120          6           0       -6.951123   -3.263560   -2.013577
    121          8           0       -8.003250   -2.649085   -1.764502
    122          8           0       -6.622932   -3.992518   -3.095846
    123          6           0       -7.807806   -4.226902   -3.963579
    124          1           0       -2.602908    2.741801   -3.403721
    125          1           0       -2.718426    4.965524    2.431797
    126          1           0       -4.616699   -0.620818    4.582152
    127          1           0       -4.397469   -1.844191   -3.753629
    128          1           0       -3.703506    0.742516   -4.627942
    129          1           0       -2.146332   -1.431682   -3.290696
    130          1           0       -1.559901    0.212789   -2.964921
    131          1           0       -1.630175   -0.322601   -4.616598
    132          1           0       -6.052011    0.650218   -4.207682
    133          1           0       -6.873687   -0.810772   -3.547727
    134          1           0       -5.394428   -1.595013   -5.850827
    135          1           0       -5.926523    0.013098   -6.191058
    136          1           0       -2.553115    4.822275   -3.735221
    137          1           0       -1.717634    6.029667   -2.816886
    138          1           0       -3.443137    6.295324   -3.161628
    139          1           0       -2.035965    7.730134   -1.408883
    140          1           0       -2.874052    8.832009   -0.171871
    141          1           0       -3.782912    7.839473   -1.347577
    142          1           0       -3.499832    4.076408    4.689791
    143          1           0       -2.875127    1.257432    5.410811
    144          1           0       -1.351264    4.247600    5.385099
    145          1           0       -0.881735    3.326234    3.913147
    146          1           0       -1.161143    2.496565    5.358548
    147          1           0       -4.363183    2.772525    6.775361
    148          1           0       -4.996432    1.159830    6.504759
    149          1           0       -5.708579    3.777045    5.397881
    150          1           0       -6.825812    2.503429    6.009860
    151          1           0       -6.075687    2.400029    4.354274
    152          1           0       -6.338642   -3.713421    3.646804
    153          1           0       -5.349385   -2.609351    4.656055
    154          1           0       -4.515481   -3.781652    3.559438
    155          1           0       -4.863411   -3.601603   -1.554375
    156          1           0       -7.898816   -5.309616   -4.094426
    157          1           0       -7.635790   -3.622210   -4.873808
    158          1           0       -8.782267   -3.980156   -3.558619
 ---------------------------------------------------------------------

 SCF Done:  E(RCAM-B3LYP) =  -4069.81229436     A.U. after   19 cycles

 Excitation energies and oscillator strengths:

 Excited State   1:      Singlet-A      1.6574 eV  748.06 nm  f=0.1390  <S**2>=0.000
     309 -> 315        0.11503
     310 -> 316        0.12353
     311 -> 313        0.46510
     312 -> 314        0.50542
 This state for optimization and/or second-order correction.
 Total Energy, E(TD-HF/TD-DFT) =  -4069.75138576
 Copying the excited state density for this state as the 1-particle RhoCI density.

 Excited State   2:      Singlet-A      1.6930 eV  732.34 nm  f=0.5394  <S**2>=0.000
     309 -> 315        0.13150
     310 -> 316       -0.12051
     311 -> 313        0.50378
     312 -> 314       -0.46381

 Excited State   3:      Singlet-A      2.1857 eV  567.26 nm  f=0.0542  <S**2>=0.000
     309 -> 313        0.29253
     310 -> 314        0.57292
     311 -> 315       -0.12248
     312 -> 316       -0.24182

 Excited State   4:      Singlet-A      2.1937 eV  565.18 nm  f=0.1354  <S**2>=0.000
     309 -> 313        0.57042
     310 -> 314       -0.28992
     311 -> 315       -0.24862
     312 -> 316        0.12689

 Excited State   5:      Singlet-A      2.3397 eV  529.93 nm  f=0.0000  <S**2>=0.000
     312 -> 313        0.70708

 The electronic state is 1-A.
 Alpha  occ. eigenvalues --  -46.87915 -46.87435 -19.26469 -19.26210 -19.19223
 Alpha  occ. eigenvalues --  -19.19005 -19.18910 -19.18501 -19.18343 -19.17839
 Alpha  occ. eigenvalues --  -14.42564 -14.42261 -14.41564 -14.41150 -14.39520
 Alpha  occ. eigenvalues --  -14.39115 -14.38722 -14.38376 -10.39274 -10.38932
 Alpha  occ. eigenvalues --  -10.35542 -10.35177 -10.34562 -10.34021 -10.31862
 Alpha  occ. eigenvalues --  -10.31640 -10.31534 -10.31060 -10.31015 -10.30773
 Alpha  occ. eigenvalues --  -10.30709 -10.30636 -10.30310 -10.30188 -10.30119
 Alpha  occ. eigenvalues --  -10.30041 -10.29929 -10.29766 -10.29718 -10.29373
 Alpha  occ. eigenvalues --  -10.29187 -10.29170 -10.28838 -10.28572 -10.28492
 Alpha  occ. eigenvalues --  -10.28485 -10.28475 -10.28212 -10.28162 -10.27932
 Alpha  occ. eigenvalues --  -10.27862 -10.27844 -10.27755 -10.27712 -10.27595
 Alpha  occ. eigenvalues --  -10.27595 -10.27528 -10.27526 -10.27414 -10.27388
 Alpha  occ. eigenvalues --  -10.27316 -10.27283 -10.27261 -10.27220 -10.27073
 Alpha  occ. eigenvalues --  -10.26859 -10.26767 -10.26502 -10.26487 -10.26325
 Alpha  occ. eigenvalues --  -10.26285 -10.26190 -10.26145 -10.26063 -10.26047
 Alpha  occ. eigenvalues --  -10.25726 -10.25679 -10.25637 -10.25491 -10.25379
 Alpha  occ. eigenvalues --  -10.24980 -10.24899 -10.24813 -10.24646 -10.24634
 Alpha  occ. eigenvalues --  -10.24484  -3.16658  -3.16185  -1.91540  -1.91126
 Alpha  occ. eigenvalues --   -1.91067  -1.90969  -1.90656  -1.90492  -1.16820
 Alpha  occ. eigenvalues --   -1.16499  -1.08808  -1.08455  -1.07307  -1.06842
 Alpha  occ. eigenvalues --   -1.06789  -1.06756  -1.04698  -1.04256  -1.03875
 Alpha  occ. eigenvalues --   -1.03439  -1.03360  -1.02823  -1.02535  -1.01889
 Alpha  occ. eigenvalues --   -0.92109  -0.91767  -0.89634  -0.89325  -0.89282
 Alpha  occ. eigenvalues --   -0.88900  -0.88389  -0.88078  -0.88028  -0.87783
 Alpha  occ. eigenvalues --   -0.87567  -0.87448  -0.87391  -0.86849  -0.85080
 Alpha  occ. eigenvalues --   -0.84769  -0.84046  -0.83753  -0.83072  -0.82757
 Alpha  occ. eigenvalues --   -0.82714  -0.82424  -0.81733  -0.81411  -0.80726
 Alpha  occ. eigenvalues --   -0.80235  -0.78925  -0.78377  -0.77333  -0.77046
 Alpha  occ. eigenvalues --   -0.76925  -0.76710  -0.76048  -0.75604  -0.75002
 Alpha  occ. eigenvalues --   -0.74658  -0.72904  -0.72473  -0.71785  -0.71375
 Alpha  occ. eigenvalues --   -0.70013  -0.69635  -0.68979  -0.68599  -0.67765
 Alpha  occ. eigenvalues --   -0.67390  -0.67308  -0.66979  -0.65395  -0.65050
 Alpha  occ. eigenvalues --   -0.64986  -0.64738  -0.64564  -0.64454  -0.64380
 Alpha  occ. eigenvalues --   -0.64041  -0.62452  -0.62106  -0.60554  -0.60113
 Alpha  occ. eigenvalues --   -0.59912  -0.59553  -0.59110  -0.58785  -0.58633
 Alpha  occ. eigenvalues --   -0.58221  -0.57746  -0.57431  -0.57362  -0.57049
 Alpha  occ. eigenvalues --   -0.56447  -0.56126  -0.55972  -0.55700  -0.55641
 Alpha  occ. eigenvalues --   -0.55467  -0.55233  -0.55103  -0.54663  -0.54348
 Alpha  occ. eigenvalues --   -0.53991  -0.53672  -0.53423  -0.53337  -0.53054
 Alpha  occ. eigenvalues --   -0.53024  -0.52924  -0.52860  -0.52694  -0.52552
 Alpha  occ. eigenvalues --   -0.52405  -0.52280  -0.52093  -0.51723  -0.51667
 Alpha  occ. eigenvalues --   -0.51424  -0.51329  -0.51003  -0.50679  -0.50219
 Alpha  occ. eigenvalues --   -0.50134  -0.50024  -0.49764  -0.49671  -0.49625
 Alpha  occ. eigenvalues --   -0.49353  -0.49256  -0.49209  -0.48962  -0.48876
 Alpha  occ. eigenvalues --   -0.48730  -0.48578  -0.48556  -0.48345  -0.48230
 Alpha  occ. eigenvalues --   -0.48109  -0.47808  -0.47413  -0.47371  -0.46916
 Alpha  occ. eigenvalues --   -0.46889  -0.46655  -0.46506  -0.46489  -0.46325
 Alpha  occ. eigenvalues --   -0.46296  -0.46049  -0.45977  -0.45911  -0.45634
 Alpha  occ. eigenvalues --   -0.45303  -0.45067  -0.44728  -0.44608  -0.44320
 Alpha  occ. eigenvalues --   -0.44268  -0.44246  -0.44197  -0.44142  -0.43917
 Alpha  occ. eigenvalues --   -0.43881  -0.43707  -0.43649  -0.43486  -0.43382
 Alpha  occ. eigenvalues --   -0.43178  -0.43152  -0.42863  -0.42772  -0.42761
 Alpha  occ. eigenvalues --   -0.42709  -0.42381  -0.42127  -0.41832  -0.41797
 Alpha  occ. eigenvalues --   -0.41628  -0.41465  -0.41252  -0.41249  -0.40965
 Alpha  occ. eigenvalues --   -0.40913  -0.40774  -0.40674  -0.40516  -0.40488
 Alpha  occ. eigenvalues --   -0.40327  -0.40304  -0.40018  -0.39543  -0.39308
 Alpha  occ. eigenvalues --   -0.38561  -0.38206  -0.37834  -0.37445  -0.37426
 Alpha  occ. eigenvalues --   -0.37368  -0.37087  -0.36965  -0.36876  -0.36623
 Alpha  occ. eigenvalues --   -0.36323  -0.36048  -0.34412  -0.34036  -0.33962
 Alpha  occ. eigenvalues --   -0.33692  -0.33317  -0.32950  -0.31438  -0.31155
 Alpha  occ. eigenvalues --   -0.31064  -0.30753  -0.30204  -0.29750  -0.29578
 Alpha  occ. eigenvalues --   -0.29465  -0.29078  -0.28975  -0.24203  -0.23809
 Alpha  occ. eigenvalues --   -0.21252  -0.20885
 Alpha virt. eigenvalues --   -0.08901  -0.08552  -0.01864  -0.01467  -0.00174
 Alpha virt. eigenvalues --    0.00217   0.02050   0.02407   0.02836   0.03491
 Alpha virt. eigenvalues --    0.04617   0.04913   0.04963   0.05331   0.06105

 Mulliken charges:
               1
     1  Mg   0.838968
     2  C   -0.003054
     3  C   -0.094028
     4  C   -0.045444
     5  C   -0.064388
     6  N   -0.256933
     7  C   -0.052227
     8  C   -0.014183
     9  C   -0.087077
    10  C    0.046730
    11  C    0.104738
    12  C    0.053433
    13  C   -0.072363
    14  H    0.037438
    15  N   -0.433264
    16  C    0.168824
    17  C   -0.177057
    18  C   -0.003646
    19  C    0.149135
    20  C    0.110155
    21  C    0.012574
    22  O   -0.248494
    23  C    0.062445
    24  N   -0.341200
    25  C    0.041427
    26  C   -0.028584
    27  C   -0.023958
    28  C    0.074817
    29  C    0.075948
    30  C    0.035024
    31  C   -0.005954
    32  N   -0.310098
    33  C    0.079787
    34  C   -0.171367
    35  C    0.007736
    36  C    0.082321
    37  C    0.127715
    38  C    0.044885
    39  O   -0.189652
    40  C   -0.004896
    41  C    0.212781
    42  O   -0.258566
    43  O   -0.304342
    44  C    0.158216
    45  H   -0.017236
    46  H   -0.016011
    47  H   -0.042033
    48  H    0.000837
    49  H   -0.003621
    50  H    0.025474
    51  H    0.016477
    52  H    0.017011
    53  H    0.011703
    54  H    0.043963
    55  H    0.017564
    56  H    0.018424
    57  H    0.006203
    58  H    0.027318
    59  H    0.039319
    60  H    0.037540
    61  H    0.036285
    62  H    0.030762
    63  H    0.017747
    64  H    0.009601
    65  H    0.024166
    66  H    0.012510
    67  H    0.004858
    68  H    0.007873
    69  H    0.003703
    70  H    0.011635
    71  H    0.016735
    72  H    0.028501
    73  H    0.045535
    74  H    0.008671
    75  H    0.046509
    76  H    0.035482
    77  H    0.042825
    78  H    0.047504
    79  H    0.052009
    80  Mg   0.837577
    81  C   -0.016649
    82  C   -0.085928
    83  C   -0.045281
    84  C   -0.065311
    85  N   -0.254523
    86  C   -0.050102
    87  C   -0.014888
    88  C   -0.090643
    89  C    0.044657
    90  C    0.112977
    91  C    0.062596
    92  C   -0.077533
    93  H    0.034002
    94  N   -0.424027
    95  C    0.162333
    96  C   -0.170464
    97  C   -0.007907
    98  C    0.153208
    99  C    0.098164
   100  C    0.015946
   101  O   -0.254501
   102  C    0.060958
   103  N   -0.350020
   104  C    0.037524
   105  C   -0.019628
   106  C   -0.034398
   107  C    0.088555
   108  C    0.074251
   109  C    0.035002
   110  C   -0.007517
   111  N   -0.323959
   112  C    0.077881
   113  C   -0.163324
   114  C    0.002192
   115  C    0.095765
   116  C    0.131325
   117  C    0.042188
   118  O   -0.188834
   119  C    0.000904
   120  C    0.211251
   121  O   -0.251113
   122  O   -0.305907
   123  C    0.152141
   124  H   -0.014865
   125  H   -0.016531
   126  H   -0.041562
   127  H   -0.001953
   128  H   -0.003938
   129  H    0.020885
   130  H    0.018667
   131  H    0.017602
   132  H    0.014043
   133  H    0.037220
   134  H    0.020193
   135  H    0.020027
   136  H    0.010827
   137  H    0.030665
   138  H    0.038480
   139  H    0.039715
   140  H    0.035112
   141  H    0.033673
   142  H    0.013958
   143  H    0.010660
   144  H    0.023853
   145  H    0.012400
   146  H    0.003145
   147  H    0.005009
   148  H    0.003213
   149  H    0.010613
   150  H    0.017512
   151  H    0.030863
   152  H    0.045303
   153  H    0.007462
   154  H    0.047999
   155  H    0.034419
   156  H    0.043273
   157  H    0.049493
   158  H    0.053455
 Sum of Mulliken charges =  -0.00000

 Dipole moment (field-independent basis, Debye):
    X=              5.1578    Y=              1.8345    Z=              1.0266  Tot=              5.5697
 Quadrupole moment (field-independent basis, Debye-Ang):
   XX=           -524.2234   YY=           -526.5802   ZZ=           -469.1679
   XY=            -14.5232   XZ=             42.1523   YZ=             19.1817

 Normal termination of Gaussian 16 at Thu Aug 19 17:38:47 2021.
