 Gaussian 16, Revision A.03,
 Gaussian 16:  ES64L-G16RevA.03 25-Dec-2016

 -----------------------------------
 #p cam-b3lyp/Def2SVP td=(nstates=5)
 -----------------------------------

 --------------------------------
 TDDFT excited states in gaussian
 --------------------------------
 Symbolic Z-matrix:
 Charge =  0 Multiplicity = 1

                         Standard orientation:
 ---------------------------------------------------------------------
 Center     Atomic      Atomic             Coordinates (Angstroms)
 Number     Number       Type             X           Y           Z
 ---------------------------------------------------------------------
      1         12           0       -4.101356   -1.624418    0.274747
      2          6           0       -5.611512    1.557656   -0.362473
      3          6           0       -4.794871   -2.435750   -2.966216
      4          6           0       -3.188744   -4.588724    0.935544
      5          6           0       -4.556123   -0.994510    3.672109
      6          7           0       -5.080612   -0.496610   -1.359190
      7          6           0       -5.560756    0.736002   -1.490726
      8          6           0       -5.935771    1.099589   -2.958562
      9          6           0       -6.170724   -0.370264   -3.529811
     10          6           0       -5.268170   -1.144910   -2.585754
     11          6           0       -7.602349   -0.868340   -3.359886
     12          6           0       -4.768367    1.825678   -3.708023
     13          6           0       -5.158341    2.501544   -5.025778
     14          1           0       -4.509289    3.751775   -5.390475
     15          7           0       -3.560219   -3.096270   -0.926781
     16          6           0       -3.923072   -3.259534   -2.221759
     17          6           0       -3.262991   -4.502215   -2.676424
     18          6           0       -2.641236   -5.148458   -1.487356
     19          6           0       -3.133843   -4.306415   -0.427319
     20          6           0       -3.224133   -4.936364   -4.109517
     21          6           0       -1.753821   -6.342575   -1.330160
     22          8           0       -1.516761   -6.868334   -0.189128
     23          6           0       -1.233350   -6.942305   -2.572125
     24          7           0       -4.096813   -2.750320    2.032575
     25          6           0       -3.593254   -3.989192    2.057230
     26          6           0       -3.437517   -4.487399    3.463457
     27          6           0       -3.714358   -3.231893    4.410460
     28          6           0       -4.081563   -2.192381    3.322873
     29          6           0       -4.359409   -5.645678    3.869064
     30          6           0       -2.611632   -2.868052    5.436148
     31          6           0       -1.379252   -2.374921    4.711470
     32          7           0       -4.767333    0.052131    1.481687
     33          6           0       -4.899920    0.086261    2.877369
     34          6           0       -5.485896    1.394199    3.223780
     35          6           0       -5.670041    2.027652    1.996314
     36          6           0       -5.251530    1.159470    0.947790
     37          6           0       -5.830860    1.832440    4.532741
     38          6           0       -6.145900    3.226363    1.325117
     39          8           0       -6.529091    4.335642    1.699493
     40          6           0       -6.240490    2.922847   -0.235254
     41          6           0       -5.588519    4.067853   -0.961343
     42          8           0       -4.361123    4.271277   -0.863956
     43          8           0       -6.460019    4.593729   -1.835691
     44          6           0       -5.866507    5.716031   -2.610504
     45          1           0       -5.169523   -2.884686   -3.888188
     46          1           0       -2.778907   -5.561180    1.216255
     47          1           0       -4.648112   -0.694306    4.717512
     48          1           0       -6.846784    1.689291   -3.062152
     49          1           0       -5.818933   -0.468874   -4.556573
     50          1           0       -8.194700   -0.180120   -2.757065
     51          1           0       -7.517251   -1.834317   -2.861751
     52          1           0       -8.059845   -1.070122   -4.328782
     53          1           0       -4.064143    1.082517   -4.081977
     54          1           0       -4.287160    2.556182   -3.056770
     55          1           0       -6.240714    2.590526   -5.123033
     56          1           0       -4.865697    1.845618   -5.845730
     57          1           0       -3.905837   -4.349928   -4.724267
     58          1           0       -3.627077   -5.948275   -4.146691
     59          1           0       -2.211592   -4.928803   -4.513294
     60          1           0       -2.069098   -7.250153   -3.200856
     61          1           0       -0.547163   -7.729361   -2.261415
     62          1           0       -0.692538   -6.179450   -3.132949
     63          1           0       -2.426173   -4.851534    3.639569
     64          1           0       -4.608895   -3.367766    5.018749
     65          1           0       -3.824898   -6.526394    4.225916
     66          1           0       -4.989349   -5.890222    3.014276
     67          1           0       -5.105033   -5.394001    4.622802
     68          1           0       -2.317820   -3.749177    6.005568
     69          1           0       -2.920998   -2.101751    6.147010
     70          1           0       -0.867181   -3.298970    4.445487
     71          1           0       -0.765503   -1.765776    5.375900
     72          1           0       -1.640022   -1.867816    3.782315
     73          1           0       -5.490750    2.865206    4.608164
     74          1           0       -5.367673    1.206193    5.294893
     75          1           0       -6.914739    1.721930    4.503587
     76          1           0       -7.300029    2.836751   -0.474183
     77          1           0       -6.512697    6.582122   -2.467121
     78          1           0       -5.728225    5.350882   -3.628320
     79          1           0       -4.916110    6.105406   -2.243801
     80         12           0        4.253990    1.723841    0.085580
     81          6           0        5.318455   -1.542760   -0.951359
     82          6           0        3.895011    0.445959    3.227680
     83          6           0        2.888289    4.459079    0.934572
     84          6           0        3.606224    2.424744   -3.266251
     85          7           0        4.594662   -0.301316    0.907124
     86          6           0        5.058369   -1.447284    0.431637
     87          6           0        5.330543   -2.528627    1.511528
     88          6           0        4.324444   -1.995927    2.644171
     89          6           0        4.290660   -0.516808    2.265054
     90          6           0        2.917804   -2.555371    2.511065
     91          6           0        6.817886   -2.513371    2.011121
     92          6           0        7.232456   -3.735174    2.833964
     93          1           0        8.596538   -4.237624    2.695074
     94          7           0        3.963172    2.510061    1.884434
     95          6           0        3.865518    1.847385    3.056020
     96          6           0        3.632688    2.875872    4.081772
     97          6           0        3.436618    4.183513    3.398886
     98          6           0        3.400290    3.755307    2.014907
     99          6           0        3.691310    2.585344    5.553371
    100          6           0        3.291370    5.585615    3.908029
    101          8           0        2.891955    6.539122    3.150331
    102          6           0        3.540671    5.791398    5.342249
    103          7           0        3.176595    3.150766   -0.975286
    104          6           0        2.740405    4.273288   -0.377267
    105          6           0        2.235990    5.271317   -1.392099
    106          6           0        2.649634    4.679466   -2.819047
    107          6           0        3.270116    3.339317   -2.366948
    108          6           0        0.731476    5.540250   -1.369699
    109          6           0        3.482660    5.603129   -3.749428
    110          6           0        4.856929    5.825315   -3.160017
    111          7           0        4.591084    0.732168   -1.804118
    112          6           0        4.217931    1.190677   -3.086544
    113          6           0        4.555826    0.120257   -4.046983
    114          6           0        5.085145   -0.904076   -3.247579
    115          6           0        5.059024   -0.508518   -1.882904
    116          6           0        4.319629    0.156645   -5.450197
    117          6           0        5.650246   -2.234254   -3.246739
    118          8           0        5.995256   -3.032053   -4.117496
    119          6           0        5.709673   -2.757120   -1.746916
    120          6           0        7.076869   -3.338379   -1.511480
    121          8           0        8.085721   -2.611651   -1.537721
    122          8           0        6.948328   -4.606844   -1.081551
    123          6           0        8.277300   -5.222600   -0.823653
    124          1           0        3.532075    0.094674    4.193992
    125          1           0        2.505938    5.457191    1.160523
    126          1           0        3.525555    2.604939   -4.340359
    127          1           0        5.063222   -3.537676    1.221467
    128          1           0        4.744579   -2.125272    3.638213
    129          1           0        2.796393   -3.128701    1.604035
    130          1           0        2.258962   -1.696908    2.507056
    131          1           0        2.655646   -3.132308    3.402550
    132          1           0        6.932828   -1.728293    2.769525
    133          1           0        7.494689   -2.384879    1.188903
    134          1           0        6.509908   -4.555656    2.746286
    135          1           0        7.205213   -3.466055    3.892658
    136          1           0        3.689139    1.506257    5.750755
    137          1           0        2.751309    2.942773    5.987550
    138          1           0        4.523750    3.089059    6.049324
    139          1           0        2.860784    5.169622    5.919836
    140          1           0        3.475578    6.869941    5.498372
    141          1           0        4.555018    5.447789    5.573861
    142          1           0        2.714433    6.233825   -1.258776
    143          1           0        1.768125    4.428361   -3.427088
    144          1           0        0.481072    6.607922   -1.223226
    145          1           0        0.288170    4.935266   -0.589948
    146          1           0        0.190047    5.209772   -2.254478
    147          1           0        3.014066    6.587507   -3.823977
    148          1           0        3.586994    5.218864   -4.758605
    149          1           0        4.690236    6.635517   -2.443855
    150          1           0        5.562329    6.121431   -3.933820
    151          1           0        5.188754    4.947558   -2.593373
    152          1           0        5.209799   -0.232915   -5.925957
    153          1           0        4.095708    1.165807   -5.789643
    154          1           0        3.449684   -0.501970   -5.518688
    155          1           0        4.922072   -3.502222   -1.628295
    156          1           0        8.325508   -6.139583   -1.419043
    157          1           0        8.348171   -5.331032    0.274969
    158          1           0        9.152860   -4.692714   -1.180111
 ---------------------------------------------------------------------

 SCF Done:  E(RCAM-B3LYP) =  -4069.81190331     A.U. after   19 cycles

 Excitation energies and oscillator strengths:

 Excited State   1:      Singlet-A      1.6502 eV  751.34 nm  f=0.0359  <S**2>=0.000
     309 -> 315        0.11043
     310 -> 316        0.12637
     311 -> 313        0.45273
     312 -> 314        0.51747
 This state for optimization and/or second-order correction.
 Total Energy, E(TD-HF/TD-DFT) =  -4069.75126059
 Copying the excited state density for this state as the 1-particle RhoCI density.

 Excited State   2:      Singlet-A      1.7008 eV  728.99 nm  f=0.6596  <S**2>=0.000
     309 -> 315        0.13611
     310 -> 316       -0.11872
     311 -> 313        0.51498
     312 -> 314       -0.45057

 Excited State   3:      Singlet-A      2.1811 eV  568.45 nm  f=0.0264  <S**2>=0.000
     309 -> 313        0.29946
     310 -> 314        0.57152
     311 -> 315       -0.12383
     312 -> 316       -0.23740

 Excited State   4:      Singlet-A      2.1970 eV  564.33 nm  f=0.1511  <S**2>=0.000
     309 -> 313        0.56617
     310 -> 314       -0.29529
     311 -> 315       -0.24989
     312 -> 316        0.13162

 Excited State   5:      Singlet-A      2.3493 eV  527.76 nm  f=0.0000  <S**2>=0.000
     312 -> 313        0.70709

 The electronic state is 1-A.
 Alpha  occ. eigenvalues --  -46.87908 -46.87435 -19.26386 -19.26214 -19.19127
 Alpha  occ. eigenvalues --  -19.19020 -19.18885 -19.18470 -19.18250 -19.17899
 Alpha  occ. eigenvalues --  -14.42559 -14.42273 -14.41578 -14.41113 -14.39507
 Alpha  occ. eigenvalues --  -14.39127 -14.38694 -14.38391 -10.39185 -10.38946
 Alpha  occ. eigenvalues --  -10.35511 -10.35147 -10.34473 -10.34077 -10.31785
 Alpha  occ. eigenvalues --  -10.31638 -10.31512 -10.31114 -10.31006 -10.30795
 Alpha  occ. eigenvalues --  -10.30675 -10.30622 -10.30341 -10.30180 -10.30174
 Alpha  occ. eigenvalues --  -10.30063 -10.29878 -10.29729 -10.29633 -10.29355
 Alpha  occ. eigenvalues --  -10.29208 -10.29205 -10.28851 -10.28662 -10.28509
 Alpha  occ. eigenvalues --  -10.28495 -10.28459 -10.28211 -10.28190 -10.27928
 Alpha  occ. eigenvalues --  -10.27885 -10.27830 -10.27802 -10.27715 -10.27673
 Alpha  occ. eigenvalues --  -10.27649 -10.27511 -10.27505 -10.27457 -10.27295
 Alpha  occ. eigenvalues --  -10.27265 -10.27263 -10.27253 -10.27210 -10.26978
 Alpha  occ. eigenvalues --  -10.26885 -10.26824 -10.26515 -10.26502 -10.26393
 Alpha  occ. eigenvalues --  -10.26316 -10.26189 -10.26152 -10.25948 -10.25908
 Alpha  occ. eigenvalues --  -10.25769 -10.25767 -10.25714 -10.25609 -10.25109
 Alpha  occ. eigenvalues --  -10.24925 -10.24912 -10.24736 -10.24681 -10.24524
 Alpha  occ. eigenvalues --  -10.24426  -3.16651  -3.16185  -1.91532  -1.91119
 Alpha  occ. eigenvalues --   -1.91067  -1.90961  -1.90656  -1.90493  -1.16735
 Alpha  occ. eigenvalues --   -1.16507  -1.08708  -1.08516  -1.07287  -1.06805
 Alpha  occ. eigenvalues --   -1.06746  -1.06716  -1.04687  -1.04277  -1.03883
 Alpha  occ. eigenvalues --   -1.03435  -1.03344  -1.02803  -1.02524  -1.01882
 Alpha  occ. eigenvalues --   -0.92076  -0.91786  -0.89706  -0.89292  -0.89252
 Alpha  occ. eigenvalues --   -0.88939  -0.88467  -0.87971  -0.87924  -0.87785
 Alpha  occ. eigenvalues --   -0.87628  -0.87456  -0.87339  -0.86914  -0.85091
 Alpha  occ. eigenvalues --   -0.84786  -0.84147  -0.83575  -0.83053  -0.82743
 Alpha  occ. eigenvalues --   -0.82688  -0.82436  -0.81697  -0.81422  -0.80701
 Alpha  occ. eigenvalues --   -0.80245  -0.78878  -0.78440  -0.77358  -0.77062
 Alpha  occ. eigenvalues --   -0.76935  -0.76668  -0.76028  -0.75641  -0.75057
 Alpha  occ. eigenvalues --   -0.74456  -0.72892  -0.72490  -0.71791  -0.71308
 Alpha  occ. eigenvalues --   -0.70152  -0.69478  -0.68977  -0.68618  -0.67745
 Alpha  occ. eigenvalues --   -0.67380  -0.67315  -0.67001  -0.65401  -0.65070
 Alpha  occ. eigenvalues --   -0.64978  -0.64756  -0.64559  -0.64445  -0.64434
 Alpha  occ. eigenvalues --   -0.63940  -0.62416  -0.62095  -0.60539  -0.60103
 Alpha  occ. eigenvalues --   -0.59905  -0.59590  -0.59110  -0.58761  -0.58621
 Alpha  occ. eigenvalues --   -0.58208  -0.57687  -0.57439  -0.57390  -0.56995
 Alpha  occ. eigenvalues --   -0.56405  -0.56085  -0.56018  -0.55710  -0.55613
 Alpha  occ. eigenvalues --   -0.55506  -0.55260  -0.54998  -0.54681  -0.54242
 Alpha  occ. eigenvalues --   -0.53999  -0.53703  -0.53416  -0.53304  -0.53047
 Alpha  occ. eigenvalues --   -0.53013  -0.52939  -0.52830  -0.52704  -0.52678
 Alpha  occ. eigenvalues --   -0.52456  -0.52166  -0.52018  -0.51757  -0.51704
 Alpha  occ. eigenvalues --   -0.51463  -0.51326  -0.51010  -0.50626  -0.50257
 Alpha  occ. eigenvalues --   -0.50212  -0.49996  -0.49756  -0.49602  -0.49548
 Alpha  occ. eigenvalues --   -0.49307  -0.49276  -0.49195  -0.49013  -0.48899
 Alpha  occ. eigenvalues --   -0.48708  -0.48600  -0.48520  -0.48370  -0.48132
 Alpha  occ. eigenvalues --   -0.48053  -0.47807  -0.47397  -0.47374  -0.46939
 Alpha  occ. eigenvalues --   -0.46869  -0.46658  -0.46486  -0.46480  -0.46335
 Alpha  occ. eigenvalues --   -0.46292  -0.46055  -0.45933  -0.45838  -0.45634
 Alpha  occ. eigenvalues --   -0.45368  -0.44836  -0.44697  -0.44614  -0.44318
 Alpha  occ. eigenvalues --   -0.44298  -0.44260  -0.44189  -0.44100  -0.43923
 Alpha  occ. eigenvalues --   -0.43841  -0.43742  -0.43611  -0.43509  -0.43370
 Alpha  occ. eigenvalues --   -0.43154  -0.43147  -0.42894  -0.42792  -0.42763
 Alpha  occ. eigenvalues --   -0.42674  -0.42288  -0.42186  -0.41817  -0.41740
 Alpha  occ. eigenvalues --   -0.41650  -0.41456  -0.41257  -0.41238  -0.41022
 Alpha  occ. eigenvalues --   -0.40899  -0.40739  -0.40735  -0.40502  -0.40473
 Alpha  occ. eigenvalues --   -0.40342  -0.40202  -0.40025  -0.39712  -0.39161
 Alpha  occ. eigenvalues --   -0.38647  -0.38043  -0.37866  -0.37481  -0.37452
 Alpha  occ. eigenvalues --   -0.37368  -0.37024  -0.36983  -0.36842  -0.36591
 Alpha  occ. eigenvalues --   -0.36330  -0.35957  -0.34399  -0.34032  -0.33878
 Alpha  occ. eigenvalues --   -0.33705  -0.33300  -0.32955  -0.31419  -0.31148
 Alpha  occ. eigenvalues --   -0.31025  -0.30742  -0.30111  -0.29807  -0.29538
 Alpha  occ. eigenvalues --   -0.29416  -0.29121  -0.29021  -0.24194  -0.23812
 Alpha  occ. eigenvalues --   -0.21239  -0.20893
 Alpha virt. eigenvalues --   -0.08874  -0.08578  -0.01867  -0.01442  -0.00138
 Alpha virt. eigenvalues --    0.00187   0.02098   0.02385   0.02821   0.03497
 Alpha virt. eigenvalues --    0.04600   0.04947   0.04994   0.05315   0.06049

 Mulliken charges:
               1
     1  Mg   0.838773
     2  C   -0.002874
     3  C   -0.093560
     4  C   -0.046446
     5  C   -0.064356
     6  N   -0.256665
     7  C   -0.052596
     8  C   -0.013992
     9  C   -0.087082
    10  C    0.046248
    11  C    0.104711
    12  C    0.053502
    13  C   -0.071609
    14  H    0.034936
    15  N   -0.433264
    16  C    0.168544
    17  C   -0.176351
    18  C   -0.003660
    19  C    0.148661
    20  C    0.109894
    21  C    0.012077
    22  O   -0.250536
    23  C    0.062181
    24  N   -0.340880
    25  C    0.041214
    26  C   -0.028252
    27  C   -0.023730
    28  C    0.074147
    29  C    0.076118
    30  C    0.035608
    31  C   -0.005795
    32  N   -0.310502
    33  C    0.080196
    34  C   -0.169753
    35  C    0.008723
    36  C    0.082973
    37  C    0.127287
    38  C    0.046401
    39  O   -0.187930
    40  C   -0.005548
    41  C    0.213299
    42  O   -0.257520
    43  O   -0.304629
    44  C    0.157617
    45  H   -0.017045
    46  H   -0.017250
    47  H   -0.042172
    48  H    0.001135
    49  H   -0.003725
    50  H    0.025571
    51  H    0.016543
    52  H    0.017035
    53  H    0.011370
    54  H    0.043324
    55  H    0.018366
    56  H    0.018335
    57  H    0.006007
    58  H    0.027190
    59  H    0.041361
    60  H    0.037531
    61  H    0.036267
    62  H    0.033491
    63  H    0.015257
    64  H    0.009856
    65  H    0.022983
    66  H    0.013274
    67  H    0.004917
    68  H    0.005793
    69  H    0.004781
    70  H    0.008133
    71  H    0.014498
    72  H    0.031036
    73  H    0.047969
    74  H    0.008250
    75  H    0.046161
    76  H    0.035381
    77  H    0.043474
    78  H    0.046193
    79  H    0.053308
    80  Mg   0.837582
    81  C   -0.017256
    82  C   -0.088166
    83  C   -0.043709
    84  C   -0.064977
    85  N   -0.254788
    86  C   -0.050031
    87  C   -0.015129
    88  C   -0.091089
    89  C    0.046129
    90  C    0.113766
    91  C    0.062610
    92  C   -0.077703
    93  H    0.034047
    94  N   -0.423863
    95  C    0.163783
    96  C   -0.174363
    97  C   -0.006551
    98  C    0.152262
    99  C    0.099327
   100  C    0.016174
   101  O   -0.251615
   102  C    0.061193
   103  N   -0.350133
   104  C    0.039038
   105  C   -0.020889
   106  C   -0.033658
   107  C    0.088886
   108  C    0.072113
   109  C    0.034753
   110  C   -0.007440
   111  N   -0.323804
   112  C    0.078132
   113  C   -0.164204
   114  C    0.001438
   115  C    0.095998
   116  C    0.131775
   117  C    0.041146
   118  O   -0.189814
   119  C    0.001294
   120  C    0.211019
   121  O   -0.251259
   122  O   -0.305464
   123  C    0.152288
   124  H   -0.020262
   125  H   -0.013633
   126  H   -0.041694
   127  H   -0.000083
   128  H   -0.005122
   129  H    0.024426
   130  H    0.014751
   131  H    0.016525
   132  H    0.013602
   133  H    0.037342
   134  H    0.021313
   135  H    0.019197
   136  H    0.007952
   137  H    0.026332
   138  H    0.039492
   139  H    0.038364
   140  H    0.036549
   141  H    0.033102
   142  H    0.013374
   143  H    0.011857
   144  H    0.024596
   145  H    0.020703
   146  H    0.007427
   147  H    0.006027
   148  H    0.002151
   149  H    0.011117
   150  H    0.016857
   151  H    0.029918
   152  H    0.045318
   153  H    0.008123
   154  H    0.044523
   155  H    0.034581
   156  H    0.043366
   157  H    0.049697
   158  H    0.053190
 Sum of Mulliken charges =  -0.00000

 Dipole moment (field-independent basis, Debye):
    X=             -3.3401    Y=             -3.0598    Z=              0.6010  Tot=              4.5695
 Quadrupole moment (field-independent basis, Debye-Ang):
   XX=           -528.6684   YY=           -537.1502   ZZ=           -454.5175
   XY=             19.2077   XZ=             53.7666   YZ=            -30.4459

 Normal termination of Gaussian 16 at Thu Aug 19 19:33:36 2021.
