 Gaussian 16, Revision A.03,
 Gaussian 16:  ES64L-G16RevA.03 25-Dec-2016

 -----------------------------------
 #p cam-b3lyp/Def2SVP td=(nstates=5)
 -----------------------------------

 --------------------------------
 TDDFT excited states in gaussian
 --------------------------------
 Symbolic Z-matrix:
 Charge =  0 Multiplicity = 1

                         Standard orientation:
 ---------------------------------------------------------------------
 Center     Atomic      Atomic             Coordinates (Angstroms)
 Number     Number       Type             X           Y           Z
 ---------------------------------------------------------------------
      1         12           0       -4.350546    0.467697   -0.881872
      2          6           0       -4.753790   -2.662523    0.806717
      3          6           0       -5.825327    1.944369    1.817670
      4          6           0       -4.419399    3.172512   -2.535914
      5          6           0       -3.971200   -1.342674   -3.835567
      6          7           0       -5.144120   -0.360147    1.011686
      7          6           0       -5.183861   -1.569456    1.562289
      8          6           0       -5.655470   -1.557041    3.047147
      9          6           0       -6.477768   -0.191116    3.038682
     10          6           0       -5.751024    0.522931    1.912669
     11          6           0       -7.941715   -0.363691    2.646791
     12          6           0       -4.455726   -1.497265    4.051523
     13          6           0       -4.807581   -1.809159    5.509012
     14          1           0       -3.839220   -2.525617    6.325292
     15          7           0       -4.565287    2.335438   -0.275010
     16          6           0       -5.178091    2.753229    0.858660
     17          6           0       -5.076111    4.228451    0.857172
     18          6           0       -4.522179    4.644933   -0.461083
     19          6           0       -4.504435    3.386569   -1.162213
     20          6           0       -5.435465    5.079263    2.036466
     21          6           0       -4.088957    5.968943   -1.006471
     22          8           0       -3.856585    6.148911   -2.250733
     23          6           0       -4.028416    7.086576   -0.047162
     24          7           0       -4.434487    0.880131   -2.926496
     25          6           0       -4.393592    2.138151   -3.378931
     26          6           0       -4.181359    2.177939   -4.863287
     27          6           0       -3.841041    0.680633   -5.301479
     28          6           0       -4.006880   -0.011275   -3.925968
     29          6           0       -5.362706    2.696959   -5.694580
     30          6           0       -2.522345    0.459488   -6.084138
     31          6           0       -1.338880    0.737954   -5.184713
     32          7           0       -4.179359   -1.626925   -1.424366
     33          6           0       -4.051076   -2.155323   -2.717043
     34          6           0       -4.080662   -3.623869   -2.588341
     35          6           0       -4.241796   -3.849042   -1.222626
     36          6           0       -4.334968   -2.600171   -0.544442
     37          6           0       -4.023581   -4.555834   -3.661941
     38          6           0       -4.381643   -4.854138   -0.181434
     39          8           0       -4.287958   -6.081838   -0.143098
     40          6           0       -4.840784   -4.126790    1.158708
     41          6           0       -3.967922   -4.635020    2.273662
     42          8           0       -2.748460   -4.371472    2.302324
     43          8           0       -4.740019   -5.144120    3.245889
     44          6           0       -3.937277   -5.639483    4.395835
     45          1           0       -6.483873    2.485268    2.500082
     46          1           0       -4.329133    4.081700   -3.133967
     47          1           0       -3.773484   -1.973455   -4.704173
     48          1           0       -6.310085   -2.383958    3.323032
     49          1           0       -6.362935    0.358810    3.972554
     50          1           0       -8.147384   -1.380381    2.312182
     51          1           0       -8.111644    0.345498    1.836441
     52          1           0       -8.599354   -0.053525    3.459248
     53          1           0       -4.126648   -0.463537    4.157236
     54          1           0       -3.647922   -2.154192    3.727137
     55          1           0       -5.792197   -2.270295    5.591434
     56          1           0       -4.904454   -0.865737    6.046386
     57          1           0       -5.967093    4.507226    2.795866
     58          1           0       -6.163183    5.812783    1.689936
     59          1           0       -4.567670    5.590825    2.453082
     60          1           0       -5.013500    7.234266    0.395948
     61          1           0       -3.613982    7.931634   -0.595770
     62          1           0       -3.361851    6.813548    0.771432
     63          1           0       -3.343838    2.824761   -5.121369
     64          1           0       -4.609281    0.259810   -5.950624
     65          1           0       -5.112683    3.550107   -6.325715
     66          1           0       -6.174705    2.941361   -5.010317
     67          1           0       -5.834776    1.951015   -6.333434
     68          1           0       -2.458182    1.152408   -6.922404
     69          1           0       -2.421441   -0.550909   -6.480582
     70          1           0       -1.231112    1.819926   -5.252191
     71          1           0       -0.448447    0.232737   -5.560340
     72          1           0       -1.563318    0.497034   -4.145448
     73          1           0       -3.340090   -5.343799   -3.345838
     74          1           0       -3.682108   -4.080482   -4.581201
     75          1           0       -5.066846   -4.866669   -3.715192
     76          1           0       -5.889054   -4.382095    1.310604
     77          1           0       -4.209799   -6.683380    4.551543
     78          1           0       -4.109993   -4.943560    5.216971
     79          1           0       -2.863082   -5.729673    4.230579
     80         12           0        4.481420    0.826367    0.828747
     81          6           0        4.825629   -1.923056   -1.451868
     82          6           0        3.241798   -1.402126    3.094087
     83          6           0        3.746743    3.284377    2.695798
     84          6           0        4.653465    2.953037   -1.926861
     85          7           0        4.128319   -1.354307    0.718230
     86          6           0        4.354815   -2.303118   -0.177769
     87          6           0        4.136427   -3.747885    0.346155
     88          6           0        3.117196   -3.418321    1.542580
     89          6           0        3.539248   -1.979685    1.833910
     90          6           0        1.661127   -3.410158    1.107687
     91          6           0        5.461093   -4.395945    0.882157
     92          6           0        5.387402   -5.905586    1.121587
     93          1           0        6.575101   -6.711680    0.853148
     94          7           0        4.086756    0.889646    2.772663
     95          6           0        3.610293   -0.113601    3.539329
     96          6           0        3.473042    0.445074    4.893298
     97          6           0        3.751145    1.905610    4.828500
     98          6           0        3.854218    2.090975    3.394934
     99          6           0        3.187851   -0.403195    6.098500
    100          6           0        3.887439    2.963147    5.881699
    101          8           0        3.893794    4.210433    5.586649
    102          6           0        3.919300    2.499143    7.276395
    103          7           0        4.022825    2.814101    0.427545
    104          6           0        3.794246    3.685849    1.425413
    105          6           0        3.758926    5.105568    0.912051
    106          6           0        4.253812    5.025722   -0.606599
    107          6           0        4.411313    3.495214   -0.741292
    108          6           0        2.398110    5.799438    0.967759
    109          6           0        5.452364    5.929990   -1.004691
    110          6           0        6.707589    5.460876   -0.304884
    111          7           0        4.882742    0.606715   -1.282828
    112          6           0        4.879360    1.624135   -2.262070
    113          6           0        5.093571    0.970675   -3.569566
    114          6           0        5.184449   -0.394844   -3.260395
    115          6           0        5.017111   -0.581339   -1.861575
    116          6           0        5.131734    1.627796   -4.831653
    117          6           0        5.373285   -1.721949   -3.800627
    118          8           0        5.649204   -2.177165   -4.909851
    119          6           0        5.023178   -2.782474   -2.669655
    120          6           0        6.125859   -3.804902   -2.634258
    121          8           0        7.276975   -3.481438   -2.292362
    122          8           0        5.595642   -5.030651   -2.797972
    123          6           0        6.649028   -6.079792   -2.759160
    124          1           0        2.631932   -1.972500    3.795248
    125          1           0        3.603772    4.178054    3.307659
    126          1           0        4.817388    3.556471   -2.822225
    127          1           0        3.671919   -4.422790   -0.362718
    128          1           0        3.302923   -4.052376    2.405624
    129          1           0        1.559764   -3.511259    0.037346
    130          1           0        1.260912   -2.460400    1.437586
    131          1           0        1.101464   -4.177710    1.649878
    132          1           0        5.638316   -4.051281    1.909065
    133          1           0        6.284582   -4.172973    0.231943
    134          1           0        4.503879   -6.354776    0.651952
    135          1           0        5.241125   -6.080715    2.190215
    136          1           0        2.868771   -1.413219    5.813130
    137          1           0        2.311370    0.028850    6.593466
    138          1           0        4.019459   -0.422810    6.806112
    139          1           0        3.008270    1.946806    7.494135
    140          1           0        4.110781    3.390694    7.876690
    141          1           0        4.750001    1.793973    7.391609
    142          1           0        4.439754    5.735907    1.470839
    143          1           0        3.461750    5.323186   -1.309438
    144          1           0        2.412735    6.743294    1.544827
    145          1           0        1.679428    5.108188    1.387544
    146          1           0        1.957710    6.030830   -0.000594
    147          1           0        5.278126    6.956924   -0.674236
    148          1           0        5.632818    5.962000   -2.073986
    149          1           0        6.631866    5.931891    0.679754
    150          1           0        7.593192    5.800808   -0.837969
    151          1           0        6.691302    4.375349   -0.153146
    152          1           0        5.960051    1.199883   -5.380537
    153          1           0        5.243725    2.703876   -4.716391
    154          1           0        4.147186    1.357071   -5.222337
    155          1           0        4.060456   -3.227299   -2.924386
    156          1           0        6.562778   -6.653618   -3.687049
    157          1           0        6.490124   -6.627761   -1.811410
    158          1           0        7.681853   -5.755021   -2.806568
 ---------------------------------------------------------------------

 SCF Done:  E(RCAM-B3LYP) =  -4069.81303641     A.U. after   19 cycles

 Excitation energies and oscillator strengths:

 Excited State   1:      Singlet-A      1.6633 eV  745.40 nm  f=0.2105  <S**2>=0.000
     309 -> 315       -0.10173
     310 -> 316        0.13606
     311 -> 313       -0.40812
     312 -> 314        0.55215
 This state for optimization and/or second-order correction.
 Total Energy, E(TD-HF/TD-DFT) =  -4069.75191007
 Copying the excited state density for this state as the 1-particle RhoCI density.

 Excited State   2:      Singlet-A      1.6830 eV  736.71 nm  f=0.4676  <S**2>=0.000
     309 -> 315        0.14215
     310 -> 316        0.10280
     311 -> 313        0.55089
     312 -> 314        0.40722

 Excited State   3:      Singlet-A      2.1819 eV  568.23 nm  f=0.0819  <S**2>=0.000
     309 -> 313       -0.18630
     310 -> 314        0.61629
     312 -> 316       -0.25619

 Excited State   4:      Singlet-A      2.1943 eV  565.04 nm  f=0.1117  <S**2>=0.000
     309 -> 313        0.61290
     310 -> 314        0.18424
     311 -> 315       -0.26747

 Excited State   5:      Singlet-A      2.3273 eV  532.74 nm  f=0.0000  <S**2>=0.000
     312 -> 313        0.70707

 The electronic state is 1-A.
 Alpha  occ. eigenvalues --  -46.87937 -46.87400 -19.26669 -19.26077 -19.19447
 Alpha  occ. eigenvalues --  -19.18938 -19.18901 -19.18574 -19.18376 -19.17829
 Alpha  occ. eigenvalues --  -14.42599 -14.42183 -14.41579 -14.41110 -14.39540
 Alpha  occ. eigenvalues --  -14.39103 -14.38737 -14.38349 -10.39473 -10.38828
 Alpha  occ. eigenvalues --  -10.35568 -10.35256 -10.34604 -10.34000 -10.32092
 Alpha  occ. eigenvalues --  -10.31568 -10.31491 -10.31074 -10.30956 -10.30721
 Alpha  occ. eigenvalues --  -10.30705 -10.30649 -10.30311 -10.30174 -10.30100
 Alpha  occ. eigenvalues --  -10.30051 -10.29906 -10.29772 -10.29674 -10.29379
 Alpha  occ. eigenvalues --  -10.29193 -10.29183 -10.28961 -10.28843 -10.28523
 Alpha  occ. eigenvalues --  -10.28297 -10.28259 -10.28242 -10.28145 -10.27937
 Alpha  occ. eigenvalues --  -10.27867 -10.27764 -10.27720 -10.27572 -10.27571
 Alpha  occ. eigenvalues --  -10.27562 -10.27530 -10.27529 -10.27404 -10.27337
 Alpha  occ. eigenvalues --  -10.27325 -10.27281 -10.27256 -10.27211 -10.27206
 Alpha  occ. eigenvalues --  -10.26983 -10.26783 -10.26502 -10.26392 -10.26327
 Alpha  occ. eigenvalues --  -10.26299 -10.26193 -10.26135 -10.25973 -10.25960
 Alpha  occ. eigenvalues --  -10.25692 -10.25680 -10.25506 -10.25282 -10.24996
 Alpha  occ. eigenvalues --  -10.24990 -10.24923 -10.24682 -10.24637 -10.24579
 Alpha  occ. eigenvalues --  -10.24462  -3.16679  -3.16150  -1.91561  -1.91147
 Alpha  occ. eigenvalues --   -1.91032  -1.90990  -1.90620  -1.90458  -1.17019
 Alpha  occ. eigenvalues --   -1.16374  -1.08851  -1.08436  -1.07338  -1.07045
 Alpha  occ. eigenvalues --   -1.06833  -1.06686  -1.04736  -1.04185  -1.03895
 Alpha  occ. eigenvalues --   -1.03396  -1.03373  -1.02798  -1.02551  -1.01859
 Alpha  occ. eigenvalues --   -0.92153  -0.91716  -0.89623  -0.89380  -0.89275
 Alpha  occ. eigenvalues --   -0.88647  -0.88384  -0.88016  -0.88011  -0.87825
 Alpha  occ. eigenvalues --   -0.87567  -0.87394  -0.87380  -0.86931  -0.85171
 Alpha  occ. eigenvalues --   -0.84606  -0.84038  -0.83689  -0.83072  -0.82831
 Alpha  occ. eigenvalues --   -0.82775  -0.82300  -0.81827  -0.81326  -0.80780
 Alpha  occ. eigenvalues --   -0.80180  -0.78925  -0.78415  -0.77363  -0.77132
 Alpha  occ. eigenvalues --   -0.76868  -0.76544  -0.76118  -0.75421  -0.75018
 Alpha  occ. eigenvalues --   -0.74576  -0.72911  -0.72437  -0.71824  -0.71253
 Alpha  occ. eigenvalues --   -0.69972  -0.69557  -0.69051  -0.68462  -0.67803
 Alpha  occ. eigenvalues --   -0.67415  -0.67365  -0.66885  -0.65483  -0.65040
 Alpha  occ. eigenvalues --   -0.64908  -0.64792  -0.64500  -0.64379  -0.64341
 Alpha  occ. eigenvalues --   -0.63977  -0.62554  -0.62021  -0.60560  -0.60141
 Alpha  occ. eigenvalues --   -0.59980  -0.59392  -0.59142  -0.58728  -0.58669
 Alpha  occ. eigenvalues --   -0.58171  -0.57838  -0.57449  -0.57298  -0.57024
 Alpha  occ. eigenvalues --   -0.56481  -0.56252  -0.55954  -0.55675  -0.55609
 Alpha  occ. eigenvalues --   -0.55504  -0.55209  -0.55030  -0.54721  -0.54261
 Alpha  occ. eigenvalues --   -0.54096  -0.53447  -0.53439  -0.53403  -0.53136
 Alpha  occ. eigenvalues --   -0.53000  -0.52897  -0.52867  -0.52629  -0.52498
 Alpha  occ. eigenvalues --   -0.52349  -0.52213  -0.52060  -0.51808  -0.51685
 Alpha  occ. eigenvalues --   -0.51365  -0.51316  -0.50935  -0.50671  -0.50297
 Alpha  occ. eigenvalues --   -0.50131  -0.50044  -0.49738  -0.49690  -0.49614
 Alpha  occ. eigenvalues --   -0.49394  -0.49282  -0.49169  -0.48923  -0.48804
 Alpha  occ. eigenvalues --   -0.48651  -0.48622  -0.48569  -0.48226  -0.48187
 Alpha  occ. eigenvalues --   -0.48105  -0.47851  -0.47440  -0.47297  -0.46938
 Alpha  occ. eigenvalues --   -0.46888  -0.46755  -0.46512  -0.46429  -0.46316
 Alpha  occ. eigenvalues --   -0.46135  -0.46032  -0.46028  -0.45864  -0.45537
 Alpha  occ. eigenvalues --   -0.45309  -0.45001  -0.44774  -0.44649  -0.44307
 Alpha  occ. eigenvalues --   -0.44272  -0.44239  -0.44183  -0.44161  -0.43876
 Alpha  occ. eigenvalues --   -0.43725  -0.43720  -0.43652  -0.43542  -0.43282
 Alpha  occ. eigenvalues --   -0.43187  -0.43049  -0.43009  -0.42751  -0.42669
 Alpha  occ. eigenvalues --   -0.42623  -0.42348  -0.42143  -0.41871  -0.41715
 Alpha  occ. eigenvalues --   -0.41710  -0.41396  -0.41296  -0.41111  -0.41035
 Alpha  occ. eigenvalues --   -0.40965  -0.40675  -0.40643  -0.40510  -0.40460
 Alpha  occ. eigenvalues --   -0.40370  -0.40139  -0.39844  -0.39498  -0.39232
 Alpha  occ. eigenvalues --   -0.38582  -0.38110  -0.37976  -0.37455  -0.37436
 Alpha  occ. eigenvalues --   -0.37311  -0.37028  -0.37007  -0.36843  -0.36519
 Alpha  occ. eigenvalues --   -0.36378  -0.35952  -0.34439  -0.34143  -0.33983
 Alpha  occ. eigenvalues --   -0.33605  -0.33342  -0.32918  -0.31469  -0.31189
 Alpha  occ. eigenvalues --   -0.31130  -0.30699  -0.30242  -0.29730  -0.29588
 Alpha  occ. eigenvalues --   -0.29473  -0.29115  -0.28983  -0.24229  -0.23770
 Alpha  occ. eigenvalues --   -0.21266  -0.20852
 Alpha virt. eigenvalues --   -0.08916  -0.08550  -0.01884  -0.01435  -0.00203
 Alpha virt. eigenvalues --    0.00208   0.02031   0.02421   0.02838   0.03522
 Alpha virt. eigenvalues --    0.04540   0.04739   0.05083   0.05430   0.05919

 Mulliken charges:
               1
     1  Mg   0.838946
     2  C   -0.004164
     3  C   -0.093980
     4  C   -0.045646
     5  C   -0.063306
     6  N   -0.256845
     7  C   -0.052739
     8  C   -0.014077
     9  C   -0.087074
    10  C    0.046296
    11  C    0.104701
    12  C    0.053576
    13  C   -0.071229
    14  H    0.033194
    15  N   -0.433241
    16  C    0.168799
    17  C   -0.176580
    18  C   -0.003631
    19  C    0.148892
    20  C    0.109940
    21  C    0.012154
    22  O   -0.249635
    23  C    0.062209
    24  N   -0.341174
    25  C    0.041622
    26  C   -0.028270
    27  C   -0.024073
    28  C    0.074814
    29  C    0.076079
    30  C    0.034952
    31  C   -0.004969
    32  N   -0.310253
    33  C    0.079970
    34  C   -0.169890
    35  C    0.007768
    36  C    0.082442
    37  C    0.127448
    38  C    0.044985
    39  O   -0.189348
    40  C   -0.005112
    41  C    0.213849
    42  O   -0.260885
    43  O   -0.303630
    44  C    0.158364
    45  H   -0.017301
    46  H   -0.016545
    47  H   -0.040600
    48  H    0.000830
    49  H   -0.003911
    50  H    0.025509
    51  H    0.016910
    52  H    0.016973
    53  H    0.011832
    54  H    0.041708
    55  H    0.018695
    56  H    0.018774
    57  H    0.005992
    58  H    0.027111
    59  H    0.040813
    60  H    0.037706
    61  H    0.035596
    62  H    0.032304
    63  H    0.016659
    64  H    0.009791
    65  H    0.023468
    66  H    0.012437
    67  H    0.005177
    68  H    0.006757
    69  H    0.005806
    70  H    0.007903
    71  H    0.020497
    72  H    0.028555
    73  H    0.046908
    74  H    0.010275
    75  H    0.046227
    76  H    0.035705
    77  H    0.043767
    78  H    0.046852
    79  H    0.050537
    80  Mg   0.837240
    81  C   -0.016987
    82  C   -0.087241
    83  C   -0.046736
    84  C   -0.065227
    85  N   -0.255214
    86  C   -0.048423
    87  C   -0.015343
    88  C   -0.090514
    89  C    0.045909
    90  C    0.114243
    91  C    0.062353
    92  C   -0.077491
    93  H    0.032726
    94  N   -0.423517
    95  C    0.162885
    96  C   -0.174609
    97  C   -0.008959
    98  C    0.152521
    99  C    0.099656
   100  C    0.014765
   101  O   -0.254427
   102  C    0.061498
   103  N   -0.350272
   104  C    0.037673
   105  C   -0.019693
   106  C   -0.034978
   107  C    0.088926
   108  C    0.073447
   109  C    0.034922
   110  C   -0.007526
   111  N   -0.324029
   112  C    0.078409
   113  C   -0.163783
   114  C    0.001915
   115  C    0.096179
   116  C    0.131633
   117  C    0.041537
   118  O   -0.189004
   119  C    0.001389
   120  C    0.211234
   121  O   -0.251526
   122  O   -0.305076
   123  C    0.152316
   124  H   -0.016671
   125  H   -0.017094
   126  H   -0.041064
   127  H    0.000849
   128  H   -0.005309
   129  H    0.021853
   130  H    0.014812
   131  H    0.029934
   132  H    0.012927
   133  H    0.036370
   134  H    0.022974
   135  H    0.019406
   136  H    0.009799
   137  H    0.024579
   138  H    0.038979
   139  H    0.037376
   140  H    0.035338
   141  H    0.034087
   142  H    0.013702
   143  H    0.013212
   144  H    0.023355
   145  H    0.010248
   146  H    0.007320
   147  H    0.005640
   148  H    0.003570
   149  H    0.010424
   150  H    0.017443
   151  H    0.030449
   152  H    0.045451
   153  H    0.008290
   154  H    0.045712
   155  H    0.035831
   156  H    0.043336
   157  H    0.050246
   158  H    0.052864
 Sum of Mulliken charges =  -0.00000

 Dipole moment (field-independent basis, Debye):
    X=             -5.5728    Y=              1.4884    Z=              5.3301  Tot=              7.8537
 Quadrupole moment (field-independent basis, Debye-Ang):
   XX=           -518.3730   YY=           -518.0216   ZZ=           -482.9391
   XY=            -13.8657   XZ=             -0.1628   YZ=            -19.8683

 Normal termination of Gaussian 16 at Thu Aug 19 23:17:30 2021.
