 Gaussian 16, Revision A.03,
 Gaussian 16:  ES64L-G16RevA.03 25-Dec-2016

 -----------------------------------
 #p cam-b3lyp/Def2SVP td=(nstates=5)
 -----------------------------------

 --------------------------------
 TDDFT excited states in gaussian
 --------------------------------
 Symbolic Z-matrix:
 Charge =  0 Multiplicity = 1

                         Standard orientation:
 ---------------------------------------------------------------------
 Center     Atomic      Atomic             Coordinates (Angstroms)
 Number     Number       Type             X           Y           Z
 ---------------------------------------------------------------------
      1         12           0       -4.309050    0.480371   -1.024515
      2          6           0       -4.887523   -2.508353    0.858333
      3          6           0       -5.846928    2.189006    1.497104
      4          6           0       -4.217617    3.061688   -2.864368
      5          6           0       -3.865354   -1.545901   -3.825053
      6          7           0       -5.209297   -0.186486    0.884805
      7          6           0       -5.312591   -1.351868    1.515984
      8          6           0       -5.846037   -1.219744    2.973843
      9          6           0       -6.621291    0.166366    2.833566
     10          6           0       -5.824098    0.776313    1.694106
     11          6           0       -8.072247    0.010730    2.389712
     12          6           0       -4.688616   -1.125070    4.024150
     13          6           0       -5.112122   -1.321852    5.482668
     14          1           0       -4.203627   -2.007462    6.389268
     15          7           0       -4.486998    2.392141   -0.559416
     16          6           0       -5.133049    2.907752    0.513921
     17          6           0       -4.982024    4.375381    0.414230
     18          6           0       -4.359154    4.680220   -0.903799
     19          6           0       -4.353626    3.375267   -1.514081
     20          6           0       -5.362505    5.318298    1.514181
     21          6           0       -3.859351    5.948434   -1.520211
     22          8           0       -3.568585    6.032445   -2.762375
     23          6           0       -3.802338    7.129051   -0.639339
     24          7           0       -4.292472    0.748858   -3.094605
     25          6           0       -4.190564    1.969745   -3.631293
     26          6           0       -3.914400    1.897547   -5.103863
     27          6           0       -3.605869    0.363291   -5.421069
     28          6           0       -3.852811   -0.223820   -4.009478
     29          6           0       -5.041510    2.391680   -6.021177
     30          6           0       -2.263283    0.047331   -6.126796
     31          6           0       -1.110386    0.353079   -5.197039
     32          7           0       -4.184875   -1.651714   -1.411606
     33          6           0       -4.019585   -2.274248   -2.657321
     34          6           0       -4.103490   -3.728373   -2.428087
     35          6           0       -4.329775   -3.850978   -1.058558
     36          6           0       -4.409965   -2.554840   -0.473849
     37          6           0       -4.032026   -4.735551   -3.430543
     38          6           0       -4.547023   -4.774879    0.042836
     39          8           0       -4.495984   -5.999023    0.170738
     40          6           0       -5.038075   -3.940613    1.307231
     41          6           0       -4.230664   -4.394510    2.492716
     42          8           0       -3.005413   -4.166585    2.557339
     43          8           0       -5.059801   -4.809677    3.462618
     44          6           0       -4.323463   -5.246139    4.678949
     45          1           0       -6.515427    2.796683    2.110113
     46          1           0       -4.071855    3.922946   -3.519674
     47          1           0       -3.652116   -2.242485   -4.637921
     48          1           0       -6.538932   -2.004800    3.277170
     49          1           0       -6.527892    0.777522    3.731056
     50          1           0       -8.297293   -1.020477    2.117891
     51          1           0       -8.183964    0.665372    1.525157
     52          1           0       -8.753035    0.397573    3.148433
     53          1           0       -4.330071   -0.096868    4.072179
     54          1           0       -3.890115   -1.827506    3.782682
     55          1           0       -6.114157   -1.745985    5.552990
     56          1           0       -5.200212   -0.340141    5.948161
     57          1           0       -5.944598    4.817992    2.287101
     58          1           0       -6.050049    6.047015    1.085270
     59          1           0       -4.496594    5.831691    1.932460
     60          1           0       -4.799852    7.337565   -0.251994
     61          1           0       -3.337111    7.920082   -1.226437
     62          1           0       -3.180531    6.894837    0.225212
     63          1           0       -3.045617    2.498779   -5.368742
     64          1           0       -4.359493   -0.079164   -6.072958
     65          1           0       -4.736688    3.189886   -6.698418
     66          1           0       -5.873192    2.708516   -5.392518
     67          1           0       -5.510659    1.616852   -6.626946
     68          1           0       -2.140607    0.676691   -7.007592
     69          1           0       -2.179371   -0.991264   -6.446997
     70          1           0       -0.963882    1.423769   -5.334844
     71          1           0       -0.222152   -0.204239   -5.496453
     72          1           0       -1.386570    0.193495   -4.154570
     73          1           0       -3.389168   -5.519374   -3.030136
     74          1           0       -3.636255   -4.337249   -4.364525
     75          1           0       -5.081869   -5.017697   -3.508514
     76          1           0       -6.099761   -4.152668    1.429612
     77          1           0       -4.636953   -6.267619    4.894677
     78          1           0       -4.507555   -4.488736    5.441088
     79          1           0       -3.246829   -5.380280    4.568477
     80         12           0        4.449934    0.691504    1.047718
     81          6           0        4.936747   -1.603972   -1.667585
     82          6           0        3.190828   -1.925081    2.837332
     83          6           0        3.593817    2.766326    3.290397
     84          6           0        4.661120    3.275230   -1.281558
     85          7           0        4.154172   -1.441222    0.541522
     86          6           0        4.433408   -2.212121   -0.498717
     87          6           0        4.233200   -3.730561   -0.246134
     88          6           0        3.167117   -3.636665    0.951164
     89          6           0        3.543932   -2.264881    1.506938
     90          6           0        1.726500   -3.578189    0.471017
     91          6           0        5.554838   -4.439019    0.215804
     92          6           0        5.510232   -5.968289    0.182463
     93          1           0        6.725550   -6.692332   -0.179808
     94          7           0        3.989619    0.402414    2.956403
     95          6           0        3.512708   -0.729236    3.516066
     96          6           0        3.317020   -0.421695    4.941297
     97          6           0        3.561276    1.032070    5.145317
     98          6           0        3.707249    1.470157    3.771685
     99          6           0        3.012882   -1.475001    5.966719
    100          6           0        3.636657    1.888738    6.372765
    101          8           0        3.622254    3.168463    6.302654
    102          6           0        3.633622    1.185796    7.664028
    103          7           0        3.956369    2.710167    0.986547
    104          6           0        3.673568    3.387162    2.113324
    105          6           0        3.620538    4.874467    1.857336
    106          6           0        4.167303    5.073783    0.367737
    107          6           0        4.366601    3.594439   -0.028750
    108          6           0        2.242042    5.522582    1.984176
    109          6           0        5.355887    6.055944    0.179862
    110          6           0        6.598342    5.493315    0.831901
    111          7           0        4.926289    0.856526   -1.053220
    112          6           0        4.930464    2.031011   -1.837217
    113          6           0        5.203827    1.623374   -3.230603
    114          6           0        5.317799    0.226577   -3.163866
    115          6           0        5.108801   -0.207646   -1.826981
    116          6           0        5.267697    2.494143   -4.354790
    117          6           0        5.556873   -0.980248   -3.922229
    118          8           0        5.880465   -1.226790   -5.083366
    119          6           0        5.195526   -2.230468   -3.009657
    120          6           0        6.321124   -3.222727   -3.114340
    121          8           0        7.452027   -2.943970   -2.678472
    122          8           0        5.826799   -4.409584   -3.511053
    123          6           0        6.903686   -5.429636   -3.618907
    124          1           0        2.572208   -2.621596    3.403942
    125          1           0        3.408813    3.534797    4.044515
    126          1           0        4.839798    4.030534   -2.049838
    127          1           0        3.809101   -4.277658   -1.079560
    128          1           0        3.339598   -4.410006    1.695177
    129          1           0        1.663176   -3.490031   -0.603394
    130          1           0        1.292432   -2.709302    0.948165
    131          1           0        1.168130   -4.439679    0.848351
    132          1           0        5.689445   -4.278425    1.293227
    133          1           0        6.393717   -4.089477   -0.354036
    134          1           0        4.654016   -6.343271   -0.391328
    135          1           0        5.332938   -6.332484    1.197327
    136          1           0        2.728259   -2.424192    5.496168
    137          1           0        2.110171   -1.153458    6.497364
    138          1           0        3.820809   -1.604413    6.690025
    139          1           0        2.729671    0.587114    7.747168
    140          1           0        3.783228    1.960323    8.418749
    141          1           0        4.477071    0.486639    7.683739
    142          1           0        4.266845    5.408216    2.543266
    143          1           0        3.391923    5.476490   -0.300437
    144          1           0        2.214432    6.349463    2.718738
    145          1           0        1.526990    4.754941    2.248682
    146          1           0        1.828464    5.913682    1.056175
    147          1           0        5.145710    7.004802    0.679508
    148          1           0        5.570855    6.280048   -0.859643
    149          1           0        6.478518    5.781099    1.880671
    150          1           0        7.492546    5.938350    0.400183
    151          1           0        6.603610    4.397963    0.789186
    152          1           0        6.123989    2.185349   -4.939534
    153          1           0        5.349434    3.534673   -4.047578
    154          1           0        4.303567    2.278958   -4.823196
    155          1           0        4.252968   -2.640642   -3.374217
    156          1           0        6.862301   -5.831595   -4.635959
    157          1           0        6.726912   -6.139548   -2.789130
    158          1           0        7.929251   -5.082825   -3.570121
 ---------------------------------------------------------------------

 SCF Done:  E(RCAM-B3LYP) =  -4069.81289420     A.U. after   19 cycles

 Excitation energies and oscillator strengths:

 Excited State   1:      Singlet-A      1.6699 eV  742.46 nm  f=0.3042  <S**2>=0.000
     310 -> 316        0.15752
     311 -> 313       -0.26587
     312 -> 314        0.63255
 This state for optimization and/or second-order correction.
 Total Energy, E(TD-HF/TD-DFT) =  -4069.75152605
 Copying the excited state density for this state as the 1-particle RhoCI density.

 Excited State   2:      Singlet-A      1.6766 eV  739.49 nm  f=0.3691  <S**2>=0.000
     309 -> 315        0.16128
     311 -> 313        0.63192
     312 -> 314        0.26550

 Excited State   3:      Singlet-A      2.1834 eV  567.84 nm  f=0.0971  <S**2>=0.000
     309 -> 313       -0.12227
     310 -> 314        0.63143
     312 -> 316       -0.26418

 Excited State   4:      Singlet-A      2.1930 eV  565.35 nm  f=0.0999  <S**2>=0.000
     309 -> 313        0.62902
     310 -> 314        0.12130
     311 -> 315       -0.27300

 Excited State   5:      Singlet-A      2.3314 eV  531.79 nm  f=0.0000  <S**2>=0.000
     312 -> 313        0.70707

 The electronic state is 1-A.
 Alpha  occ. eigenvalues --  -46.87932 -46.87415 -19.26635 -19.26131 -19.19397
 Alpha  occ. eigenvalues --  -19.18945 -19.18945 -19.18572 -19.18382 -19.17851
 Alpha  occ. eigenvalues --  -14.42591 -14.42205 -14.41572 -14.41128 -14.39537
 Alpha  occ. eigenvalues --  -14.39112 -14.38736 -14.38363 -10.39434 -10.38872
 Alpha  occ. eigenvalues --  -10.35577 -10.35253 -10.34606 -10.34024 -10.32057
 Alpha  occ. eigenvalues --  -10.31560 -10.31547 -10.31061 -10.30978 -10.30728
 Alpha  occ. eigenvalues --  -10.30720 -10.30649 -10.30305 -10.30186 -10.30107
 Alpha  occ. eigenvalues --  -10.30047 -10.29918 -10.29776 -10.29696 -10.29380
 Alpha  occ. eigenvalues --  -10.29197 -10.29189 -10.28931 -10.28779 -10.28520
 Alpha  occ. eigenvalues --  -10.28304 -10.28300 -10.28274 -10.28158 -10.27942
 Alpha  occ. eigenvalues --  -10.27861 -10.27769 -10.27724 -10.27601 -10.27579
 Alpha  occ. eigenvalues --  -10.27564 -10.27548 -10.27515 -10.27392 -10.27357
 Alpha  occ. eigenvalues --  -10.27339 -10.27258 -10.27251 -10.27236 -10.27229
 Alpha  occ. eigenvalues --  -10.26928 -10.26825 -10.26528 -10.26375 -10.26341
 Alpha  occ. eigenvalues --  -10.26312 -10.26168 -10.26134 -10.26001 -10.25994
 Alpha  occ. eigenvalues --  -10.25702 -10.25669 -10.25492 -10.25355 -10.25158
 Alpha  occ. eigenvalues --  -10.24995 -10.24918 -10.24646 -10.24645 -10.24602
 Alpha  occ. eigenvalues --  -10.24478  -3.16675  -3.16165  -1.91556  -1.91143
 Alpha  occ. eigenvalues --   -1.91047  -1.90985  -1.90635  -1.90473  -1.16984
 Alpha  occ. eigenvalues --   -1.16425  -1.08855  -1.08461  -1.07346  -1.07007
 Alpha  occ. eigenvalues --   -1.06830  -1.06730  -1.04728  -1.04206  -1.03889
 Alpha  occ. eigenvalues --   -1.03414  -1.03372  -1.02812  -1.02548  -1.01874
 Alpha  occ. eigenvalues --   -0.92147  -0.91740  -0.89613  -0.89354  -0.89296
 Alpha  occ. eigenvalues --   -0.88705  -0.88371  -0.88045  -0.88022  -0.87815
 Alpha  occ. eigenvalues --   -0.87572  -0.87401  -0.87398  -0.86921  -0.85149
 Alpha  occ. eigenvalues --   -0.84647  -0.84023  -0.83721  -0.83076  -0.82815
 Alpha  occ. eigenvalues --   -0.82772  -0.82339  -0.81812  -0.81358  -0.80772
 Alpha  occ. eigenvalues --   -0.80203  -0.78931  -0.78412  -0.77350  -0.77110
 Alpha  occ. eigenvalues --   -0.76888  -0.76589  -0.76104  -0.75475  -0.75005
 Alpha  occ. eigenvalues --   -0.74617  -0.72910  -0.72451  -0.71815  -0.71294
 Alpha  occ. eigenvalues --   -0.69954  -0.69587  -0.69035  -0.68500  -0.67797
 Alpha  occ. eigenvalues --   -0.67394  -0.67379  -0.66912  -0.65462  -0.65029
 Alpha  occ. eigenvalues --   -0.64946  -0.64777  -0.64523  -0.64376  -0.64367
 Alpha  occ. eigenvalues --   -0.64003  -0.62535  -0.62055  -0.60562  -0.60146
 Alpha  occ. eigenvalues --   -0.59964  -0.59431  -0.59135  -0.58750  -0.58661
 Alpha  occ. eigenvalues --   -0.58193  -0.57824  -0.57443  -0.57329  -0.57044
 Alpha  occ. eigenvalues --   -0.56476  -0.56232  -0.55963  -0.55675  -0.55644
 Alpha  occ. eigenvalues --   -0.55488  -0.55225  -0.55063  -0.54699  -0.54298
 Alpha  occ. eigenvalues --   -0.54070  -0.53500  -0.53437  -0.53393  -0.53118
 Alpha  occ. eigenvalues --   -0.53012  -0.52897  -0.52891  -0.52644  -0.52479
 Alpha  occ. eigenvalues --   -0.52381  -0.52239  -0.52077  -0.51793  -0.51685
 Alpha  occ. eigenvalues --   -0.51356  -0.51347  -0.50960  -0.50680  -0.50286
 Alpha  occ. eigenvalues --   -0.50119  -0.50039  -0.49763  -0.49681  -0.49629
 Alpha  occ. eigenvalues --   -0.49389  -0.49268  -0.49199  -0.48940  -0.48793
 Alpha  occ. eigenvalues --   -0.48713  -0.48616  -0.48566  -0.48263  -0.48211
 Alpha  occ. eigenvalues --   -0.48124  -0.47840  -0.47435  -0.47324  -0.46927
 Alpha  occ. eigenvalues --   -0.46899  -0.46733  -0.46507  -0.46452  -0.46310
 Alpha  occ. eigenvalues --   -0.46184  -0.46047  -0.46024  -0.45891  -0.45573
 Alpha  occ. eigenvalues --   -0.45297  -0.45039  -0.44769  -0.44638  -0.44298
 Alpha  occ. eigenvalues --   -0.44294  -0.44223  -0.44181  -0.44177  -0.43890
 Alpha  occ. eigenvalues --   -0.43767  -0.43712  -0.43689  -0.43525  -0.43318
 Alpha  occ. eigenvalues --   -0.43179  -0.43091  -0.42987  -0.42735  -0.42710
 Alpha  occ. eigenvalues --   -0.42657  -0.42368  -0.42124  -0.41861  -0.41738
 Alpha  occ. eigenvalues --   -0.41693  -0.41426  -0.41285  -0.41148  -0.41013
 Alpha  occ. eigenvalues --   -0.40960  -0.40680  -0.40659  -0.40520  -0.40423
 Alpha  occ. eigenvalues --   -0.40405  -0.40197  -0.39889  -0.39475  -0.39260
 Alpha  occ. eigenvalues --   -0.38564  -0.38147  -0.37941  -0.37440  -0.37423
 Alpha  occ. eigenvalues --   -0.37341  -0.37036  -0.36996  -0.36877  -0.36562
 Alpha  occ. eigenvalues --   -0.36361  -0.35987  -0.34433  -0.34109  -0.34004
 Alpha  occ. eigenvalues --   -0.33642  -0.33338  -0.32931  -0.31475  -0.31183
 Alpha  occ. eigenvalues --   -0.31129  -0.30720  -0.30246  -0.29754  -0.29592
 Alpha  occ. eigenvalues --   -0.29478  -0.29116  -0.28991  -0.24223  -0.23785
 Alpha  occ. eigenvalues --   -0.21264  -0.20867
 Alpha virt. eigenvalues --   -0.08916  -0.08558  -0.01880  -0.01451  -0.00204
 Alpha virt. eigenvalues --    0.00201   0.02028   0.02405   0.02844   0.03510
 Alpha virt. eigenvalues --    0.04559   0.04770   0.05055   0.05387   0.05961

 Mulliken charges:
               1
     1  Mg   0.838992
     2  C   -0.003985
     3  C   -0.093803
     4  C   -0.045612
     5  C   -0.063546
     6  N   -0.256895
     7  C   -0.052567
     8  C   -0.014131
     9  C   -0.087130
    10  C    0.046458
    11  C    0.104703
    12  C    0.053441
    13  C   -0.071333
    14  H    0.033654
    15  N   -0.433245
    16  C    0.168857
    17  C   -0.176685
    18  C   -0.003763
    19  C    0.148975
    20  C    0.109994
    21  C    0.012093
    22  O   -0.249380
    23  C    0.062334
    24  N   -0.341249
    25  C    0.041665
    26  C   -0.028298
    27  C   -0.024071
    28  C    0.074926
    29  C    0.076080
    30  C    0.034966
    31  C   -0.005065
    32  N   -0.310161
    33  C    0.079858
    34  C   -0.170407
    35  C    0.007703
    36  C    0.082312
    37  C    0.127543
    38  C    0.044667
    39  O   -0.189659
    40  C   -0.004929
    41  C    0.213363
    42  O   -0.260687
    43  O   -0.303772
    44  C    0.158395
    45  H   -0.017236
    46  H   -0.016442
    47  H   -0.040868
    48  H    0.000777
    49  H   -0.003667
    50  H    0.025462
    51  H    0.016800
    52  H    0.017023
    53  H    0.012279
    54  H    0.042046
    55  H    0.018388
    56  H    0.019045
    57  H    0.006240
    58  H    0.027121
    59  H    0.040453
    60  H    0.037829
    61  H    0.035560
    62  H    0.031581
    63  H    0.016929
    64  H    0.009701
    65  H    0.023614
    66  H    0.012351
    67  H    0.005146
    68  H    0.007205
    69  H    0.005338
    70  H    0.008393
    71  H    0.021128
    72  H    0.027884
    73  H    0.046239
    74  H    0.009979
    75  H    0.046338
    76  H    0.035652
    77  H    0.043496
    78  H    0.046987
    79  H    0.050711
    80  Mg   0.837326
    81  C   -0.016970
    82  C   -0.086758
    83  C   -0.046550
    84  C   -0.064994
    85  N   -0.255044
    86  C   -0.048923
    87  C   -0.015333
    88  C   -0.090201
    89  C    0.044965
    90  C    0.113405
    91  C    0.062380
    92  C   -0.077532
    93  H    0.032987
    94  N   -0.423603
    95  C    0.162559
    96  C   -0.173741
    97  C   -0.008948
    98  C    0.152668
    99  C    0.099414
   100  C    0.014914
   101  O   -0.254503
   102  C    0.061465
   103  N   -0.350204
   104  C    0.037586
   105  C   -0.019598
   106  C   -0.035062
   107  C    0.088792
   108  C    0.073898
   109  C    0.034947
   110  C   -0.007534
   111  N   -0.323972
   112  C    0.078155
   113  C   -0.163568
   114  C    0.001857
   115  C    0.096129
   116  C    0.131616
   117  C    0.041492
   118  O   -0.189201
   119  C    0.001415
   120  C    0.211284
   121  O   -0.251307
   122  O   -0.305443
   123  C    0.152237
   124  H   -0.014381
   125  H   -0.017106
   126  H   -0.040864
   127  H   -0.000302
   128  H   -0.004212
   129  H    0.019939
   130  H    0.017654
   131  H    0.027692
   132  H    0.013322
   133  H    0.036479
   134  H    0.022179
   135  H    0.019985
   136  H    0.010761
   137  H    0.025309
   138  H    0.038847
   139  H    0.037692
   140  H    0.035298
   141  H    0.034093
   142  H    0.013792
   143  H    0.013037
   144  H    0.023334
   145  H    0.010607
   146  H    0.005472
   147  H    0.005339
   148  H    0.003767
   149  H    0.010390
   150  H    0.017527
   151  H    0.030562
   152  H    0.045341
   153  H    0.008373
   154  H    0.046235
   155  H    0.034775
   156  H    0.043186
   157  H    0.050199
   158  H    0.053093
 Sum of Mulliken charges =  -0.00000

 Dipole moment (field-independent basis, Debye):
    X=             -5.5676    Y=              1.1473    Z=              4.6370  Tot=              7.3360
 Quadrupole moment (field-independent basis, Debye-Ang):
   XX=           -518.9157   YY=           -505.5127   ZZ=           -495.1757
   XY=            -20.7023   XZ=              0.7808   YZ=             -8.9213

 Normal termination of Gaussian 16 at Thu Aug 19 23:25:26 2021.
