 Gaussian 16, Revision A.03,
 Gaussian 16:  ES64L-G16RevA.03 25-Dec-2016

 -----------------------------------
 #p cam-b3lyp/Def2SVP td=(nstates=5)
 -----------------------------------

 --------------------------------
 TDDFT excited states in gaussian
 --------------------------------
 Symbolic Z-matrix:
 Charge =  0 Multiplicity = 1

                         Standard orientation:
 ---------------------------------------------------------------------
 Center     Atomic      Atomic             Coordinates (Angstroms)
 Number     Number       Type             X           Y           Z
 ---------------------------------------------------------------------
      1         12           0        4.142972   -1.558137    0.141432
      2          6           0        5.365705    1.389686   -1.479516
      3          6           0        5.621194   -0.420171    2.998521
      4          6           0        3.467782   -4.354816    1.475348
      5          6           0        3.764121   -2.963641   -3.025064
      6          7           0        5.314762    0.268469    0.578537
      7          6           0        5.661626    1.348089   -0.115204
      8          6           0        6.302975    2.465601    0.760702
      9          6           0        6.830834    1.567554    1.967713
     10          6           0        5.842339    0.419268    1.866501
     11          6           0        8.239377    1.023599    1.751794
     12          6           0        5.250069    3.517530    1.247084
     13          6           0        5.835807    4.807987    1.827587
     14          1           0        5.138123    6.062626    1.589962
     15          7           0        4.057556   -2.082747    2.044151
     16          6           0        4.712061   -1.497380    3.075777
     17          6           0        4.320547   -2.250429    4.286692
     18          6           0        3.535008   -3.437951    3.849868
     19          6           0        3.679491   -3.352477    2.419065
     20          6           0        4.648574   -1.800594    5.677302
     21          6           0        2.783530   -4.489736    4.602968
     22          8           0        2.366693   -5.560618    4.042580
     23          6           0        2.623031   -4.271896    6.052046
     24          7           0        3.887735   -3.478097   -0.637186
     25          6           0        3.542353   -4.502070    0.150960
     26          6           0        3.142896   -5.701697   -0.656051
     27          6           0        3.053906   -5.205541   -2.171196
     28          6           0        3.523832   -3.743865   -1.968854
     29          6           0        4.084880   -6.910484   -0.569378
     30          6           0        1.717980   -5.454486   -2.915338
     31          6           0        0.624491   -4.607221   -2.304175
     32          7           0        4.323699   -0.870755   -1.909394
     33          6           0        4.142315   -1.632269   -3.072954
     34          6           0        4.477999   -0.762433   -4.215218
     35          6           0        4.849688    0.447441   -3.632211
     36          6           0        4.777555    0.331986   -2.214552
     37          6           0        4.473109   -1.146850   -5.585121
     38          6           0        5.314653    1.803203   -3.876287
     39          8           0        5.471512    2.498460   -4.881029
     40          6           0        5.784221    2.429179   -2.489388
     41          6           0        5.175412    3.800595   -2.380388
     42          8           0        3.941214    3.945365   -2.265661
     43          8           0        6.148216    4.704974   -2.189881
     44          6           0        5.609398    6.083583   -2.044050
     45          1           0        6.239472   -0.281156    3.887536
     46          1           0        3.125318   -5.305452    1.889409
     47          1           0        3.588432   -3.307048   -4.046170
     48          1           0        7.137607    2.987450    0.292209
     49          1           0        6.726815    2.073635    2.927288
     50          1           0        8.598938    1.237052    0.745278
     51          1           0        8.162995   -0.052549    1.908528
     52          1           0        8.918700    1.391013    2.521406
     53          1           0        4.738588    3.132654    2.129307
     54          1           0        4.554340    3.766296    0.444960
     55          1           0        6.894682    4.908352    1.587546
     56          1           0        5.810196    4.735799    2.914938
     57          1           0        5.373498   -0.987559    5.674697
     58          1           0        5.167546   -2.625681    6.164752
     59          1           0        3.755565   -1.540769    6.245948
     60          1           0        3.606789   -4.193460    6.515314
     61          1           0        1.984278   -5.079202    6.408559
     62          1           0        2.131220   -3.312033    6.212466
     63          1           0        2.168331   -6.075541   -0.344781
     64          1           0        3.803137   -5.683499   -2.802768
     65          1           0        3.594068   -7.825040   -0.235618
     66          1           0        4.911303   -6.647112    0.090131
     67          1           0        4.611849   -7.146503   -1.493507
     68          1           0        1.413750   -6.495340   -2.810396
     69          1           0        1.770524   -5.230123   -3.980773
     70          1           0        0.297002   -5.207257   -1.455918
     71          1           0       -0.188014   -4.462680   -3.017025
     72          1           0        1.020103   -3.671720   -1.908176
     73          1           0        4.004122   -0.327709   -6.130123
     74          1           0        3.932257   -2.081436   -5.732199
     75          1           0        5.542304   -1.249632   -5.769824
     76          1           0        6.872884    2.465367   -2.514396
     77          1           0        6.100532    6.701367   -2.795957
     78          1           0        5.741954    6.359010   -0.997640
     79          1           0        4.562291    6.223047   -2.315077
     80         12           0       -4.303563    1.536367    0.513592
     81          6           0       -5.304342   -1.628038   -0.851699
     82          6           0       -3.204885    2.366540   -2.607041
     83          6           0       -3.006890    4.144493    1.772069
     84          6           0       -4.419229    0.055756    3.666380
     85          7           0       -4.309684    0.428253   -1.400645
     86          6           0       -4.771933   -0.742807   -1.812082
     87          6           0       -4.730601   -0.946112   -3.350435
     88          6           0       -3.556104    0.092212   -3.698741
     89          6           0       -3.715650    1.047003   -2.517388
     90          6           0       -2.168555   -0.523803   -3.630980
     91          6           0       -6.079072   -0.541592   -4.043264
     92          6           0       -6.218953   -1.001635   -5.496031
     93          1           0       -7.539362   -1.400060   -5.975886
     94          7           0       -3.708442    3.220349   -0.351626
     95          6           0       -3.319716    3.383249   -1.633672
     96          6           0       -2.959757    4.803340   -1.767597
     97          6           0       -3.010640    5.429401   -0.418461
     98          6           0       -3.228488    4.258656    0.407369
     99          6           0       -2.690092    5.452849   -3.093810
    100          6           0       -2.871789    6.845597    0.051966
    101          8           0       -2.712514    7.130875    1.291356
    102          6           0       -2.834109    7.881892   -0.990232
    103          7           0       -3.582268    1.976476    2.413160
    104          6           0       -3.119701    3.203650    2.709839
    105          6           0       -2.914645    3.364431    4.197275
    106          6           0       -3.567622    2.065643    4.863861
    107          6           0       -3.975909    1.302720    3.584540
    108          6           0       -1.463358    3.497656    4.658171
    109          6           0       -4.643799    2.302019    5.958695
    110          6           0       -5.879358    2.918521    5.343300
    111          7           0       -4.946779   -0.363250    1.317182
    112          6           0       -4.883481   -0.785407    2.663238
    113          6           0       -5.329179   -2.193422    2.699342
    114          6           0       -5.601059   -2.502219    1.357994
    115          6           0       -5.323782   -1.373070    0.540915
    116          6           0       -5.391897   -3.016658    3.858854
    117          6           0       -6.049458   -3.529959    0.446190
    118          8           0       -6.504554   -4.665920    0.573504
    119          6           0       -5.756825   -3.049405   -1.040360
    120          6           0       -6.996746   -3.287291   -1.857982
    121          8           0       -8.042186   -2.657743   -1.618509
    122          8           0       -6.684610   -4.053529   -2.919036
    123          6           0       -7.879941   -4.308012   -3.766519
    124          1           0       -2.623911    2.639214   -3.488518
    125          1           0       -2.664199    5.053526    2.271777
    126          1           0       -4.576653   -0.446206    4.623421
    127          1           0       -4.452058   -1.943286   -3.669536
    128          1           0       -3.750253    0.608564   -4.635242
    129          1           0       -2.193568   -1.531382   -3.243300
    130          1           0       -1.593006    0.118786   -2.977616
    131          1           0       -1.683960   -0.469886   -4.610047
    132          1           0       -6.094833    0.546272   -4.188324
    133          1           0       -6.919173   -0.886621   -3.472470
    134          1           0       -5.469094   -1.756016   -5.763533
    135          1           0       -5.994136   -0.156289   -6.150905
    136          1           0       -2.563922    4.707326   -3.888589
    137          1           0       -1.711043    5.938347   -3.018892
    138          1           0       -3.438246    6.204468   -3.354602
    139          1           0       -2.003559    7.686145   -1.664273
    140          1           0       -2.821507    8.833679   -0.455620
    141          1           0       -3.749014    7.809480   -1.588823
    142          1           0       -3.427933    4.244209    4.565555
    143          1           0       -2.814285    1.446100    5.372272
    144          1           0       -1.271174    4.423248    5.232989
    145          1           0       -0.823025    3.450980    3.787346
    146          1           0       -1.092833    2.671004    5.261968
    147          1           0       -4.278108    3.015276    6.701449
    148          1           0       -4.924695    1.399011    6.490345
    149          1           0       -5.631117    3.983430    5.305508
    150          1           0       -6.750266    2.738266    5.970264
    151          1           0       -6.018077    2.575550    4.311424
    152          1           0       -6.328470   -3.555827    3.807597
    153          1           0       -5.321549   -2.426156    4.769970
    154          1           0       -4.506794   -3.639456    3.703980
    155          1           0       -4.906645   -3.624508   -1.409187
    156          1           0       -7.979411   -5.393783   -3.860850
    157          1           0       -7.713435   -3.734648   -4.697795
    158          1           0       -8.848507   -4.041431   -3.359987
 ---------------------------------------------------------------------

 SCF Done:  E(RCAM-B3LYP) =  -4069.81222931     A.U. after   19 cycles

 Excitation energies and oscillator strengths:

 Excited State   1:      Singlet-A      1.6562 eV  748.59 nm  f=0.1222  <S**2>=0.000
     309 -> 315        0.11513
     310 -> 316        0.12312
     311 -> 313        0.46641
     312 -> 314        0.50434
 This state for optimization and/or second-order correction.
 Total Energy, E(TD-HF/TD-DFT) =  -4069.75136409
 Copying the excited state density for this state as the 1-particle RhoCI density.

 Excited State   2:      Singlet-A      1.6946 eV  731.65 nm  f=0.5578  <S**2>=0.000
     309 -> 315        0.13152
     310 -> 316       -0.12115
     311 -> 313        0.50258
     312 -> 314       -0.46499

 Excited State   3:      Singlet-A      2.1855 eV  567.30 nm  f=0.0478  <S**2>=0.000
     309 -> 313        0.31197
     310 -> 314        0.56275
     311 -> 315       -0.13063
     312 -> 316       -0.23737

 Excited State   4:      Singlet-A      2.1941 eV  565.09 nm  f=0.1403  <S**2>=0.000
     309 -> 313        0.56002
     310 -> 314       -0.30913
     311 -> 315       -0.24448
     312 -> 316        0.13551

 Excited State   5:      Singlet-A      2.3404 eV  529.75 nm  f=0.0000  <S**2>=0.000
     312 -> 313        0.70708

 The electronic state is 1-A.
 Alpha  occ. eigenvalues --  -46.87914 -46.87435 -19.26450 -19.26210 -19.19204
 Alpha  occ. eigenvalues --  -19.19004 -19.18903 -19.18492 -19.18337 -19.17837
 Alpha  occ. eigenvalues --  -14.42562 -14.42264 -14.41564 -14.41150 -14.39518
 Alpha  occ. eigenvalues --  -14.39115 -14.38719 -14.38376 -10.39256 -10.38932
 Alpha  occ. eigenvalues --  -10.35535 -10.35168 -10.34556 -10.34019 -10.31838
 Alpha  occ. eigenvalues --  -10.31641 -10.31531 -10.31066 -10.31012 -10.30775
 Alpha  occ. eigenvalues --  -10.30707 -10.30634 -10.30312 -10.30186 -10.30121
 Alpha  occ. eigenvalues --  -10.30041 -10.29929 -10.29763 -10.29717 -10.29371
 Alpha  occ. eigenvalues --  -10.29187 -10.29169 -10.28833 -10.28564 -10.28495
 Alpha  occ. eigenvalues --  -10.28489 -10.28485 -10.28208 -10.28161 -10.27930
 Alpha  occ. eigenvalues --  -10.27878 -10.27843 -10.27754 -10.27709 -10.27603
 Alpha  occ. eigenvalues --  -10.27593 -10.27531 -10.27524 -10.27414 -10.27394
 Alpha  occ. eigenvalues --  -10.27308 -10.27280 -10.27261 -10.27217 -10.27070
 Alpha  occ. eigenvalues --  -10.26857 -10.26760 -10.26495 -10.26494 -10.26322
 Alpha  occ. eigenvalues --  -10.26303 -10.26176 -10.26146 -10.26063 -10.26047
 Alpha  occ. eigenvalues --  -10.25728 -10.25709 -10.25641 -10.25495 -10.25371
 Alpha  occ. eigenvalues --  -10.24976 -10.24897 -10.24840 -10.24646 -10.24634
 Alpha  occ. eigenvalues --  -10.24482  -3.16656  -3.16185  -1.91538  -1.91124
 Alpha  occ. eigenvalues --   -1.91067  -1.90967  -1.90656  -1.90493  -1.16801
 Alpha  occ. eigenvalues --   -1.16499  -1.08800  -1.08452  -1.07300  -1.06824
 Alpha  occ. eigenvalues --   -1.06789  -1.06746  -1.04695  -1.04259  -1.03874
 Alpha  occ. eigenvalues --   -1.03439  -1.03358  -1.02823  -1.02533  -1.01889
 Alpha  occ. eigenvalues --   -0.92105  -0.91768  -0.89638  -0.89325  -0.89279
 Alpha  occ. eigenvalues --   -0.88911  -0.88393  -0.88077  -0.88026  -0.87782
 Alpha  occ. eigenvalues --   -0.87568  -0.87452  -0.87387  -0.86844  -0.85076
 Alpha  occ. eigenvalues --   -0.84775  -0.84052  -0.83751  -0.83070  -0.82752
 Alpha  occ. eigenvalues --   -0.82709  -0.82426  -0.81724  -0.81412  -0.80720
 Alpha  occ. eigenvalues --   -0.80236  -0.78922  -0.78375  -0.77334  -0.77041
 Alpha  occ. eigenvalues --   -0.76927  -0.76715  -0.76043  -0.75610  -0.75004
 Alpha  occ. eigenvalues --   -0.74657  -0.72903  -0.72475  -0.71783  -0.71378
 Alpha  occ. eigenvalues --   -0.70023  -0.69635  -0.68976  -0.68604  -0.67761
 Alpha  occ. eigenvalues --   -0.67390  -0.67303  -0.66981  -0.65391  -0.65056
 Alpha  occ. eigenvalues --   -0.64981  -0.64736  -0.64566  -0.64457  -0.64383
 Alpha  occ. eigenvalues --   -0.64041  -0.62442  -0.62106  -0.60552  -0.60109
 Alpha  occ. eigenvalues --   -0.59909  -0.59560  -0.59108  -0.58786  -0.58630
 Alpha  occ. eigenvalues --   -0.58221  -0.57737  -0.57430  -0.57362  -0.57047
 Alpha  occ. eigenvalues --   -0.56443  -0.56114  -0.55973  -0.55701  -0.55636
 Alpha  occ. eigenvalues --   -0.55467  -0.55231  -0.55102  -0.54660  -0.54348
 Alpha  occ. eigenvalues --   -0.53987  -0.53681  -0.53421  -0.53331  -0.53047
 Alpha  occ. eigenvalues --   -0.53024  -0.52924  -0.52856  -0.52697  -0.52564
 Alpha  occ. eigenvalues --   -0.52402  -0.52279  -0.52091  -0.51718  -0.51670
 Alpha  occ. eigenvalues --   -0.51427  -0.51327  -0.51004  -0.50676  -0.50215
 Alpha  occ. eigenvalues --   -0.50140  -0.50020  -0.49762  -0.49673  -0.49620
 Alpha  occ. eigenvalues --   -0.49348  -0.49257  -0.49204  -0.48963  -0.48883
 Alpha  occ. eigenvalues --   -0.48724  -0.48576  -0.48552  -0.48349  -0.48228
 Alpha  occ. eigenvalues --   -0.48105  -0.47805  -0.47410  -0.47372  -0.46916
 Alpha  occ. eigenvalues --   -0.46888  -0.46650  -0.46509  -0.46486  -0.46332
 Alpha  occ. eigenvalues --   -0.46294  -0.46049  -0.45971  -0.45911  -0.45636
 Alpha  occ. eigenvalues --   -0.45306  -0.45065  -0.44723  -0.44607  -0.44320
 Alpha  occ. eigenvalues --   -0.44268  -0.44252  -0.44194  -0.44136  -0.43921
 Alpha  occ. eigenvalues --   -0.43880  -0.43705  -0.43642  -0.43485  -0.43384
 Alpha  occ. eigenvalues --   -0.43182  -0.43149  -0.42848  -0.42779  -0.42761
 Alpha  occ. eigenvalues --   -0.42710  -0.42379  -0.42130  -0.41829  -0.41799
 Alpha  occ. eigenvalues --   -0.41625  -0.41465  -0.41257  -0.41246  -0.40965
 Alpha  occ. eigenvalues --   -0.40908  -0.40778  -0.40678  -0.40519  -0.40485
 Alpha  occ. eigenvalues --   -0.40331  -0.40299  -0.40022  -0.39555  -0.39308
 Alpha  occ. eigenvalues --   -0.38565  -0.38207  -0.37829  -0.37451  -0.37428
 Alpha  occ. eigenvalues --   -0.37363  -0.37089  -0.36969  -0.36865  -0.36623
 Alpha  occ. eigenvalues --   -0.36320  -0.36048  -0.34409  -0.34037  -0.33945
 Alpha  occ. eigenvalues --   -0.33692  -0.33314  -0.32951  -0.31432  -0.31152
 Alpha  occ. eigenvalues --   -0.31056  -0.30753  -0.30197  -0.29747  -0.29575
 Alpha  occ. eigenvalues --   -0.29462  -0.29075  -0.28974  -0.24201  -0.23810
 Alpha  occ. eigenvalues --   -0.21250  -0.20885
 Alpha virt. eigenvalues --   -0.08899  -0.08552  -0.01862  -0.01466  -0.00169
 Alpha virt. eigenvalues --    0.00220   0.02054   0.02409   0.02838   0.03491
 Alpha virt. eigenvalues --    0.04620   0.04928   0.04957   0.05331   0.06112

 Mulliken charges:
               1
     1  Mg   0.838984
     2  C   -0.002978
     3  C   -0.094089
     4  C   -0.045444
     5  C   -0.064433
     6  N   -0.256929
     7  C   -0.052240
     8  C   -0.014151
     9  C   -0.087063
    10  C    0.046743
    11  C    0.104740
    12  C    0.053439
    13  C   -0.072435
    14  H    0.037671
    15  N   -0.433282
    16  C    0.168833
    17  C   -0.177067
    18  C   -0.003615
    19  C    0.149137
    20  C    0.110164
    21  C    0.012620
    22  O   -0.248428
    23  C    0.062414
    24  N   -0.341182
    25  C    0.041381
    26  C   -0.028611
    27  C   -0.023924
    28  C    0.074756
    29  C    0.075942
    30  C    0.035062
    31  C   -0.006394
    32  N   -0.310096
    33  C    0.079776
    34  C   -0.171389
    35  C    0.007767
    36  C    0.082339
    37  C    0.127711
    38  C    0.044948
    39  O   -0.189610
    40  C   -0.004904
    41  C    0.212718
    42  O   -0.258339
    43  O   -0.304416
    44  C    0.158155
    45  H   -0.017241
    46  H   -0.015989
    47  H   -0.042120
    48  H    0.000865
    49  H   -0.003660
    50  H    0.025486
    51  H    0.016462
    52  H    0.017000
    53  H    0.011543
    54  H    0.044145
    55  H    0.017561
    56  H    0.018283
    57  H    0.006162
    58  H    0.027330
    59  H    0.039312
    60  H    0.037498
    61  H    0.036389
    62  H    0.030795
    63  H    0.017743
    64  H    0.009609
    65  H    0.024175
    66  H    0.012555
    67  H    0.004833
    68  H    0.007787
    69  H    0.003638
    70  H    0.011635
    71  H    0.016734
    72  H    0.028730
    73  H    0.045567
    74  H    0.008571
    75  H    0.046508
    76  H    0.035460
    77  H    0.042783
    78  H    0.047492
    79  H    0.052281
    80  Mg   0.837613
    81  C   -0.016677
    82  C   -0.085980
    83  C   -0.045085
    84  C   -0.065405
    85  N   -0.254515
    86  C   -0.050131
    87  C   -0.014838
    88  C   -0.090867
    89  C    0.044741
    90  C    0.112881
    91  C    0.062625
    92  C   -0.077519
    93  H    0.034062
    94  N   -0.424072
    95  C    0.162414
    96  C   -0.170355
    97  C   -0.007684
    98  C    0.153216
    99  C    0.098028
   100  C    0.016102
   101  O   -0.254456
   102  C    0.060889
   103  N   -0.350022
   104  C    0.037534
   105  C   -0.019645
   106  C   -0.034389
   107  C    0.088582
   108  C    0.074148
   109  C    0.035038
   110  C   -0.007524
   111  N   -0.323945
   112  C    0.077887
   113  C   -0.163352
   114  C    0.002243
   115  C    0.095732
   116  C    0.131276
   117  C    0.042246
   118  O   -0.188766
   119  C    0.000900
   120  C    0.211221
   121  O   -0.251142
   122  O   -0.305878
   123  C    0.152144
   124  H   -0.015273
   125  H   -0.016425
   126  H   -0.041660
   127  H   -0.001949
   128  H   -0.004025
   129  H    0.021375
   130  H    0.018457
   131  H    0.017085
   132  H    0.014047
   133  H    0.037274
   134  H    0.020116
   135  H    0.019961
   136  H    0.010562
   137  H    0.031023
   138  H    0.038510
   139  H    0.039979
   140  H    0.035117
   141  H    0.033583
   142  H    0.013965
   143  H    0.010573
   144  H    0.023877
   145  H    0.012636
   146  H    0.003155
   147  H    0.005021
   148  H    0.003133
   149  H    0.010641
   150  H    0.017495
   151  H    0.030865
   152  H    0.045332
   153  H    0.007369
   154  H    0.047965
   155  H    0.034542
   156  H    0.043309
   157  H    0.049432
   158  H    0.053454
 Sum of Mulliken charges =  -0.00000

 Dipole moment (field-independent basis, Debye):
    X=              5.0920    Y=              1.6044    Z=              0.9552  Tot=              5.4236
 Quadrupole moment (field-independent basis, Debye-Ang):
   XX=           -524.8406   YY=           -528.5175   ZZ=           -466.6228
   XY=            -15.4011   XZ=             43.8572   YZ=             21.0192

 Normal termination of Gaussian 16 at Thu Aug 19 18:15:22 2021.
