 Gaussian 16, Revision A.03,
 Gaussian 16:  ES64L-G16RevA.03 25-Dec-2016

 -----------------------------------
 #p cam-b3lyp/Def2SVP td=(nstates=5)
 -----------------------------------

 --------------------------------
 TDDFT excited states in gaussian
 --------------------------------
 Symbolic Z-matrix:
 Charge =  0 Multiplicity = 1

                         Standard orientation:
 ---------------------------------------------------------------------
 Center     Atomic      Atomic             Coordinates (Angstroms)
 Number     Number       Type             X           Y           Z
 ---------------------------------------------------------------------
      1         12           0       -4.442025   -0.587205    0.202355
      2          6           0       -4.485699    2.990172    0.314964
      3          6           0       -5.400852   -0.347727   -3.063585
      4          6           0       -4.850716   -3.731976    0.204881
      5          6           0       -4.602998   -0.551628    3.683516
      6          7           0       -4.856794    1.156254   -1.097246
      7          6           0       -4.778780    2.475087   -0.949724
      8          6           0       -4.963552    3.258010   -2.283990
      9          6           0       -5.788313    2.167249   -3.103751
     10          6           0       -5.293889    0.913072   -2.404816
     11          6           0       -7.297730    2.273824   -2.911906
     12          6           0       -3.597439    3.583037   -2.976682
     13          6           0       -3.666039    4.618193   -4.103226
     14          1           0       -2.553649    5.540252   -4.275692
     15          7           0       -4.560320   -1.864993   -1.299682
     16          6           0       -4.954266   -1.591301   -2.566641
     17          6           0       -4.871154   -2.870081   -3.304539
     18          6           0       -4.579147   -3.946683   -2.317749
     19          6           0       -4.678951   -3.218781   -1.078565
     20          6           0       -5.012530   -2.972286   -4.792261
     21          6           0       -4.271018   -5.402997   -2.467207
     22          8           0       -4.278268   -6.205398   -1.471881
     23          6           0       -4.044287   -5.888951   -3.840337
     24          7           0       -4.912749   -1.956797    1.705775
     25          6           0       -4.971767   -3.268424    1.450558
     26          6           0       -5.042247   -4.068543    2.717358
     27          6           0       -4.773180   -3.037747    3.906818
     28          6           0       -4.670139   -1.736857    3.072949
     29          6           0       -6.364399   -4.806019    2.970445
     30          6           0       -3.622306   -3.379099    4.886301
     31          6           0       -2.294358   -3.292785    4.167828
     32          7           0       -4.351851    0.922323    1.759352
     33          6           0       -4.462365    0.715176    3.141940
     34          6           0       -4.450582    2.044298    3.780191
     35          6           0       -4.350064    2.938842    2.716457
     36          6           0       -4.328540    2.215569    1.489793
     37          6           0       -4.585340    2.301084    5.173150
     38          6           0       -4.280654    4.338563    2.329390
     39          8           0       -4.167489    5.402505    2.939895
     40          6           0       -4.488459    4.433528    0.753438
     41          6           0       -3.416198    5.336406    0.207198
     42          8           0       -2.216089    4.995564    0.237685
     43          8           0       -3.986348    6.342286   -0.473740
     44          6           0       -2.976541    7.259045   -1.067033
     45          1           0       -5.925783   -0.400995   -4.019383
     46          1           0       -4.884595   -4.822101    0.258906
     47          1           0       -4.564592   -0.465740    4.770991
     48          1           0       -5.545341    4.175694   -2.195651
     49          1           0       -5.506575    2.150498   -4.156398
     50          1           0       -7.550950    3.001309   -2.140826
     51          1           0       -7.624722    1.276646   -2.616600
     52          1           0       -7.794749    2.483807   -3.859353
     53          1           0       -3.266146    2.713225   -3.543897
     54          1           0       -2.857421    3.899548   -2.240802
     55          1           0       -4.612401    5.159608   -4.089935
     56          1           0       -3.671095    4.087168   -5.055165
     57          1           0       -5.385710   -2.044346   -5.223783
     58          1           0       -5.800630   -3.699118   -4.988019
     59          1           0       -4.087857   -3.294708   -5.271172
     60          1           0       -4.930362   -5.689817   -4.443467
     61          1           0       -3.749771   -6.933459   -3.744870
     62          1           0       -3.232922   -5.314778   -4.288623
     63          1           0       -4.275424   -4.841920    2.734585
     64          1           0       -5.644729   -2.920262    4.551235
     65          1           0       -6.246938   -5.881449    3.105939
     66          1           0       -7.036331   -4.587451    2.140972
     67          1           0       -6.939430   -4.435373    3.818606
     68          1           0       -3.724431   -4.401010    5.249915
     69          1           0       -3.586089   -2.720375    5.754068
     70          1           0       -2.213472   -4.267418    3.687849
     71          1           0       -1.484522   -3.140992    4.882205
     72          1           0       -2.317081   -2.541547    3.378138
     73          1           0       -3.845768    3.064116    5.415604
     74          1           0       -4.427819    1.396211    5.759660
     75          1           0       -5.616469    2.651621    5.215033
     76          1           0       -5.486646    4.839651    0.592789
     77          1           0       -3.203125    8.262566   -0.706702
     78          1           0       -3.000037    7.090779   -2.143852
     79          1           0       -1.951468    7.140283   -0.714243
     80         12           0        4.548984   -0.975941   -0.060426
     81          6           0        4.507874    2.596583    0.277822
     82          6           0        3.597825   -0.530150   -3.305605
     83          6           0        4.138788   -4.115413   -0.267483
     84          6           0        4.371819   -1.168026    3.414837
     85          7           0        4.138276    0.846271   -1.244949
     86          6           0        4.215189    2.150616   -1.027892
     87          6           0        4.043389    3.025363   -2.298661
     88          6           0        3.211768    1.985140   -3.196007
     89          6           0        3.700919    0.679287   -2.572984
     90          6           0        1.709140    2.079353   -2.989656
     91          6           0        5.416983    3.388429   -2.964574
     92          6           0        5.346570    4.489850   -4.024602
     93          1           0        6.466918    5.419630   -4.137726
     94          7           0        4.436173   -2.154077   -1.653494
     95          6           0        4.052732   -1.803787   -2.899100
     96          6           0        4.121116   -3.034485   -3.702136
     97          6           0        4.417626   -4.173217   -2.791045
     98          6           0        4.319638   -3.513744   -1.504348
     99          6           0        3.992549   -3.038382   -5.197756
    100          6           0        4.724368   -5.619522   -3.036554
    101          8           0        4.714758   -6.480489   -2.087085
    102          6           0        4.944538   -6.014715   -4.435429
    103          7           0        4.079626   -2.432430    1.346951
    104          6           0        4.013536   -3.730541    1.002747
    105          6           0        3.935234   -4.615374    2.223945
    106          6           0        4.207367   -3.651699    3.470896
    107          6           0        4.312096   -2.301199    2.728889
    108          6           0        2.610972   -5.350701    2.428863
    109          6           0        5.355744   -4.056125    4.435437
    110          6           0        6.687651   -3.938779    3.730001
    111          7           0        4.641284    0.425348    1.581492
    112          6           0        4.519937    0.135399    2.958193
    113          6           0        4.532339    1.425642    3.677599
    114          6           0        4.637705    2.385526    2.659754
    115          6           0        4.667132    1.740135    1.394015
    116          6           0        4.404356    1.594535    5.085154
    117          6           0        4.720034    3.798535    2.367639
    118          8           0        4.825841    4.820725    3.044148
    119          6           0        4.512238    4.004535    0.805344
    120          6           0        5.587139    4.934099    0.312375
    121          8           0        6.781683    4.589124    0.338042
    122          8           0        5.013550    5.982743   -0.305437
    123          6           0        6.039595    6.927568   -0.821550
    124          1           0        3.082084   -0.512551   -4.266117
    125          1           0        4.102985   -5.207269   -0.275019
    126          1           0        4.419314   -1.147798    4.505707
    127          1           0        3.468792    3.932023   -2.151756
    128          1           0        3.505048    2.042378   -4.241029
    129          1           0        1.454513    2.751443   -2.183679
    130          1           0        1.379835    1.073937   -2.762208
    131          1           0        1.216357    2.353097   -3.926975
    132          1           0        5.745607    2.547580   -3.588854
    133          1           0        6.144110    3.649149   -2.220307
    134          1           0        4.396050    5.035927   -3.989101
    135          1           0        5.350113    4.021892   -5.012027
    136          1           0        3.615104   -2.078587   -5.571554
    137          1           0        3.204589   -3.756581   -5.449092
    138          1           0        4.915741   -3.336791   -5.699100
    139          1           0        4.062388   -5.770960   -5.022679
    140          1           0        5.238024   -7.065648   -4.399475
    141          1           0        5.768273   -5.417536   -4.842179
    142          1           0        4.701629   -5.380237    2.197106
    143          1           0        3.329792   -3.580793    4.130180
    144          1           0        2.727226   -6.448974    2.494821
    145          1           0        1.945014   -5.086835    1.618046
    146          1           0        2.042277   -5.042486    3.304532
    147          1           0        5.251769   -5.103282    4.730041
    148          1           0        5.382934   -3.466638    5.345799
    149          1           0        6.762587   -4.884687    3.185284
    150          1           0        7.495363   -3.833770    4.451541
    151          1           0        6.670432   -3.131759    2.988323
    152          1           0        5.137084    2.334788    5.377799
    153          1           0        4.554056    0.655292    5.613531
    154          1           0        3.368817    1.939677    5.146826
    155          1           0        3.514002    4.419050    0.659485
    156          1           0        5.810291    7.910526   -0.398590
    157          1           0        6.005664    6.832874   -1.923198
    158          1           0        7.061734    6.787739   -0.489701
 ---------------------------------------------------------------------

 SCF Done:  E(RCAM-B3LYP) =  -4069.81132289     A.U. after   19 cycles

 Excitation energies and oscillator strengths:

 Excited State   1:      Singlet-A      1.6475 eV  752.54 nm  f=0.0014  <S**2>=0.000
     309 -> 315       -0.11394
     310 -> 316        0.12168
     311 -> 313       -0.46761
     312 -> 314        0.50428
 This state for optimization and/or second-order correction.
 Total Energy, E(TD-HF/TD-DFT) =  -4069.75077687
 Copying the excited state density for this state as the 1-particle RhoCI density.

 Excited State   2:      Singlet-A      1.7044 eV  727.45 nm  f=0.6980  <S**2>=0.000
     309 -> 315        0.13374
     310 -> 316        0.12274
     311 -> 313        0.50158
     312 -> 314        0.46517

 Excited State   3:      Singlet-A      2.1800 eV  568.73 nm  f=0.0149  <S**2>=0.000
     309 -> 313       -0.31034
     310 -> 314        0.56573
     311 -> 315        0.12801
     312 -> 316       -0.23492

 Excited State   4:      Singlet-A      2.1965 eV  564.47 nm  f=0.1588  <S**2>=0.000
     309 -> 313        0.56062
     310 -> 314        0.30561
     311 -> 315       -0.24756
     312 -> 316       -0.13627

 Excited State   5:      Singlet-A      2.3469 eV  528.28 nm  f=0.0000  <S**2>=0.000
     312 -> 313        0.70709

 The electronic state is 1-A.
 Alpha  occ. eigenvalues --  -46.87901 -46.87428 -19.26393 -19.26075 -19.19134
 Alpha  occ. eigenvalues --  -19.18891 -19.18884 -19.18531 -19.18234 -19.17744
 Alpha  occ. eigenvalues --  -14.42565 -14.42262 -14.41553 -14.41130 -14.39504
 Alpha  occ. eigenvalues --  -14.39125 -14.38684 -14.38354 -10.39192 -10.38810
 Alpha  occ. eigenvalues --  -10.35519 -10.35214 -10.34458 -10.33914 -10.31787
 Alpha  occ. eigenvalues --  -10.31529 -10.31521 -10.31056 -10.31033 -10.30789
 Alpha  occ. eigenvalues --  -10.30673 -10.30598 -10.30311 -10.30157 -10.30115
 Alpha  occ. eigenvalues --  -10.30012 -10.29946 -10.29724 -10.29655 -10.29354
 Alpha  occ. eigenvalues --  -10.29226 -10.29170 -10.28918 -10.28806 -10.28503
 Alpha  occ. eigenvalues --  -10.28466 -10.28460 -10.28268 -10.28158 -10.27884
 Alpha  occ. eigenvalues --  -10.27882 -10.27842 -10.27761 -10.27680 -10.27618
 Alpha  occ. eigenvalues --  -10.27602 -10.27538 -10.27511 -10.27450 -10.27353
 Alpha  occ. eigenvalues --  -10.27345 -10.27252 -10.27246 -10.27233 -10.27180
 Alpha  occ. eigenvalues --  -10.26949 -10.26698 -10.26495 -10.26487 -10.26362
 Alpha  occ. eigenvalues --  -10.26305 -10.26295 -10.26121 -10.25994 -10.25895
 Alpha  occ. eigenvalues --  -10.25719 -10.25688 -10.25590 -10.25510 -10.25192
 Alpha  occ. eigenvalues --  -10.24919 -10.24883 -10.24836 -10.24618 -10.24589
 Alpha  occ. eigenvalues --  -10.24454  -3.16643  -3.16178  -1.91525  -1.91112
 Alpha  occ. eigenvalues --   -1.91060  -1.90953  -1.90649  -1.90485  -1.16742
 Alpha  occ. eigenvalues --   -1.16370  -1.08691  -1.08341  -1.07282  -1.06785
 Alpha  occ. eigenvalues --   -1.06753  -1.06674  -1.04696  -1.04254  -1.03865
 Alpha  occ. eigenvalues --   -1.03430  -1.03332  -1.02809  -1.02511  -1.01874
 Alpha  occ. eigenvalues --   -0.92073  -0.91717  -0.89625  -0.89346  -0.89284
 Alpha  occ. eigenvalues --   -0.88903  -0.88389  -0.88018  -0.87954  -0.87797
 Alpha  occ. eigenvalues --   -0.87545  -0.87461  -0.87374  -0.86938  -0.85131
 Alpha  occ. eigenvalues --   -0.84771  -0.84041  -0.83676  -0.83062  -0.82777
 Alpha  occ. eigenvalues --   -0.82766  -0.82430  -0.81693  -0.81351  -0.80704
 Alpha  occ. eigenvalues --   -0.80210  -0.78897  -0.78429  -0.77342  -0.77068
 Alpha  occ. eigenvalues --   -0.76929  -0.76669  -0.76042  -0.75588  -0.74998
 Alpha  occ. eigenvalues --   -0.74585  -0.72874  -0.72467  -0.71779  -0.71338
 Alpha  occ. eigenvalues --   -0.70021  -0.69576  -0.69009  -0.68602  -0.67743
 Alpha  occ. eigenvalues --   -0.67378  -0.67374  -0.67004  -0.65429  -0.65030
 Alpha  occ. eigenvalues --   -0.64960  -0.64739  -0.64540  -0.64421  -0.64374
 Alpha  occ. eigenvalues --   -0.63995  -0.62402  -0.62032  -0.60540  -0.60142
 Alpha  occ. eigenvalues --   -0.59939  -0.59552  -0.59091  -0.58758  -0.58605
 Alpha  occ. eigenvalues --   -0.58186  -0.57681  -0.57407  -0.57264  -0.57010
 Alpha  occ. eigenvalues --   -0.56409  -0.56098  -0.55981  -0.55647  -0.55619
 Alpha  occ. eigenvalues --   -0.55440  -0.55238  -0.55025  -0.54630  -0.54263
 Alpha  occ. eigenvalues --   -0.54052  -0.53675  -0.53399  -0.53346  -0.53030
 Alpha  occ. eigenvalues --   -0.53017  -0.52919  -0.52874  -0.52676  -0.52554
 Alpha  occ. eigenvalues --   -0.52486  -0.52225  -0.51987  -0.51759  -0.51625
 Alpha  occ. eigenvalues --   -0.51443  -0.51300  -0.50960  -0.50680  -0.50323
 Alpha  occ. eigenvalues --   -0.50146  -0.50027  -0.49769  -0.49669  -0.49634
 Alpha  occ. eigenvalues --   -0.49318  -0.49275  -0.49222  -0.48959  -0.48839
 Alpha  occ. eigenvalues --   -0.48698  -0.48552  -0.48532  -0.48314  -0.48171
 Alpha  occ. eigenvalues --   -0.48125  -0.47811  -0.47401  -0.47382  -0.46922
 Alpha  occ. eigenvalues --   -0.46912  -0.46704  -0.46492  -0.46461  -0.46333
 Alpha  occ. eigenvalues --   -0.46258  -0.46060  -0.45918  -0.45849  -0.45567
 Alpha  occ. eigenvalues --   -0.45301  -0.44990  -0.44673  -0.44632  -0.44274
 Alpha  occ. eigenvalues --   -0.44257  -0.44253  -0.44222  -0.44115  -0.43886
 Alpha  occ. eigenvalues --   -0.43879  -0.43713  -0.43597  -0.43511  -0.43315
 Alpha  occ. eigenvalues --   -0.43152  -0.43130  -0.42803  -0.42766  -0.42689
 Alpha  occ. eigenvalues --   -0.42643  -0.42360  -0.42133  -0.41806  -0.41758
 Alpha  occ. eigenvalues --   -0.41682  -0.41407  -0.41251  -0.41241  -0.41014
 Alpha  occ. eigenvalues --   -0.40930  -0.40749  -0.40681  -0.40536  -0.40490
 Alpha  occ. eigenvalues --   -0.40427  -0.40280  -0.40025  -0.39563  -0.39251
 Alpha  occ. eigenvalues --   -0.38586  -0.38148  -0.37932  -0.37450  -0.37430
 Alpha  occ. eigenvalues --   -0.37403  -0.37055  -0.36970  -0.36821  -0.36522
 Alpha  occ. eigenvalues --   -0.36306  -0.35991  -0.34389  -0.34016  -0.33882
 Alpha  occ. eigenvalues --   -0.33596  -0.33289  -0.32942  -0.31416  -0.31139
 Alpha  occ. eigenvalues --   -0.31088  -0.30733  -0.30095  -0.29643  -0.29541
 Alpha  occ. eigenvalues --   -0.29408  -0.29111  -0.28953  -0.24185  -0.23793
 Alpha  occ. eigenvalues --   -0.21231  -0.20886
 Alpha virt. eigenvalues --   -0.08872  -0.08558  -0.01851  -0.01458  -0.00152
 Alpha virt. eigenvalues --    0.00188   0.02119   0.02468   0.02845   0.03500
 Alpha virt. eigenvalues --    0.04574   0.04944   0.04998   0.05444   0.05954

 Mulliken charges:
               1
     1  Mg   0.838637
     2  C   -0.003403
     3  C   -0.095135
     4  C   -0.045379
     5  C   -0.063815
     6  N   -0.256639
     7  C   -0.052936
     8  C   -0.013788
     9  C   -0.086839
    10  C    0.045918
    11  C    0.104786
    12  C    0.053701
    13  C   -0.071269
    14  H    0.034270
    15  N   -0.433183
    16  C    0.168229
    17  C   -0.177718
    18  C   -0.003746
    19  C    0.148839
    20  C    0.110324
    21  C    0.012984
    22  O   -0.248809
    23  C    0.062506
    24  N   -0.341037
    25  C    0.041071
    26  C   -0.028311
    27  C   -0.024000
    28  C    0.074819
    29  C    0.076054
    30  C    0.035130
    31  C   -0.005146
    32  N   -0.310623
    33  C    0.080588
    34  C   -0.169259
    35  C    0.008856
    36  C    0.083132
    37  C    0.127119
    38  C    0.046650
    39  O   -0.187106
    40  C   -0.005634
    41  C    0.213541
    42  O   -0.257875
    43  O   -0.304699
    44  C    0.157274
    45  H   -0.017805
    46  H   -0.016424
    47  H   -0.041268
    48  H    0.001369
    49  H   -0.004843
    50  H    0.025778
    51  H    0.016790
    52  H    0.016635
    53  H    0.009678
    54  H    0.043315
    55  H    0.019043
    56  H    0.017222
    57  H    0.005349
    58  H    0.027186
    59  H    0.038250
    60  H    0.037064
    61  H    0.036583
    62  H    0.030609
    63  H    0.016794
    64  H    0.009772
    65  H    0.023513
    66  H    0.012656
    67  H    0.004887
    68  H    0.006470
    69  H    0.004844
    70  H    0.009171
    71  H    0.016599
    72  H    0.029952
    73  H    0.048624
    74  H    0.009037
    75  H    0.046244
    76  H    0.035350
    77  H    0.043976
    78  H    0.045413
    79  H    0.054133
    80  Mg   0.837691
    81  C   -0.015725
    82  C   -0.088135
    83  C   -0.045506
    84  C   -0.065256
    85  N   -0.254609
    86  C   -0.048099
    87  C   -0.015193
    88  C   -0.091066
    89  C    0.046111
    90  C    0.112704
    91  C    0.062635
    92  C   -0.077168
    93  H    0.034028
    94  N   -0.423360
    95  C    0.162737
    96  C   -0.175761
    97  C   -0.008143
    98  C    0.151751
    99  C    0.100016
   100  C    0.015154
   101  O   -0.253325
   102  C    0.061480
   103  N   -0.350048
   104  C    0.037264
   105  C   -0.019711
   106  C   -0.034626
   107  C    0.089326
   108  C    0.073374
   109  C    0.034840
   110  C   -0.007557
   111  N   -0.324566
   112  C    0.079304
   113  C   -0.162587
   114  C    0.003968
   115  C    0.096018
   116  C    0.130928
   117  C    0.044362
   118  O   -0.186621
   119  C   -0.000291
   120  C    0.210626
   121  O   -0.252008
   122  O   -0.304613
   123  C    0.152359
   124  H   -0.021490
   125  H   -0.015784
   126  H   -0.041051
   127  H    0.001353
   128  H   -0.006114
   129  H    0.031483
   130  H    0.013178
   131  H    0.012730
   132  H    0.013289
   133  H    0.037604
   134  H    0.020519
   135  H    0.018611
   136  H    0.007628
   137  H    0.024041
   138  H    0.039118
   139  H    0.037168
   140  H    0.035935
   141  H    0.033569
   142  H    0.013939
   143  H    0.011526
   144  H    0.024830
   145  H    0.013147
   146  H    0.004879
   147  H    0.005710
   148  H    0.003226
   149  H    0.010800
   150  H    0.017511
   151  H    0.030426
   152  H    0.045772
   153  H    0.007380
   154  H    0.049298
   155  H    0.041627
   156  H    0.043785
   157  H    0.048601
   158  H    0.053003
 Sum of Mulliken charges =  -0.00000

 Dipole moment (field-independent basis, Debye):
    X=             -4.4925    Y=             -1.8766    Z=             -7.1709  Tot=              8.6675
 Quadrupole moment (field-independent basis, Debye-Ang):
   XX=           -518.6660   YY=           -550.6573   ZZ=           -448.9008
   XY=             -5.8293   XZ=              0.0002   YZ=            -48.0350

 Normal termination of Gaussian 16 at Thu Aug 19 22:39:09 2021.
