 Gaussian 16, Revision A.03,
 Gaussian 16:  ES64L-G16RevA.03 25-Dec-2016

 -----------------------------------
 #p cam-b3lyp/Def2SVP td=(nstates=5)
 -----------------------------------

 --------------------------------
 TDDFT excited states in gaussian
 --------------------------------
 Symbolic Z-matrix:
 Charge =  0 Multiplicity = 1

                         Standard orientation:
 ---------------------------------------------------------------------
 Center     Atomic      Atomic             Coordinates (Angstroms)
 Number     Number       Type             X           Y           Z
 ---------------------------------------------------------------------
      1         12           0       -4.397577    0.636060    0.475201
      2          6           0       -4.805023   -2.396032   -1.382922
      3          6           0       -4.907536   -1.203630    3.303371
      4          6           0       -4.494155    3.358760    2.098224
      5          6           0       -5.047956    2.361982   -2.481801
      6          7           0       -4.793857   -1.518909    0.790977
      7          6           0       -4.866204   -2.584578   -0.000405
      8          6           0       -4.937399   -3.930637    0.780896
      9          6           0       -5.528756   -3.390525    2.159509
     10          6           0       -5.017417   -1.961917    2.100059
     11          6           0       -7.053289   -3.365249    2.200273
     12          6           0       -3.525870   -4.579107    0.977879
     13          6           0       -3.536317   -6.039894    1.437601
     14          1           0       -2.505937   -6.938311    0.939092
     15          7           0       -4.178920    0.984180    2.407519
     16          6           0       -4.416032    0.114676    3.418967
     17          6           0       -4.106017    0.846013    4.666251
     18          6           0       -3.851803    2.269107    4.308099
     19          6           0       -4.194896    2.266379    2.908936
     20          6           0       -4.026672    0.186422    6.008784
     21          6           0       -3.385318    3.447252    5.103396
     22          8           0       -3.453882    4.641937    4.653283
     23          6           0       -2.921952    3.171792    6.475423
     24          7           0       -4.938802    2.582979   -0.048459
     25          6           0       -4.833333    3.587888    0.827907
     26          6           0       -5.002500    4.918284    0.156068
     27          6           0       -5.004686    4.623874   -1.413350
     28          6           0       -4.912964    3.078754   -1.363730
     29          6           0       -6.268857    5.700792    0.530274
     30          6           0       -3.974851    5.396583   -2.275196
     31          6           0       -2.574047    4.941796   -1.931663
     32          7           0       -4.674234    0.115892   -1.613801
     33          6           0       -4.956874    0.993097   -2.670825
     34          6           0       -5.164316    0.166767   -3.874243
     35          6           0       -5.003239   -1.143245   -3.427288
     36          6           0       -4.739482   -1.137135   -2.027757
     37          6           0       -5.517510    0.648874   -5.165467
     38          6           0       -5.016959   -2.548075   -3.801616
     39          8           0       -5.094774   -3.160763   -4.867473
     40          6           0       -5.009904   -3.421501   -2.470111
     41          6           0       -3.964765   -4.491180   -2.633753
     42          8           0       -2.753351   -4.197862   -2.695455
     43          8           0       -4.529045   -5.695253   -2.453925
     44          6           0       -3.540193   -6.799780   -2.573700
     45          1           0       -5.285492   -1.632161    4.233668
     46          1           0       -4.428882    4.327888    2.597191
     47          1           0       -5.171025    2.835353   -3.457622
     48          1           0       -5.612459   -4.670681    0.350718
     49          1           0       -5.101870   -3.910425    3.016944
     50          1           0       -7.481843   -3.601437    1.226375
     51          1           0       -7.319724   -2.350784    2.497535
     52          1           0       -7.430570   -4.017297    2.988480
     53          1           0       -3.035117   -4.118326    1.835145
     54          1           0       -2.930793   -4.491689    0.068172
     55          1           0       -4.523399   -6.487831    1.319578
     56          1           0       -3.356021   -6.060990    2.512426
     57          1           0       -4.424267   -0.827331    5.981066
     58          1           0       -4.704902    0.726231    6.669328
     59          1           0       -3.016988    0.210869    6.418995
     60          1           0       -3.729811    2.707961    7.041791
     61          1           0       -2.543367    4.117924    6.860596
     62          1           0       -2.115582    2.438916    6.435315
     63          1           0       -4.173996    5.584380    0.393392
     64          1           0       -5.965270    4.859099   -1.872285
     65          1           0       -6.067327    6.696221    0.926775
     66          1           0       -6.835865    5.103178    1.243471
     67          1           0       -6.990531    5.816017   -0.278012
     68          1           0       -4.026894    6.463761   -2.062200
     69          1           0       -4.125082    5.264550   -3.346760
     70          1           0       -2.332043    5.540487   -1.054260
     71          1           0       -1.891109    5.159673   -2.753451
     72          1           0       -2.558874    3.895342   -1.626390
     73          1           0       -4.897173    0.102001   -5.875454
     74          1           0       -5.356392    1.723766   -5.244532
     75          1           0       -6.573522    0.381348   -5.199007
     76          1           0       -6.010467   -3.839553   -2.364148
     77          1           0       -3.911786   -7.481730   -3.338617
     78          1           0       -3.395901   -7.196842   -1.568749
     79          1           0       -2.568096   -6.533425   -2.990138
     80         12           0        4.536373    0.723786   -0.636208
     81          6           0        4.559124   -2.492884    0.954896
     82          6           0        4.025934    2.081259    2.451079
     83          6           0        4.062361    3.522271   -2.054379
     84          6           0        3.906355   -0.922223   -3.642774
     85          7           0        4.336881   -0.190878    1.367750
     86          6           0        4.424215   -1.418112    1.858285
     87          6           0        4.444226   -1.491146    3.408711
     88          6           0        3.704584   -0.101149    3.724481
     89          6           0        4.069814    0.664163    2.454212
     90          6           0        2.191398   -0.225640    3.788682
     91          6           0        5.902556   -1.510227    3.987422
     92          6           0        6.002656   -1.890739    5.466253
     93          1           0        7.155617   -2.670608    5.907791
     94          7           0        4.594890    2.564526    0.103272
     95          6           0        4.386137    2.933798    1.384416
     96          6           0        4.520674    4.398550    1.407949
     97          6           0        4.662788    4.879116    0.006665
     98          6           0        4.419339    3.649062   -0.719821
     99          6           0        4.586214    5.189302    2.682245
    100          6           0        4.955137    6.225849   -0.582439
    101          8           0        4.797206    6.462825   -1.832127
    102          6           0        5.342106    7.284386    0.361629
    103          7           0        3.845781    1.247822   -2.525858
    104          6           0        3.785760    2.535757   -2.907363
    105          6           0        3.523954    2.653889   -4.389896
    106          6           0        3.661610    1.169960   -4.970066
    107          6           0        3.901718    0.403699   -3.650749
    108          6           0        2.162858    3.228851   -4.781324
    109          6           0        4.663205    0.961349   -6.138811
    110          6           0        6.077952    1.173890   -5.650242
    111          7           0        4.457919   -1.331623   -1.297403
    112          6           0        4.151216   -1.799439   -2.594001
    113          6           0        4.109333   -3.274581   -2.526021
    114          6           0        4.373976   -3.564087   -1.178935
    115          6           0        4.547181   -2.354065   -0.454122
    116          6           0        3.805839   -4.148904   -3.607485
    117          6           0        4.535680   -4.617829   -0.203142
    118          8           0        4.583869   -5.846289   -0.251132
    119          6           0        4.537577   -3.967572    1.247217
    120          6           0        5.694532   -4.546728    2.014395
    121          8           0        6.864871   -4.317016    1.662075
    122          8           0        5.237215   -5.092217    3.156187
    123          6           0        6.349183   -5.670195    3.956996
    124          1           0        3.639281    2.590316    3.334394
    125          1           0        3.995085    4.457294   -2.615337
    126          1           0        3.813201   -1.511821   -4.557306
    127          1           0        3.882932   -2.315528    3.831923
    128          1           0        4.131905    0.384094    4.598155
    129          1           0        1.855128   -1.208463    3.493533
    130          1           0        1.805469    0.525371    3.111858
    131          1           0        1.832184    0.052246    4.783706
    132          1           0        6.283659   -0.481860    4.031814
    133          1           0        6.535008   -2.152125    3.405525
    134          1           0        5.072326   -2.333972    5.841718
    135          1           0        6.119608   -0.976195    6.052739
    136          1           0        4.289143    4.583574    3.547257
    137          1           0        3.816106    5.965528    2.616858
    138          1           0        5.557026    5.666411    2.832449
    139          1           0        4.550863    7.421247    1.094883
    140          1           0        5.596834    8.147893   -0.255908
    141          1           0        6.228993    6.953761    0.913646
    142          1           0        4.264116    3.286665   -4.864096
    143          1           0        2.708790    0.802029   -5.378221
    144          1           0        2.236631    4.124486   -5.426674
    145          1           0        1.615369    3.456326   -3.876312
    146          1           0        1.495380    2.532675   -5.286315
    147          1           0        4.490696    1.703241   -6.922380
    148          1           0        4.590310   -0.017662   -6.600569
    149          1           0        6.194170    2.260849   -5.696059
    150          1           0        6.788535    0.673036   -6.304661
    151          1           0        6.180843    0.875330   -4.600509
    152          1           0        4.516519   -4.963165   -3.558426
    153          1           0        3.857826   -3.631856   -4.563384
    154          1           0        2.781820   -4.431145   -3.348640
    155          1           0        3.579415   -4.201947    1.712582
    156          1           0        6.096785   -6.718501    4.144188
    157          1           0        6.454939   -5.012137    4.839903
    158          1           0        7.315268   -5.767936    3.475778
 ---------------------------------------------------------------------

 SCF Done:  E(RCAM-B3LYP) =  -4069.81198212     A.U. after   19 cycles

 Excitation energies and oscillator strengths:

 Excited State   1:      Singlet-A      1.6582 eV  747.69 nm  f=0.1638  <S**2>=0.000
     309 -> 315       -0.11522
     310 -> 316        0.12389
     311 -> 313        0.46653
     312 -> 314        0.50389
 This state for optimization and/or second-order correction.
 Total Energy, E(TD-HF/TD-DFT) =  -4069.75104316
 Copying the excited state density for this state as the 1-particle RhoCI density.

 Excited State   2:      Singlet-A      1.6896 eV  733.82 nm  f=0.5117  <S**2>=0.000
     309 -> 315       -0.13008
     310 -> 316       -0.12089
     311 -> 313        0.50243
     312 -> 314       -0.46543

 Excited State   3:      Singlet-A      2.1845 eV  567.56 nm  f=0.0616  <S**2>=0.000
     309 -> 313       -0.28329
     310 -> 314        0.57727
     311 -> 315       -0.11863
     312 -> 316       -0.24469

 Excited State   4:      Singlet-A      2.1910 eV  565.88 nm  f=0.1306  <S**2>=0.000
     309 -> 313        0.57523
     310 -> 314        0.28113
     311 -> 315        0.24920
     312 -> 316       -0.12293

 Excited State   5:      Singlet-A      2.3491 eV  527.78 nm  f=0.0000  <S**2>=0.000
     312 -> 313        0.70707

 The electronic state is 1-A.
 Alpha  occ. eigenvalues --  -46.87894 -46.87454 -19.26291 -19.26277 -19.19072
 Alpha  occ. eigenvalues --  -19.19040 -19.19001 -19.18530 -19.18263 -19.17873
 Alpha  occ. eigenvalues --  -14.42540 -14.42307 -14.41542 -14.41146 -14.39513
 Alpha  occ. eigenvalues --  -14.39147 -14.38685 -14.38381 -10.39103 -10.38996
 Alpha  occ. eigenvalues --  -10.35640 -10.35210 -10.34477 -10.34053 -10.31735
 Alpha  occ. eigenvalues --  -10.31618 -10.31484 -10.31121 -10.31000 -10.30863
 Alpha  occ. eigenvalues --  -10.30666 -10.30614 -10.30311 -10.30175 -10.30139
 Alpha  occ. eigenvalues --  -10.30008 -10.29918 -10.29747 -10.29668 -10.29373
 Alpha  occ. eigenvalues --  -10.29217 -10.29176 -10.28787 -10.28641 -10.28631
 Alpha  occ. eigenvalues --  -10.28470 -10.28469 -10.28210 -10.28169 -10.28051
 Alpha  occ. eigenvalues --  -10.27908 -10.27823 -10.27783 -10.27712 -10.27651
 Alpha  occ. eigenvalues --  -10.27568 -10.27523 -10.27493 -10.27474 -10.27293
 Alpha  occ. eigenvalues --  -10.27270 -10.27260 -10.27250 -10.27221 -10.27163
 Alpha  occ. eigenvalues --  -10.26904 -10.26702 -10.26674 -10.26628 -10.26284
 Alpha  occ. eigenvalues --  -10.26251 -10.26215 -10.26116 -10.25994 -10.25956
 Alpha  occ. eigenvalues --  -10.25910 -10.25692 -10.25508 -10.25483 -10.25204
 Alpha  occ. eigenvalues --  -10.24943 -10.24887 -10.24688 -10.24648 -10.24532
 Alpha  occ. eigenvalues --  -10.24486  -3.16637  -3.16204  -1.91518  -1.91105
 Alpha  occ. eigenvalues --   -1.91086  -1.90947  -1.90675  -1.90511  -1.16632
 Alpha  occ. eigenvalues --   -1.16577  -1.08715  -1.08488  -1.07406  -1.06857
 Alpha  occ. eigenvalues --   -1.06786  -1.06661  -1.04671  -1.04310  -1.03855
 Alpha  occ. eigenvalues --   -1.03459  -1.03338  -1.02821  -1.02510  -1.01898
 Alpha  occ. eigenvalues --   -0.92059  -0.91799  -0.89596  -0.89280  -0.89235
 Alpha  occ. eigenvalues --   -0.89045  -0.88361  -0.88009  -0.87978  -0.87755
 Alpha  occ. eigenvalues --   -0.87547  -0.87481  -0.87428  -0.86916  -0.85041
 Alpha  occ. eigenvalues --   -0.84869  -0.83999  -0.83674  -0.83136  -0.82743
 Alpha  occ. eigenvalues --   -0.82717  -0.82514  -0.81630  -0.81451  -0.80675
 Alpha  occ. eigenvalues --   -0.80277  -0.78928  -0.78418  -0.77294  -0.76983
 Alpha  occ. eigenvalues --   -0.76971  -0.76754  -0.75978  -0.75699  -0.74966
 Alpha  occ. eigenvalues --   -0.74616  -0.72870  -0.72480  -0.71751  -0.71408
 Alpha  occ. eigenvalues --   -0.69960  -0.69549  -0.68946  -0.68687  -0.67744
 Alpha  occ. eigenvalues --   -0.67416  -0.67283  -0.67068  -0.65340  -0.65141
 Alpha  occ. eigenvalues --   -0.64927  -0.64681  -0.64584  -0.64499  -0.64342
 Alpha  occ. eigenvalues --   -0.63999  -0.62332  -0.62142  -0.60573  -0.60135
 Alpha  occ. eigenvalues --   -0.59874  -0.59655  -0.59072  -0.58798  -0.58591
 Alpha  occ. eigenvalues --   -0.58241  -0.57651  -0.57399  -0.57395  -0.57037
 Alpha  occ. eigenvalues --   -0.56418  -0.56005  -0.56002  -0.55769  -0.55639
 Alpha  occ. eigenvalues --   -0.55396  -0.55287  -0.55064  -0.54566  -0.54326
 Alpha  occ. eigenvalues --   -0.53944  -0.53807  -0.53422  -0.53309  -0.53032
 Alpha  occ. eigenvalues --   -0.52995  -0.52989  -0.52870  -0.52760  -0.52505
 Alpha  occ. eigenvalues --   -0.52487  -0.52194  -0.52019  -0.51692  -0.51582
 Alpha  occ. eigenvalues --   -0.51522  -0.51265  -0.51020  -0.50756  -0.50291
 Alpha  occ. eigenvalues --   -0.50107  -0.50052  -0.49832  -0.49666  -0.49607
 Alpha  occ. eigenvalues --   -0.49329  -0.49315  -0.49155  -0.49052  -0.48946
 Alpha  occ. eigenvalues --   -0.48658  -0.48602  -0.48523  -0.48406  -0.48187
 Alpha  occ. eigenvalues --   -0.48158  -0.47782  -0.47432  -0.47396  -0.46930
 Alpha  occ. eigenvalues --   -0.46872  -0.46608  -0.46531  -0.46449  -0.46421
 Alpha  occ. eigenvalues --   -0.46236  -0.46064  -0.45882  -0.45875  -0.45641
 Alpha  occ. eigenvalues --   -0.45278  -0.45020  -0.44669  -0.44604  -0.44386
 Alpha  occ. eigenvalues --   -0.44299  -0.44232  -0.44147  -0.44109  -0.43976
 Alpha  occ. eigenvalues --   -0.43891  -0.43771  -0.43550  -0.43452  -0.43417
 Alpha  occ. eigenvalues --   -0.43228  -0.43108  -0.42806  -0.42751  -0.42718
 Alpha  occ. eigenvalues --   -0.42675  -0.42351  -0.42061  -0.41796  -0.41789
 Alpha  occ. eigenvalues --   -0.41582  -0.41497  -0.41318  -0.41218  -0.40992
 Alpha  occ. eigenvalues --   -0.40905  -0.40835  -0.40634  -0.40580  -0.40559
 Alpha  occ. eigenvalues --   -0.40298  -0.40258  -0.40132  -0.39483  -0.39210
 Alpha  occ. eigenvalues --   -0.38530  -0.38163  -0.37779  -0.37552  -0.37396
 Alpha  occ. eigenvalues --   -0.37314  -0.37068  -0.37035  -0.36746  -0.36666
 Alpha  occ. eigenvalues --   -0.36242  -0.36041  -0.34379  -0.34054  -0.33808
 Alpha  occ. eigenvalues --   -0.33750  -0.33279  -0.32966  -0.31526  -0.31129
 Alpha  occ. eigenvalues --   -0.31091  -0.30780  -0.30117  -0.29782  -0.29579
 Alpha  occ. eigenvalues --   -0.29431  -0.29115  -0.28979  -0.24174  -0.23827
 Alpha  occ. eigenvalues --   -0.21228  -0.20906
 Alpha virt. eigenvalues --   -0.08886  -0.08578  -0.01854  -0.01478  -0.00194
 Alpha virt. eigenvalues --    0.00157   0.02098   0.02411   0.02851   0.03482
 Alpha virt. eigenvalues --    0.04659   0.04897   0.05068   0.05268   0.06183

 Mulliken charges:
               1
     1  Mg   0.838796
     2  C   -0.002741
     3  C   -0.094388
     4  C   -0.046002
     5  C   -0.064090
     6  N   -0.256859
     7  C   -0.052021
     8  C   -0.014033
     9  C   -0.086899
    10  C    0.046299
    11  C    0.104804
    12  C    0.053582
    13  C   -0.073141
    14  H    0.039856
    15  N   -0.433025
    16  C    0.168059
    17  C   -0.177773
    18  C   -0.004805
    19  C    0.148628
    20  C    0.110249
    21  C    0.011090
    22  O   -0.249857
    23  C    0.063154
    24  N   -0.341294
    25  C    0.041438
    26  C   -0.028130
    27  C   -0.024081
    28  C    0.075390
    29  C    0.076146
    30  C    0.034919
    31  C   -0.004975
    32  N   -0.310543
    33  C    0.080768
    34  C   -0.170083
    35  C    0.008386
    36  C    0.083195
    37  C    0.127369
    38  C    0.045956
    39  O   -0.188111
    40  C   -0.005176
    41  C    0.212906
    42  O   -0.257258
    43  O   -0.304889
    44  C    0.157463
    45  H   -0.017566
    46  H   -0.017101
    47  H   -0.041316
    48  H    0.001291
    49  H   -0.003929
    50  H    0.025601
    51  H    0.016222
    52  H    0.016868
    53  H    0.010338
    54  H    0.044731
    55  H    0.017628
    56  H    0.017634
    57  H    0.006305
    58  H    0.026963
    59  H    0.037559
    60  H    0.038190
    61  H    0.034727
    62  H    0.028925
    63  H    0.016511
    64  H    0.009589
    65  H    0.023179
    66  H    0.012434
    67  H    0.004970
    68  H    0.006852
    69  H    0.004553
    70  H    0.009157
    71  H    0.020093
    72  H    0.028390
    73  H    0.047125
    74  H    0.009199
    75  H    0.046447
    76  H    0.035438
    77  H    0.043097
    78  H    0.047347
    79  H    0.054233
    80  Mg   0.838035
    81  C   -0.016917
    82  C   -0.088011
    83  C   -0.045318
    84  C   -0.061506
    85  N   -0.254427
    86  C   -0.049930
    87  C   -0.014977
    88  C   -0.090584
    89  C    0.045456
    90  C    0.114907
    91  C    0.062715
    92  C   -0.077413
    93  H    0.034498
    94  N   -0.423415
    95  C    0.162420
    96  C   -0.174387
    97  C   -0.008100
    98  C    0.151920
    99  C    0.099307
   100  C    0.015329
   101  O   -0.253934
   102  C    0.061227
   103  N   -0.349797
   104  C    0.037422
   105  C   -0.020002
   106  C   -0.035428
   107  C    0.088817
   108  C    0.073104
   109  C    0.034617
   110  C   -0.007548
   111  N   -0.324574
   112  C    0.078510
   113  C   -0.160070
   114  C    0.002411
   115  C    0.096668
   116  C    0.130543
   117  C    0.043023
   118  O   -0.188878
   119  C    0.000669
   120  C    0.210997
   121  O   -0.251006
   122  O   -0.306056
   123  C    0.152185
   124  H   -0.020164
   125  H   -0.016196
   126  H   -0.038645
   127  H   -0.001980
   128  H   -0.005154
   129  H    0.022054
   130  H    0.016115
   131  H    0.012575
   132  H    0.014151
   133  H    0.037779
   134  H    0.019553
   135  H    0.019287
   136  H    0.008272
   137  H    0.027054
   138  H    0.038978
   139  H    0.038603
   140  H    0.035731
   141  H    0.033592
   142  H    0.013806
   143  H    0.015298
   144  H    0.023603
   145  H    0.011590
   146  H    0.007145
   147  H    0.005848
   148  H    0.004492
   149  H    0.010420
   150  H    0.017583
   151  H    0.029926
   152  H    0.044348
   153  H    0.008728
   154  H    0.053004
   155  H    0.034314
   156  H    0.043164
   157  H    0.049023
   158  H    0.053637
 Sum of Mulliken charges =  -0.00000

 Dipole moment (field-independent basis, Debye):
    X=             -3.2890    Y=              1.8095    Z=              6.7453  Tot=              7.7195
 Quadrupole moment (field-independent basis, Debye-Ang):
   XX=           -519.2830   YY=           -526.5905   ZZ=           -472.7901
   XY=             18.5235   XZ=              0.0252   YZ=            -25.6498

 Normal termination of Gaussian 16 at Thu Aug 19 21:26:49 2021.
