 Gaussian 16, Revision A.03,
 Gaussian 16:  ES64L-G16RevA.03 25-Dec-2016

 -----------------------------------
 #p cam-b3lyp/Def2SVP td=(nstates=5)
 -----------------------------------

 --------------------------------
 TDDFT excited states in gaussian
 --------------------------------
 Symbolic Z-matrix:
 Charge =  0 Multiplicity = 1

                         Standard orientation:
 ---------------------------------------------------------------------
 Center     Atomic      Atomic             Coordinates (Angstroms)
 Number     Number       Type             X           Y           Z
 ---------------------------------------------------------------------
      1         12           0        4.098401   -1.660539    0.071418
      2          6           0        5.487589    1.401627   -1.155575
      3          6           0        5.468135   -0.894538    3.101292
      4          6           0        3.274503   -4.560568    1.055109
      5          6           0        3.833344   -2.697391   -3.245258
      6          7           0        5.301840    0.064779    0.761099
      7          6           0        5.714750    1.200781    0.207768
      8          6           0        6.345698    2.192517    1.230380
      9          6           0        6.786320    1.149869    2.353205
     10          6           0        5.769823    0.055204    2.080504
     11          6           0        8.186729    0.583279    2.142655
     12          6           0        5.302364    3.221591    1.781916
     13          6           0        5.897518    4.419371    2.527886
     14          1           0        5.250488    5.716350    2.399253
     15          7           0        3.903852   -2.386536    1.898418
     16          6           0        4.524244   -1.940902    3.017262
     17          6           0        4.051201   -2.807418    4.118198
     18          6           0        3.252624   -3.911572    3.517188
     19          6           0        3.469722   -3.675454    2.112733
     20          6           0        4.323938   -2.524091    5.563567
     21          6           0        2.433695   -5.012097    4.114125
     22          8           0        2.012793   -5.999924    3.420142
     23          6           0        2.208853   -4.948337    5.569605
     24          7           0        3.823953   -3.473701   -0.925956
     25          6           0        3.409563   -4.564791   -0.272666
     26          6           0        3.014245   -5.654183   -1.224973
     27          6           0        3.014782   -4.992626   -2.678278
     28          6           0        3.518053   -3.579349   -2.294043
     29          6           0        3.913965   -6.897762   -1.230008
     30          6           0        1.710124   -5.111368   -3.505433
     31          6           0        0.613974   -4.297802   -2.854539
     32          7           0        4.400285   -0.760036   -1.880249
     33          6           0        4.253398   -1.382973   -3.128066
     34          6           0        4.670854   -0.405968   -4.150446
     35          6           0        5.049762    0.719058   -3.420659
     36          6           0        4.904634    0.452033   -2.029283
     37          6           0        4.721671   -0.638002   -5.553304
     38          6           0        5.566814    2.076070   -3.491589
     39          8           0        5.793724    2.870951   -4.404918
     40          6           0        5.986350    2.529771   -2.023948
     41          6           0        5.414542    3.901740   -1.791467
     42          8           0        4.181125    4.076675   -1.717680
     43          8           0        6.403636    4.744912   -1.457855
     44          6           0        5.900111    6.117527   -1.184827
     45          1           0        6.045909   -0.875441    4.027442
     46          1           0        2.883611   -5.538038    1.345267
     47          1           0        3.697750   -2.920752   -4.305059
     48          1           0        7.217687    2.732576    0.861062
     49          1           0        6.650598    1.551444    3.357217
     50          1           0        8.601566    0.892567    1.183399
     51          1           0        8.070333   -0.500171    2.175537
     52          1           0        8.838197    0.840150    2.978348
     53          1           0        4.736797    2.760968    2.591867
     54          1           0        4.654690    3.580957    0.981478
     55          1           0        6.969449    4.507841    2.348874
     56          1           0        5.816364    4.229769    3.598243
     57          1           0        5.072295   -1.741793    5.684056
     58          1           0        4.793231   -3.415333    5.979693
     59          1           0        3.412315   -2.296524    6.116277
     60          1           0        3.170585   -4.955832    6.082990
     61          1           0        1.529312   -5.766659    5.805030
     62          1           0        1.738916   -3.994955    5.812855
     63          1           0        2.014740   -6.025088   -1.001713
     64          1           0        3.779381   -5.424923   -3.324174
     65          1           0        3.380004   -7.825371   -1.022326
     66          1           0        4.714560   -6.737419   -0.508462
     67          1           0        4.478335   -7.049895   -2.149660
     68          1           0        1.369866   -6.146040   -3.530426
     69          1           0        1.821677   -4.773945   -4.535944
     70          1           0        0.227275   -4.974959   -2.093780
     71          1           0       -0.157808   -4.047595   -3.583209
     72          1           0        1.017680   -3.425748   -2.339728
     73          1           0        4.304928    0.251853   -6.024952
     74          1           0        4.160768   -1.531205   -5.827494
     75          1           0        5.795063   -0.757744   -5.699418
     76          1           0        7.075522    2.529943   -1.995231
     77          1           0        6.445986    6.796001   -1.840517
     78          1           0        5.989351    6.272119   -0.109400
     79          1           0        4.872261    6.322718   -1.486092
     80         12           0       -4.259813    1.669797    0.399357
     81          6           0       -5.383239   -1.614718   -0.511082
     82          6           0       -3.284632    2.072765   -2.844288
     83          6           0       -2.856687    4.381680    1.262131
     84          6           0       -4.264696    0.600820    3.716428
     85          7           0       -4.373153    0.330280   -1.357086
     86          6           0       -4.876508   -0.871098   -1.597217
     87          6           0       -4.907677   -1.267227   -3.097768
     88          6           0       -3.729349   -0.311127   -3.623405
     89          6           0       -3.817136    0.788390   -2.566971
     90          6           0       -2.352733   -0.948779   -3.535882
     91          6           0       -6.277282   -0.918913   -3.779598
     92          6           0       -6.490781   -1.554290   -5.155270
     93          1           0       -7.838898   -1.976213   -5.525418
     94          7           0       -3.670265    3.215941   -0.696294
     95          6           0       -3.335767    3.206394   -2.003692
     96          6           0       -2.953860    4.588769   -2.331362
     97          6           0       -2.932196    5.380602   -1.071508
     98          6           0       -3.136423    4.328918   -0.095627
     99          6           0       -2.730526    5.059290   -3.739257
    100          6           0       -2.744345    6.840726   -0.790540
    101          8           0       -2.524459    7.275451    0.395000
    102          6           0       -2.732377    7.736433   -1.956315
    103          7           0       -3.446132    2.326816    2.196184
    104          6           0       -2.946434    3.569398    2.315449
    105          6           0       -2.672276    3.910692    3.760694
    106          6           0       -3.320763    2.723046    4.613075
    107          6           0       -3.800662    1.815932    3.458845
    108          6           0       -1.199572    4.063906    4.140229
    109          6           0       -4.342258    3.122497    5.712924
    110          6           0       -5.591414    3.687909    5.076284
    111          7           0       -4.904433   -0.096728    1.463258
    112          6           0       -4.789783   -0.347736    2.848162
    113          6           0       -5.261428   -1.728245    3.080918
    114          6           0       -5.598793   -2.196268    1.802000
    115          6           0       -5.335646   -1.186239    0.837585
    116          6           0       -5.288939   -2.397279    4.337000
    117          6           0       -6.107706   -3.318782    1.047231
    118          8           0       -6.579266   -4.417793    1.336302
    119          6           0       -5.871929   -3.036572   -0.499106
    120          6           0       -7.151477   -3.343803   -1.227711
    121          8           0       -8.172469   -2.662786   -1.026683
    122          8           0       -6.902182   -4.245071   -2.195151
    123          6           0       -8.138854   -4.573657   -2.953101
    124          1           0       -2.738111    2.217587   -3.776615
    125          1           0       -2.474060    5.337332    1.627920
    126          1           0       -4.389384    0.227357    4.735081
    127          1           0       -4.663555   -2.303374   -3.299229
    128          1           0       -3.954611    0.088122   -4.608899
    129          1           0       -2.380574   -1.898645   -3.022933
    130          1           0       -1.735995   -0.243963   -2.993728
    131          1           0       -1.911169   -1.030740   -4.533196
    132          1           0       -6.277767    0.142124   -4.060571
    133          1           0       -7.097891   -1.167972   -3.135242
    134          1           0       -5.768753   -2.355129   -5.355955
    135          1           0       -6.278471   -0.803989   -5.920771
    136          1           0       -2.654713    4.216770   -4.437698
    137          1           0       -1.739619    5.525319   -3.767255
    138          1           0       -3.474393    5.790904   -4.061856
    139          1           0       -1.936694    7.436452   -2.634076
    140          1           0       -2.677038    8.747274   -1.547628
    141          1           0       -3.674262    7.612594   -2.502337
    142          1           0       -3.151030    4.842559    4.035522
    143          1           0       -2.558068    2.153428    5.164128
    144          1           0       -0.963593    5.049251    4.584619
    145          1           0       -0.599647    3.891833    3.256472
    146          1           0       -0.819132    3.310602    4.827980
    147          1           0       -3.929739    3.913973    6.343434
    148          1           0       -4.617194    2.300935    6.365949
    149          1           0       -5.323899    4.732959    4.893538
    150          1           0       -6.437000    3.610105    5.756707
    151          1           0       -5.782694    3.221536    4.102861
    152          1           0       -6.237440   -2.914642    4.393479
    153          1           0       -5.166393   -1.698879    5.162219
    154          1           0       -4.424198   -3.056897    4.225631
    155          1           0       -5.050640   -3.674902   -0.827118
    156          1           0       -8.264064   -5.659785   -2.904851
    157          1           0       -8.002518   -4.126371   -3.955647
    158          1           0       -9.082878   -4.233549   -2.543706
 ---------------------------------------------------------------------

 SCF Done:  E(RCAM-B3LYP) =  -4069.81201211     A.U. after   19 cycles

 Excitation energies and oscillator strengths:

 Excited State   1:      Singlet-A      1.6523 eV  750.39 nm  f=0.0648  <S**2>=0.000
     309 -> 315        0.11502
     310 -> 316        0.12226
     311 -> 313        0.46893
     312 -> 314        0.50245
 This state for optimization and/or second-order correction.
 Total Energy, E(TD-HF/TD-DFT) =  -4069.75129272
 Copying the excited state density for this state as the 1-particle RhoCI density.

 Excited State   2:      Singlet-A      1.7001 eV  729.26 nm  f=0.6223  <S**2>=0.000
     309 -> 315        0.13200
     310 -> 316       -0.12289
     311 -> 313        0.50030
     312 -> 314       -0.46708

 Excited State   3:      Singlet-A      2.1847 eV  567.52 nm  f=0.0274  <S**2>=0.000
     309 -> 313        0.35201
     310 -> 314        0.53937
     311 -> 315       -0.14710
     312 -> 316       -0.22672

 Excited State   4:      Singlet-A      2.1955 eV  564.71 nm  f=0.1546  <S**2>=0.000
     309 -> 313        0.53572
     310 -> 314       -0.34836
     311 -> 315       -0.23531
     312 -> 316        0.15374

 Excited State   5:      Singlet-A      2.3448 eV  528.76 nm  f=0.0000  <S**2>=0.000
     312 -> 313        0.70708

 The electronic state is 1-A.
 Alpha  occ. eigenvalues --  -46.87906 -46.87439 -19.26376 -19.26205 -19.19128
 Alpha  occ. eigenvalues --  -19.19001 -19.18875 -19.18460 -19.18307 -19.17830
 Alpha  occ. eigenvalues --  -14.42554 -14.42275 -14.41562 -14.41151 -14.39508
 Alpha  occ. eigenvalues --  -14.39115 -14.38708 -14.38380 -10.39186 -10.38928
 Alpha  occ. eigenvalues --  -10.35506 -10.35134 -10.34525 -10.34013 -10.31748
 Alpha  occ. eigenvalues --  -10.31637 -10.31522 -10.31091 -10.30998 -10.30783
 Alpha  occ. eigenvalues --  -10.30696 -10.30624 -10.30315 -10.30182 -10.30133
 Alpha  occ. eigenvalues --  -10.30041 -10.29928 -10.29750 -10.29712 -10.29362
 Alpha  occ. eigenvalues --  -10.29189 -10.29168 -10.28821 -10.28556 -10.28523
 Alpha  occ. eigenvalues --  -10.28516 -10.28473 -10.28200 -10.28163 -10.27929
 Alpha  occ. eigenvalues --  -10.27915 -10.27836 -10.27758 -10.27694 -10.27634
 Alpha  occ. eigenvalues --  -10.27578 -10.27553 -10.27510 -10.27420 -10.27405
 Alpha  occ. eigenvalues --  -10.27271 -10.27264 -10.27259 -10.27213 -10.27085
 Alpha  occ. eigenvalues --  -10.26850 -10.26751 -10.26520 -10.26451 -10.26370
 Alpha  occ. eigenvalues --  -10.26314 -10.26148 -10.26128 -10.26060 -10.26039
 Alpha  occ. eigenvalues --  -10.25797 -10.25736 -10.25674 -10.25513 -10.25321
 Alpha  occ. eigenvalues --  -10.24959 -10.24929 -10.24891 -10.24643 -10.24637
 Alpha  occ. eigenvalues --  -10.24475  -3.16649  -3.16189  -1.91530  -1.91117
 Alpha  occ. eigenvalues --   -1.91071  -1.90959  -1.90660  -1.90496  -1.16728
 Alpha  occ. eigenvalues --   -1.16495  -1.08767  -1.08445  -1.07271  -1.06785
 Alpha  occ. eigenvalues --   -1.06750  -1.06711  -1.04685  -1.04270  -1.03870
 Alpha  occ. eigenvalues --   -1.03442  -1.03349  -1.02823  -1.02525  -1.01891
 Alpha  occ. eigenvalues --   -0.92086  -0.91770  -0.89654  -0.89322  -0.89270
 Alpha  occ. eigenvalues --   -0.88948  -0.88409  -0.88068  -0.88014  -0.87775
 Alpha  occ. eigenvalues --   -0.87582  -0.87466  -0.87369  -0.86836  -0.85065
 Alpha  occ. eigenvalues --   -0.84797  -0.84072  -0.83740  -0.83055  -0.82734
 Alpha  occ. eigenvalues --   -0.82693  -0.82432  -0.81689  -0.81415  -0.80697
 Alpha  occ. eigenvalues --   -0.80237  -0.78908  -0.78379  -0.77334  -0.77028
 Alpha  occ. eigenvalues --   -0.76939  -0.76727  -0.76022  -0.75630  -0.75009
 Alpha  occ. eigenvalues --   -0.74647  -0.72897  -0.72484  -0.71774  -0.71386
 Alpha  occ. eigenvalues --   -0.70060  -0.69630  -0.68963  -0.68621  -0.67746
 Alpha  occ. eigenvalues --   -0.67390  -0.67288  -0.66988  -0.65379  -0.65073
 Alpha  occ. eigenvalues --   -0.64965  -0.64725  -0.64571  -0.64464  -0.64393
 Alpha  occ. eigenvalues --   -0.64038  -0.62402  -0.62106  -0.60542  -0.60101
 Alpha  occ. eigenvalues --   -0.59898  -0.59584  -0.59099  -0.58790  -0.58617
 Alpha  occ. eigenvalues --   -0.58222  -0.57701  -0.57421  -0.57360  -0.57040
 Alpha  occ. eigenvalues --   -0.56426  -0.56068  -0.55982  -0.55704  -0.55616
 Alpha  occ. eigenvalues --   -0.55464  -0.55227  -0.55096  -0.54645  -0.54341
 Alpha  occ. eigenvalues --   -0.53975  -0.53714  -0.53410  -0.53308  -0.53029
 Alpha  occ. eigenvalues --   -0.53020  -0.52925  -0.52838  -0.52709  -0.52600
 Alpha  occ. eigenvalues --   -0.52394  -0.52276  -0.52078  -0.51698  -0.51690
 Alpha  occ. eigenvalues --   -0.51439  -0.51317  -0.51009  -0.50657  -0.50206
 Alpha  occ. eigenvalues --   -0.50160  -0.50003  -0.49762  -0.49678  -0.49599
 Alpha  occ. eigenvalues --   -0.49326  -0.49259  -0.49189  -0.48973  -0.48905
 Alpha  occ. eigenvalues --   -0.48700  -0.48573  -0.48527  -0.48361  -0.48219
 Alpha  occ. eigenvalues --   -0.48092  -0.47794  -0.47396  -0.47378  -0.46917
 Alpha  occ. eigenvalues --   -0.46888  -0.46635  -0.46521  -0.46476  -0.46353
 Alpha  occ. eigenvalues --   -0.46283  -0.46052  -0.45947  -0.45909  -0.45646
 Alpha  occ. eigenvalues --   -0.45315  -0.45049  -0.44702  -0.44599  -0.44326
 Alpha  occ. eigenvalues --   -0.44276  -0.44266  -0.44182  -0.44114  -0.43933
 Alpha  occ. eigenvalues --   -0.43879  -0.43698  -0.43609  -0.43482  -0.43388
 Alpha  occ. eigenvalues --   -0.43197  -0.43137  -0.42814  -0.42775  -0.42758
 Alpha  occ. eigenvalues --   -0.42713  -0.42375  -0.42137  -0.41818  -0.41803
 Alpha  occ. eigenvalues --   -0.41617  -0.41466  -0.41272  -0.41238  -0.40970
 Alpha  occ. eigenvalues --   -0.40886  -0.40791  -0.40688  -0.40533  -0.40472
 Alpha  occ. eigenvalues --   -0.40336  -0.40289  -0.40033  -0.39601  -0.39302
 Alpha  occ. eigenvalues --   -0.38580  -0.38202  -0.37818  -0.37471  -0.37437
 Alpha  occ. eigenvalues --   -0.37349  -0.37090  -0.36984  -0.36821  -0.36618
 Alpha  occ. eigenvalues --   -0.36301  -0.36048  -0.34400  -0.34041  -0.33879
 Alpha  occ. eigenvalues --   -0.33689  -0.33300  -0.32955  -0.31405  -0.31140
 Alpha  occ. eigenvalues --   -0.31026  -0.30754  -0.30167  -0.29742  -0.29559
 Alpha  occ. eigenvalues --   -0.29447  -0.29071  -0.28975  -0.24192  -0.23815
 Alpha  occ. eigenvalues --   -0.21243  -0.20890
 Alpha virt. eigenvalues --   -0.08886  -0.08553  -0.01855  -0.01466  -0.00149
 Alpha virt. eigenvalues --    0.00225   0.02072   0.02412   0.02841   0.03490
 Alpha virt. eigenvalues --    0.04627   0.04936   0.04991   0.05335   0.06126

 Mulliken charges:
               1
     1  Mg   0.838875
     2  C   -0.002684
     3  C   -0.094145
     4  C   -0.045487
     5  C   -0.064622
     6  N   -0.256834
     7  C   -0.052332
     8  C   -0.014088
     9  C   -0.087045
    10  C    0.046635
    11  C    0.104761
    12  C    0.053453
    13  C   -0.072487
    14  H    0.037929
    15  N   -0.433285
    16  C    0.168794
    17  C   -0.177034
    18  C   -0.003499
    19  C    0.149122
    20  C    0.110164
    21  C    0.012834
    22  O   -0.248267
    23  C    0.062295
    24  N   -0.341085
    25  C    0.041233
    26  C   -0.028646
    27  C   -0.023964
    28  C    0.074585
    29  C    0.075954
    30  C    0.035953
    31  C   -0.008452
    32  N   -0.310141
    33  C    0.079729
    34  C   -0.171399
    35  C    0.007934
    36  C    0.082475
    37  C    0.127703
    38  C    0.045221
    39  O   -0.189361
    40  C   -0.004965
    41  C    0.212530
    42  O   -0.257406
    43  O   -0.304728
    44  C    0.157773
    45  H   -0.017262
    46  H   -0.015993
    47  H   -0.042410
    48  H    0.000995
    49  H   -0.003826
    50  H    0.025540
    51  H    0.016439
    52  H    0.016955
    53  H    0.010959
    54  H    0.044688
    55  H    0.017682
    56  H    0.017801
    57  H    0.005995
    58  H    0.027372
    59  H    0.039420
    60  H    0.037317
    61  H    0.036876
    62  H    0.030981
    63  H    0.017503
    64  H    0.009642
    65  H    0.024094
    66  H    0.012750
    67  H    0.004758
    68  H    0.007253
    69  H    0.003351
    70  H    0.011054
    71  H    0.017039
    72  H    0.029526
    73  H    0.045769
    74  H    0.008229
    75  H    0.046480
    76  H    0.035359
    77  H    0.042719
    78  H    0.047209
    79  H    0.053616
    80  Mg   0.837689
    81  C   -0.016633
    82  C   -0.086306
    83  C   -0.044125
    84  C   -0.065634
    85  N   -0.254471
    86  C   -0.050247
    87  C   -0.014952
    88  C   -0.091391
    89  C    0.045033
    90  C    0.111813
    91  C    0.062748
    92  C   -0.077493
    93  H    0.034262
    94  N   -0.424158
    95  C    0.162755
    96  C   -0.170479
    97  C   -0.006746
    98  C    0.153086
    99  C    0.097762
   100  C    0.016803
   101  O   -0.254087
   102  C    0.060661
   103  N   -0.349961
   104  C    0.037540
   105  C   -0.019797
   106  C   -0.034261
   107  C    0.088539
   108  C    0.073705
   109  C    0.035018
   110  C   -0.007509
   111  N   -0.323925
   112  C    0.077957
   113  C   -0.163621
   114  C    0.002416
   115  C    0.095595
   116  C    0.131249
   117  C    0.042438
   118  O   -0.188562
   119  C    0.000818
   120  C    0.211160
   121  O   -0.251251
   122  O   -0.305735
   123  C    0.152171
   124  H   -0.016900
   125  H   -0.015899
   126  H   -0.041969
   127  H   -0.001631
   128  H   -0.004396
   129  H    0.024318
   130  H    0.017442
   131  H    0.015667
   132  H    0.014007
   133  H    0.037430
   134  H    0.019978
   135  H    0.019677
   136  H    0.009486
   137  H    0.031513
   138  H    0.038733
   139  H    0.040830
   140  H    0.035289
   141  H    0.033199
   142  H    0.013976
   143  H    0.010439
   144  H    0.023954
   145  H    0.013940
   146  H    0.003137
   147  H    0.005127
   148  H    0.002886
   149  H    0.010748
   150  H    0.017412
   151  H    0.030816
   152  H    0.045458
   153  H    0.007183
   154  H    0.047221
   155  H    0.035046
   156  H    0.043470
   157  H    0.049247
   158  H    0.053412
 Sum of Mulliken charges =  -0.00000

 Dipole moment (field-independent basis, Debye):
    X=              4.7753    Y=              0.6811    Z=              0.6673  Tot=              4.8696
 Quadrupole moment (field-independent basis, Debye-Ang):
   XX=           -527.2352   YY=           -534.8978   ZZ=           -457.8972
   XY=            -18.6280   XZ=             49.9251   YZ=             27.1433

 Normal termination of Gaussian 16 at Thu Aug 19 18:16:53 2021.
