 Gaussian 16, Revision A.03,
 Gaussian 16:  ES64L-G16RevA.03 25-Dec-2016

 -----------------------------------
 #p cam-b3lyp/Def2SVP td=(nstates=5)
 -----------------------------------

 --------------------------------
 TDDFT excited states in gaussian
 --------------------------------
 Symbolic Z-matrix:
 Charge =  0 Multiplicity = 1

                         Standard orientation:
 ---------------------------------------------------------------------
 Center     Atomic      Atomic             Coordinates (Angstroms)
 Number     Number       Type             X           Y           Z
 ---------------------------------------------------------------------
      1         12           0       -4.320116    0.466301   -0.993342
      2          6           0       -4.852482   -2.540920    0.873587
      3          6           0       -5.845171    2.143191    1.557210
      4          6           0       -4.270783    3.061613   -2.815029
      5          6           0       -3.889438   -1.535653   -3.813334
      6          7           0       -5.193859   -0.222180    0.920611
      7          6           0       -5.280303   -1.392968    1.544273
      8          6           0       -5.799027   -1.276063    3.008729
      9          6           0       -6.587620    0.104265    2.887020
     10          6           0       -5.808088    0.729355    1.743553
     11          6           0       -8.041913   -0.060699    2.457696
     12          6           0       -4.631143   -1.179005    4.047170
     13          6           0       -5.037109   -1.390038    5.508680
     14          1           0       -4.112992   -2.074325    6.400367
     15          7           0       -4.509408    2.373030   -0.512296
     16          6           0       -5.148184    2.875215    0.571705
     17          6           0       -5.010846    4.344782    0.481195
     18          6           0       -4.404939    4.664571   -0.841191
     19          6           0       -4.394831    3.364183   -1.461083
     20          6           0       -5.387456    5.276353    1.592092
     21          6           0       -3.922747    5.941510   -1.453605
     22          8           0       -3.646195    6.037058   -2.698178
     23          6           0       -3.866319    7.116145   -0.564735
     24          7           0       -4.328284    0.749955   -3.061459
     25          6           0       -4.242679    1.975546   -3.590216
     26          6           0       -3.981884    1.916442   -5.066167
     27          6           0       -3.663659    0.387260   -5.397962
     28          6           0       -3.890237   -0.212207   -3.988150
     29          6           0       -5.123071    2.407450   -5.967619
     30          6           0       -2.326140    0.088073   -6.120423
     31          6           0       -1.165898    0.397028   -5.200921
     32          7           0       -4.181857   -1.661760   -1.397428
     33          6           0       -4.024747   -2.273772   -2.649399
     34          6           0       -4.093683   -3.730196   -2.429980
     35          6           0       -4.304049   -3.864704   -1.059032
     36          6           0       -4.389012   -2.573590   -0.463970
     37          6           0       -4.024452   -4.729408   -3.440532
     38          6           0       -4.501409   -4.798428    0.037811
     39          8           0       -4.438487   -6.022981    0.156145
     40          6           0       -4.985865   -3.977654    1.313530
     41          6           0       -4.161786   -4.433144    2.486872
     42          8           0       -2.937907   -4.195095    2.539962
     43          8           0       -4.976768   -4.862510    3.462573
     44          6           0       -4.223571   -5.301407    4.667653
     45          1           0       -6.512174    2.740586    2.181843
     46          1           0       -4.139528    3.928839   -3.465512
     47          1           0       -3.679056   -2.224439   -4.633557
     48          1           0       -6.481832   -2.069272    3.313722
     49          1           0       -6.489744    0.709670    3.787924
     50          1           0       -8.261037   -1.091814    2.180735
     51          1           0       -8.168608    0.599215    1.599236
     52          1           0       -8.717731    0.314712    3.226536
     53          1           0       -4.280933   -0.148113    4.098897
     54          1           0       -3.829310   -1.872727    3.791948
     55          1           0       -6.034648   -1.823330    5.586674
     56          1           0       -5.128567   -0.412534    5.982307
     57          1           0       -5.956823    4.765423    2.367538
     58          1           0       -6.085836    6.002186    1.175990
     59          1           0       -4.521499    5.794172    2.004781
     60          1           0       -4.861328    7.313195   -0.165137
     61          1           0       -3.414287    7.915419   -1.150975
     62          1           0       -3.233190    6.881049    0.291318
     63          1           0       -3.121214    2.527083   -5.335962
     64          1           0       -4.420481   -0.056956   -6.044929
     65          1           0       -4.832467    3.213164   -6.642215
     66          1           0       -5.950576    2.712497   -5.327720
     67          1           0       -5.592094    1.633010   -6.573983
     68          1           0       -2.218424    0.724854   -6.997835
     69          1           0       -2.236797   -0.947403   -6.449144
     70          1           0       -1.030088    1.469920   -5.332414
     71          1           0       -0.276213   -0.150388   -5.513983
     72          1           0       -1.429386    0.227489   -4.156738
     73          1           0       -3.370590   -5.510524   -3.052856
     74          1           0       -3.642261   -4.320919   -4.375770
     75          1           0       -5.072619   -5.020059   -3.509259
     76          1           0       -6.044304   -4.199777    1.445782
     77          1           0       -4.525928   -6.327102    4.879224
     78          1           0       -4.405881   -4.551183    5.437284
     79          1           0       -3.147086   -5.425414    4.544599
     80         12           0        4.458575    0.738399    0.986308
     81          6           0        4.907995   -1.704358   -1.604058
     82          6           0        3.201897   -1.769400    2.927002
     83          6           0        3.634339    2.937257    3.120096
     84          6           0        4.662247    3.190162   -1.482116
     85          7           0        4.146672   -1.416954    0.599757
     86          6           0        4.412163   -2.244980   -0.399355
     87          6           0        4.206102   -3.746222   -0.062615
     88          6           0        3.151604   -3.580981    1.137213
     89          6           0        3.540909   -2.183214    1.614024
     90          6           0        1.706954   -3.540259    0.667428
     91          6           0        5.528096   -4.436232    0.425473
     92          6           0        5.474930   -5.964755    0.475929
     93          1           0        6.682943   -6.714596    0.142868
     94          7           0        4.014298    0.556382    2.911933
     95          6           0        3.536460   -0.540281    3.536663
     96          6           0        3.355552   -0.154450    4.944702
     97          6           0        3.609523    1.306797    5.067004
     98          6           0        3.745201    1.668580    3.670286
     99          6           0        3.055198   -1.148539    6.028673
    100          6           0        3.700808    2.228585    6.245211
    101          8           0        3.692665    3.502655    6.105590
    102          6           0        3.705864    1.597026    7.572848
    103          7           0        3.975366    2.753607    0.819596
    104          6           0        3.706601    3.492607    1.910264
    105          6           0        3.659239    4.964045    1.574085
    106          6           0        4.193346    5.078733    0.071025
    107          6           0        4.380997    3.578847   -0.245994
    108          6           0        2.285490    5.626201    1.677665
    109          6           0        5.385432    6.042189   -0.180664
    110          6           0        6.630774    5.508598    0.489995
    111          7           0        4.916456    0.785959   -1.124653
    112          6           0        4.919755    1.915967   -1.971500
    113          6           0        5.178083    1.431463   -3.342979
    114          6           0        5.285134    0.039722   -3.201223
    115          6           0        5.086104   -0.319818   -1.840850
    116          6           0        5.236303    2.239330   -4.513484
    117          6           0        5.510704   -1.207999   -3.894782
    118          8           0        5.822259   -1.519295   -5.043584
    119          6           0        5.151032   -2.404513   -2.912243
    120          6           0        6.270253   -3.407615   -2.972699
    121          8           0        7.406601   -3.112193   -2.562757
    122          8           0        5.765898   -4.611380   -3.299718
    123          6           0        6.836224   -5.642111   -3.361395
    124          1           0        2.584765   -2.430381    3.536215
    125          1           0        3.460426    3.746737    3.832830
    126          1           0        4.837931    3.901448   -2.291976
    127          1           0        3.771402   -4.335378   -0.861177
    128          1           0        3.326747   -4.313663    1.920705
    129          1           0        1.634229   -3.510365   -0.409580
    130          1           0        1.282004   -2.644139    1.100347
    131          1           0        1.147445   -4.376628    1.096113
    132          1           0        5.673472   -4.218004    1.491298
    133          1           0        6.363565   -4.123177   -0.170019
    134          1           0        4.611468   -6.365382   -0.068935
    135          1           0        5.305031   -6.272104    1.510666
    136          1           0        2.761131   -2.120263    5.613099
    137          1           0        2.159144   -0.793274    6.549004
    138          1           0        3.869030   -1.243137    6.750743
    139          1           0        2.799500    1.009093    7.696524
    140          1           0        3.866585    2.410616    8.282863
    141          1           0        4.545671    0.895030    7.623126
    142          1           0        4.314701    5.530543    2.224131
    143          1           0        3.414037    5.449017   -0.611174
    144          1           0        2.269091    6.492006    2.366287
    145          1           0        1.568765    4.878328    1.989957
    146          1           0        1.865498    5.968624    0.733440
    147          1           0        5.184978    7.018073    0.268369
    148          1           0        5.592023    6.208096   -1.232709
    149          1           0        6.522164    5.853766    1.522550
    150          1           0        7.523350    5.924197    0.026724
    151          1           0        6.629738    4.412534    0.507002
    152          1           0        6.085497    1.894122   -5.088116
    153          1           0        5.326479    3.294552   -4.264182
    154          1           0        4.266751    2.004645   -4.960873
    155          1           0        4.202953   -2.828378   -3.245511
    156          1           0        6.783322   -6.098606   -4.354617
    157          1           0        6.663280   -6.304744   -2.492621
    158          1           0        7.864060   -5.299209   -3.340708
 ---------------------------------------------------------------------

 SCF Done:  E(RCAM-B3LYP) =  -4069.81293668     A.U. after   19 cycles

 Excitation energies and oscillator strengths:

 Excited State   1:      Singlet-A      1.6684 eV  743.15 nm  f=0.2776  <S**2>=0.000
     310 -> 316        0.14816
     311 -> 313       -0.33937
     312 -> 314        0.59649
 This state for optimization and/or second-order correction.
 Total Energy, E(TD-HF/TD-DFT) =  -4069.75162582
 Copying the excited state density for this state as the 1-particle RhoCI density.

 Excited State   2:      Singlet-A      1.6781 eV  738.86 nm  f=0.3967  <S**2>=0.000
     309 -> 315        0.15244
     311 -> 313        0.59569
     312 -> 314        0.33888

 Excited State   3:      Singlet-A      2.1830 eV  567.94 nm  f=0.0939  <S**2>=0.000
     309 -> 313       -0.14206
     310 -> 314        0.62744
     312 -> 316       -0.26207

 Excited State   4:      Singlet-A      2.1933 eV  565.28 nm  f=0.1025  <S**2>=0.000
     309 -> 313        0.62480
     310 -> 314        0.14081
     311 -> 315       -0.27150

 Excited State   5:      Singlet-A      2.3304 eV  532.03 nm  f=0.0000  <S**2>=0.000
     312 -> 313        0.70707

 The electronic state is 1-A.
 Alpha  occ. eigenvalues --  -46.87933 -46.87411 -19.26644 -19.26119 -19.19409
 Alpha  occ. eigenvalues --  -19.18944 -19.18934 -19.18573 -19.18381 -19.17846
 Alpha  occ. eigenvalues --  -14.42593 -14.42199 -14.41574 -14.41123 -14.39538
 Alpha  occ. eigenvalues --  -14.39111 -14.38737 -14.38360 -10.39444 -10.38862
 Alpha  occ. eigenvalues --  -10.35575 -10.35255 -10.34607 -10.34019 -10.32068
 Alpha  occ. eigenvalues --  -10.31562 -10.31533 -10.31065 -10.30972 -10.30722
 Alpha  occ. eigenvalues --  -10.30720 -10.30649 -10.30306 -10.30184 -10.30105
 Alpha  occ. eigenvalues --  -10.30048 -10.29915 -10.29776 -10.29691 -10.29380
 Alpha  occ. eigenvalues --  -10.29196 -10.29188 -10.28939 -10.28797 -10.28521
 Alpha  occ. eigenvalues --  -10.28289 -10.28285 -10.28280 -10.28156 -10.27941
 Alpha  occ. eigenvalues --  -10.27862 -10.27769 -10.27724 -10.27580 -10.27577
 Alpha  occ. eigenvalues --  -10.27566 -10.27550 -10.27518 -10.27395 -10.27349
 Alpha  occ. eigenvalues --  -10.27338 -10.27258 -10.27249 -10.27242 -10.27223
 Alpha  occ. eigenvalues --  -10.26942 -10.26815 -10.26523 -10.26379 -10.26329
 Alpha  occ. eigenvalues --  -10.26317 -10.26172 -10.26134 -10.25994 -10.25985
 Alpha  occ. eigenvalues --  -10.25699 -10.25673 -10.25495 -10.25339 -10.25111
 Alpha  occ. eigenvalues --  -10.24994 -10.24919 -10.24651 -10.24644 -10.24596
 Alpha  occ. eigenvalues --  -10.24475  -3.16676  -3.16161  -1.91558  -1.91144
 Alpha  occ. eigenvalues --   -1.91043  -1.90987  -1.90631  -1.90469  -1.16994
 Alpha  occ. eigenvalues --   -1.16413  -1.08855  -1.08456  -1.07345  -1.07017
 Alpha  occ. eigenvalues --   -1.06832  -1.06719  -1.04730  -1.04201  -1.03891
 Alpha  occ. eigenvalues --   -1.03409  -1.03372  -1.02809  -1.02549  -1.01871
 Alpha  occ. eigenvalues --   -0.92149  -0.91734  -0.89615  -0.89361  -0.89291
 Alpha  occ. eigenvalues --   -0.88688  -0.88374  -0.88038  -0.88020  -0.87817
 Alpha  occ. eigenvalues --   -0.87571  -0.87400  -0.87393  -0.86925  -0.85155
 Alpha  occ. eigenvalues --   -0.84636  -0.84026  -0.83713  -0.83075  -0.82820
 Alpha  occ. eigenvalues --   -0.82774  -0.82328  -0.81816  -0.81350  -0.80774
 Alpha  occ. eigenvalues --   -0.80198  -0.78929  -0.78413  -0.77353  -0.77116
 Alpha  occ. eigenvalues --   -0.76883  -0.76577  -0.76108  -0.75461  -0.75008
 Alpha  occ. eigenvalues --   -0.74607  -0.72911  -0.72448  -0.71817  -0.71284
 Alpha  occ. eigenvalues --   -0.69957  -0.69579  -0.69039  -0.68489  -0.67799
 Alpha  occ. eigenvalues --   -0.67400  -0.67376  -0.66905  -0.65468  -0.65032
 Alpha  occ. eigenvalues --   -0.64935  -0.64781  -0.64517  -0.64369  -0.64367
 Alpha  occ. eigenvalues --   -0.63996  -0.62541  -0.62047  -0.60562  -0.60145
 Alpha  occ. eigenvalues --   -0.59969  -0.59420  -0.59137  -0.58745  -0.58663
 Alpha  occ. eigenvalues --   -0.58188  -0.57828  -0.57445  -0.57322  -0.57039
 Alpha  occ. eigenvalues --   -0.56478  -0.56237  -0.55961  -0.55676  -0.55635
 Alpha  occ. eigenvalues --   -0.55492  -0.55222  -0.55055  -0.54704  -0.54289
 Alpha  occ. eigenvalues --   -0.54077  -0.53485  -0.53438  -0.53396  -0.53123
 Alpha  occ. eigenvalues --   -0.53009  -0.52898  -0.52885  -0.52640  -0.52482
 Alpha  occ. eigenvalues --   -0.52373  -0.52232  -0.52073  -0.51798  -0.51685
 Alpha  occ. eigenvalues --   -0.51358  -0.51339  -0.50954  -0.50678  -0.50289
 Alpha  occ. eigenvalues --   -0.50122  -0.50040  -0.49758  -0.49684  -0.49625
 Alpha  occ. eigenvalues --   -0.49391  -0.49272  -0.49191  -0.48936  -0.48796
 Alpha  occ. eigenvalues --   -0.48696  -0.48617  -0.48567  -0.48253  -0.48206
 Alpha  occ. eigenvalues --   -0.48120  -0.47843  -0.47437  -0.47317  -0.46930
 Alpha  occ. eigenvalues --   -0.46897  -0.46739  -0.46509  -0.46446  -0.46311
 Alpha  occ. eigenvalues --   -0.46171  -0.46043  -0.46026  -0.45885  -0.45564
 Alpha  occ. eigenvalues --   -0.45300  -0.45030  -0.44771  -0.44641  -0.44301
 Alpha  occ. eigenvalues --   -0.44289  -0.44227  -0.44182  -0.44173  -0.43887
 Alpha  occ. eigenvalues --   -0.43754  -0.43715  -0.43680  -0.43529  -0.43309
 Alpha  occ. eigenvalues --   -0.43181  -0.43080  -0.42994  -0.42738  -0.42701
 Alpha  occ. eigenvalues --   -0.42648  -0.42363  -0.42128  -0.41864  -0.41731
 Alpha  occ. eigenvalues --   -0.41699  -0.41419  -0.41288  -0.41137  -0.41018
 Alpha  occ. eigenvalues --   -0.40962  -0.40670  -0.40663  -0.40518  -0.40433
 Alpha  occ. eigenvalues --   -0.40396  -0.40181  -0.39877  -0.39480  -0.39253
 Alpha  occ. eigenvalues --   -0.38568  -0.38138  -0.37950  -0.37444  -0.37426
 Alpha  occ. eigenvalues --   -0.37332  -0.37029  -0.37005  -0.36868  -0.36552
 Alpha  occ. eigenvalues --   -0.36366  -0.35978  -0.34435  -0.34118  -0.33999
 Alpha  occ. eigenvalues --   -0.33633  -0.33339  -0.32928  -0.31474  -0.31184
 Alpha  occ. eigenvalues --   -0.31130  -0.30715  -0.30246  -0.29749  -0.29592
 Alpha  occ. eigenvalues --   -0.29477  -0.29117  -0.28990  -0.24225  -0.23781
 Alpha  occ. eigenvalues --   -0.21265  -0.20863
 Alpha virt. eigenvalues --   -0.08917  -0.08557  -0.01881  -0.01447  -0.00204
 Alpha virt. eigenvalues --    0.00203   0.02028   0.02408   0.02843   0.03512
 Alpha virt. eigenvalues --    0.04554   0.04762   0.05063   0.05397   0.05949

 Mulliken charges:
               1
     1  Mg   0.838977
     2  C   -0.004047
     3  C   -0.093832
     4  C   -0.045620
     5  C   -0.063471
     6  N   -0.256883
     7  C   -0.052611
     8  C   -0.014116
     9  C   -0.087124
    10  C    0.046418
    11  C    0.104702
    12  C    0.053475
    13  C   -0.071303
    14  H    0.033506
    15  N   -0.433243
    16  C    0.168849
    17  C   -0.176649
    18  C   -0.003738
    19  C    0.148954
    20  C    0.109977
    21  C    0.012089
    22  O   -0.249450
    23  C    0.062295
    24  N   -0.341231
    25  C    0.041655
    26  C   -0.028285
    27  C   -0.024075
    28  C    0.074894
    29  C    0.076082
    30  C    0.034977
    31  C   -0.005112
    32  N   -0.310179
    33  C    0.079875
    34  C   -0.170284
    35  C    0.007716
    36  C    0.082343
    37  C    0.127518
    38  C    0.044728
    39  O   -0.189600
    40  C   -0.004962
    41  C    0.213454
    42  O   -0.260802
    43  O   -0.303735
    44  C    0.158395
    45  H   -0.017248
    46  H   -0.016472
    47  H   -0.040787
    48  H    0.000789
    49  H   -0.003721
    50  H    0.025472
    51  H    0.016830
    52  H    0.017012
    53  H    0.012184
    54  H    0.041947
    55  H    0.018471
    56  H    0.018984
    57  H    0.006188
    58  H    0.027113
    59  H    0.040567
    60  H    0.037811
    61  H    0.035549
    62  H    0.031766
    63  H    0.016856
    64  H    0.009724
    65  H    0.023571
    66  H    0.012368
    67  H    0.005158
    68  H    0.007079
    69  H    0.005488
    70  H    0.008212
    71  H    0.021123
    72  H    0.028041
    73  H    0.046387
    74  H    0.010072
    75  H    0.046311
    76  H    0.035663
    77  H    0.043560
    78  H    0.046953
    79  H    0.050656
    80  Mg   0.837252
    81  C   -0.016977
    82  C   -0.086881
    83  C   -0.046594
    84  C   -0.065031
    85  N   -0.255081
    86  C   -0.048799
    87  C   -0.015310
    88  C   -0.090270
    89  C    0.045165
    90  C    0.113514
    91  C    0.062363
    92  C   -0.077518
    93  H    0.032903
    94  N   -0.423571
    95  C    0.162668
    96  C   -0.173985
    97  C   -0.008946
    98  C    0.152624
    99  C    0.099466
   100  C    0.014868
   101  O   -0.254483
   102  C    0.061481
   103  N   -0.350183
   104  C    0.037561
   105  C   -0.019604
   106  C   -0.035067
   107  C    0.088793
   108  C    0.073765
   109  C    0.034939
   110  C   -0.007530
   111  N   -0.323978
   112  C    0.078224
   113  C   -0.163622
   114  C    0.001852
   115  C    0.096132
   116  C    0.131613
   117  C    0.041478
   118  O   -0.189164
   119  C    0.001421
   120  C    0.211276
   121  O   -0.251352
   122  O   -0.305356
   123  C    0.152251
   124  H   -0.014897
   125  H   -0.017107
   126  H   -0.040899
   127  H   -0.000047
   128  H   -0.004447
   129  H    0.020250
   130  H    0.017059
   131  H    0.028600
   132  H    0.013219
   133  H    0.036438
   134  H    0.022399
   135  H    0.019863
   136  H    0.010514
   137  H    0.025090
   138  H    0.038890
   139  H    0.037604
   140  H    0.035309
   141  H    0.034093
   142  H    0.013770
   143  H    0.013151
   144  H    0.023308
   145  H    0.010484
   146  H    0.005959
   147  H    0.005413
   148  H    0.003736
   149  H    0.010393
   150  H    0.017508
   151  H    0.030530
   152  H    0.045365
   153  H    0.008365
   154  H    0.046090
   155  H    0.035005
   156  H    0.043212
   157  H    0.050228
   158  H    0.053038
 Sum of Mulliken charges =  -0.00000

 Dipole moment (field-independent basis, Debye):
    X=             -5.5750    Y=              1.2766    Z=              4.8088  Tot=              7.4723
 Quadrupole moment (field-independent basis, Debye-Ang):
   XX=           -518.7296   YY=           -508.7239   ZZ=           -492.0902
   XY=            -18.9022   XZ=              0.7220   YZ=            -11.7466

 Normal termination of Gaussian 16 at Thu Aug 19 23:22:41 2021.
