 Gaussian 16, Revision A.03,
 Gaussian 16:  ES64L-G16RevA.03 25-Dec-2016

 -----------------------------------
 #p cam-b3lyp/Def2SVP td=(nstates=5)
 -----------------------------------

 --------------------------------
 TDDFT excited states in gaussian
 --------------------------------
 Symbolic Z-matrix:
 Charge =  0 Multiplicity = 1

                         Standard orientation:
 ---------------------------------------------------------------------
 Center     Atomic      Atomic             Coordinates (Angstroms)
 Number     Number       Type             X           Y           Z
 ---------------------------------------------------------------------
      1         12           0       -4.063248   -1.722399    0.171957
      2          6           0       -5.651481    1.484362    0.091860
      3          6           0       -4.955277   -2.080450   -3.102054
      4          6           0       -3.072463   -4.729964    0.343778
      5          6           0       -4.304562   -1.591013    3.646172
      6          7           0       -5.160548   -0.395655   -1.219562
      7          6           0       -5.663686    0.832433   -1.143245
      8          6           0       -6.137675    1.392417   -2.517700
      9          6           0       -6.390675    0.013756   -3.277492
     10          6           0       -5.419105   -0.867247   -2.512110
     11          6           0       -7.801880   -0.534350   -3.091528
     12          6           0       -5.030575    2.242682   -3.227004
     13          6           0       -5.513684    3.090087   -4.407624
     14          1           0       -4.905442    4.393210   -4.629567
     15          7           0       -3.582715   -2.996748   -1.259117
     16          6           0       -4.026725   -2.982424   -2.538936
     17          6           0       -3.381943   -4.133382   -3.206944
     18          6           0       -2.676281   -4.928178   -2.163663
     19          6           0       -3.109643   -4.255981   -0.965445
     20          6           0       -3.430671   -4.358818   -4.686996
     21          6           0       -1.765581   -6.112970   -2.234548
     22          8           0       -1.448405   -6.790063   -1.197476
     23          6           0       -1.319267   -6.518941   -3.579551
     24          7           0       -3.930517   -3.085996    1.746956
     25          6           0       -3.410869   -4.304604    1.562710
     26          6           0       -3.157982   -4.993829    2.870745
     27          6           0       -3.388585   -3.891728    4.002976
     28          6           0       -3.838620   -2.716614    3.100289
     29          6           0       -4.036972   -6.217681    3.163276
     30          6           0       -2.226312   -3.653277    4.999310
     31          6           0       -1.049840   -3.035663    4.277116
     32          7           0       -4.670572   -0.248951    1.645441
     33          6           0       -4.712762   -0.416116    3.037184
     34          6           0       -5.291444    0.816393    3.602971
     35          6           0       -5.562783    1.613479    2.492623
     36          6           0       -5.202279    0.912173    1.306664
     37          6           0       -5.556257    1.056850    4.980102
     38          6           0       -6.096226    2.884695    2.030773
     39          8           0       -6.468253    3.921037    2.583117
     40          6           0       -6.288011    2.803704    0.452012
     41          6           0       -5.698974    4.054042   -0.142127
     42          8           0       -4.470503    4.268181   -0.093445
     43          8           0       -6.631905    4.679634   -0.876168
     44          6           0       -6.104075    5.913148   -1.518033
     45          1           0       -5.383269   -2.402030   -4.053553
     46          1           0       -2.633074   -5.723287    0.456402
     47          1           0       -4.332312   -1.444270    4.727444
     48          1           0       -7.060837    1.970936   -2.478831
     49          1           0       -6.105017    0.069513   -4.327736
     50          1           0       -8.362492    0.048336   -2.360698
     51          1           0       -7.672498   -1.559165   -2.742949
     52          1           0       -8.318688   -0.606475   -4.048859
     53          1           0       -4.342798    1.575573   -3.746609
     54          1           0       -4.517366    2.883643   -2.509291
     55          1           0       -6.601121    3.168454   -4.423409
     56          1           0       -5.266616    2.563669   -5.329601
     57          1           0       -4.158143   -3.706014   -5.167803
     58          1           0       -3.822412   -5.363717   -4.843279
     59          1           0       -2.446631   -4.272056   -5.147940
     60          1           0       -2.190100   -6.752516   -4.192447
     61          1           0       -0.604520   -7.327043   -3.428030
     62          1           0       -0.825616   -5.672662   -4.058164
     63          1           0       -2.132842   -5.357232    2.929505
     64          1           0       -4.239999   -4.131934    4.640213
     65          1           0       -3.469399   -7.128313    3.356447
     66          1           0       -4.717909   -6.352061    2.323301
     67          1           0       -4.735240   -6.091760    3.990309
     68          1           0       -1.885116   -4.599705    5.417409
     69          1           0       -2.498532   -3.002509    5.830362
     70          1           0       -0.544515   -3.901279    3.850283
     71          1           0       -0.401997   -2.513797    4.982216
     72          1           0       -1.376696   -2.407613    3.448137
     73          1           0       -5.224994    2.075597    5.181070
     74          1           0       -5.036761    0.338986    5.614451
     75          1           0       -6.638268    0.928094    5.003148
     76          1           0       -7.359650    2.729408    0.269826
     77          1           0       -6.750450    6.735894   -1.212217
     78          1           0       -6.027525    5.699224   -2.584232
     79          1           0       -5.136867    6.267080   -1.159453
     80         12           0        4.218681    1.801240   -0.056124
     81          6           0        5.408827   -1.551028   -0.530395
     82          6           0        3.701275    0.995088    3.217559
     83          6           0        2.749811    4.591580    0.295768
     84          6           0        3.755443    1.976699   -3.505804
     85          7           0        4.551571   -0.068457    1.077757
     86          6           0        5.065787   -1.258465    0.806078
     87          6           0        5.295838   -2.158802    2.049471
     88          6           0        4.214065   -1.492949    3.031963
     89          6           0        4.172526   -0.088283    2.433762
     90          6           0        2.829423   -2.106500    2.906896
     91          6           0        6.750525   -2.026308    2.622478
     92          6           0        7.140714   -3.099595    3.641085
     93          1           0        8.520580   -3.577355    3.654759
     94          7           0        3.806373    2.837518    1.585436
     95          6           0        3.653366    2.353938    2.836032
     96          6           0        3.339562    3.516371    3.681283
     97          6           0        3.157433    4.701651    2.799997
     98          6           0        3.211490    4.071470    1.496142
     99          6           0        3.317248    3.449798    5.180779
    100          6           0        2.953866    6.159075    3.084019
    101          8           0        2.580440    6.977299    2.170840
    102          6           0        3.113953    6.583047    4.482628
    103          7           0        3.176810    3.022656   -1.377101
    104          6           0        2.683324    4.208520   -0.979444
    105          6           0        2.219341    5.029453   -2.158925
    106          6           0        2.728364    4.244174   -3.455768
    107          6           0        3.348323    3.004736   -2.773980
    108          6           0        0.710953    5.255001   -2.260275
    109          6           0        3.595764    5.042922   -4.466859
    110          6           0        4.928083    5.390058   -3.842515
    111          7           0        4.686726    0.549705   -1.753962
    112          6           0        4.380531    0.801350   -3.109319
    113          6           0        4.796218   -0.389773   -3.877981
    114          6           0        5.298284   -1.268021   -2.905827
    115          6           0        5.183713   -0.674799   -1.619576
    116          6           0        4.642445   -0.569367   -5.281631
    117          6           0        5.889370   -2.566332   -2.674045
    118          8           0        6.301302   -3.474443   -3.394735
    119          6           0        5.870947   -2.858354   -1.111753
    120          6           0        7.233463   -3.358247   -0.716563
    121          8           0        8.227073   -2.614568   -0.795876
    122          8           0        7.105703   -4.551844   -0.108794
    123          6           0        8.429442   -5.083599    0.311646
    124          1           0        3.289255    0.781063    4.204134
    125          1           0        2.334522    5.600695    0.347809
    126          1           0        3.734566    1.992706   -4.597585
    127          1           0        5.066715   -3.207099    1.899900
    128          1           0        4.577435   -1.460761    4.055832
    129          1           0        2.773413   -2.811639    2.090944
    130          1           0        2.154591   -1.277642    2.737648
    131          1           0        2.527005   -2.551777    3.859057
    132          1           0        6.804532   -1.134153    3.259572
    133          1           0        7.471852   -2.001983    1.828930
    134          1           0        6.441470   -3.944580    3.637839
    135          1           0        7.045635   -2.676881    4.644225
    136          1           0        3.325457    2.412462    5.537535
    137          1           0        2.346198    3.840429    5.503784
    138          1           0        4.108558    4.045593    5.640680
    139          1           0        2.414024    6.034652    5.108595
    140          1           0        3.017784    7.670474    4.471183
    141          1           0        4.119680    6.307260    4.818867
    142          1           0        2.669361    6.014547   -2.145431
    143          1           0        1.889528    3.879979   -4.066952
    144          1           0        0.430629    6.324870   -2.289858
    145          1           0        0.234889    4.760137   -1.424214
    146          1           0        0.229470    4.781043   -3.113938
    147          1           0        3.112386    5.991270   -4.714149
    148          1           0        3.767222    4.516019   -5.399575
    149          1           0        4.702986    6.292590   -3.266445
    150          1           0        5.671678    5.588091   -4.611860
    151          1           0        5.243766    4.616343   -3.133029
    152          1           0        5.566861   -0.999404   -5.643606
    153          1           0        4.418385    0.371152   -5.780608
    154          1           0        3.791667   -1.255789   -5.298378
    155          1           0        5.093073   -3.600033   -0.926258
    156          1           0        8.531357   -6.077156   -0.135721
    157          1           0        8.437633   -5.025311    1.416311
    158          1           0        9.313502   -4.587472   -0.071436
 ---------------------------------------------------------------------

 SCF Done:  E(RCAM-B3LYP) =  -4069.81169491     A.U. after   19 cycles

 Excitation energies and oscillator strengths:

 Excited State   1:      Singlet-A      1.6481 eV  752.27 nm  f=0.0060  <S**2>=0.000
     309 -> 315        0.11197
     310 -> 316        0.12424
     311 -> 313        0.46022
     312 -> 314        0.51103
 This state for optimization and/or second-order correction.
 Total Energy, E(TD-HF/TD-DFT) =  -4069.75112730
 Copying the excited state density for this state as the 1-particle RhoCI density.

 Excited State   2:      Singlet-A      1.7048 eV  727.26 nm  f=0.6934  <S**2>=0.000
     309 -> 315        0.13518
     310 -> 316       -0.12140
     311 -> 313        0.50839
     312 -> 314       -0.45784

 Excited State   3:      Singlet-A      2.1816 eV  568.31 nm  f=0.0137  <S**2>=0.000
     309 -> 313        0.32244
     310 -> 314        0.55907
     311 -> 315       -0.13332
     312 -> 316       -0.23238

 Excited State   4:      Singlet-A      2.1976 eV  564.18 nm  f=0.1599  <S**2>=0.000
     309 -> 313        0.55367
     310 -> 314       -0.31792
     311 -> 315       -0.24472
     312 -> 316        0.14176

 Excited State   5:      Singlet-A      2.3510 eV  527.37 nm  f=0.0000  <S**2>=0.000
     312 -> 313        0.70709

 The electronic state is 1-A.
 Alpha  occ. eigenvalues --  -46.87903 -46.87438 -19.26333 -19.26185 -19.19070
 Alpha  occ. eigenvalues --  -19.18995 -19.18847 -19.18439 -19.18244 -19.17869
 Alpha  occ. eigenvalues --  -14.42554 -14.42277 -14.41572 -14.41130 -14.39499
 Alpha  occ. eigenvalues --  -14.39122 -14.38691 -14.38389 -10.39134 -10.38921
 Alpha  occ. eigenvalues --  -10.35473 -10.35113 -10.34465 -10.34047 -10.31717
 Alpha  occ. eigenvalues --  -10.31613 -10.31512 -10.31117 -10.30996 -10.30789
 Alpha  occ. eigenvalues --  -10.30676 -10.30615 -10.30334 -10.30177 -10.30168
 Alpha  occ. eigenvalues --  -10.30056 -10.29897 -10.29724 -10.29660 -10.29350
 Alpha  occ. eigenvalues --  -10.29200 -10.29194 -10.28843 -10.28649 -10.28517
 Alpha  occ. eigenvalues --  -10.28510 -10.28452 -10.28209 -10.28179 -10.27943
 Alpha  occ. eigenvalues --  -10.27884 -10.27829 -10.27790 -10.27710 -10.27666
 Alpha  occ. eigenvalues --  -10.27635 -10.27517 -10.27501 -10.27456 -10.27289
 Alpha  occ. eigenvalues --  -10.27261 -10.27245 -10.27241 -10.27233 -10.27082
 Alpha  occ. eigenvalues --  -10.26853 -10.26813 -10.26521 -10.26503 -10.26351
 Alpha  occ. eigenvalues --  -10.26316 -10.26153 -10.26134 -10.25978 -10.25971
 Alpha  occ. eigenvalues --  -10.25799 -10.25767 -10.25728 -10.25591 -10.25116
 Alpha  occ. eigenvalues --  -10.24947 -10.24924 -10.24901 -10.24668 -10.24573
 Alpha  occ. eigenvalues --  -10.24436  -3.16646  -3.16188  -1.91527  -1.91114
 Alpha  occ. eigenvalues --   -1.91070  -1.90956  -1.90659  -1.90496  -1.16682
 Alpha  occ. eigenvalues --   -1.16479  -1.08700  -1.08483  -1.07245  -1.06780
 Alpha  occ. eigenvalues --   -1.06693  -1.06683  -1.04682  -1.04277  -1.03877
 Alpha  occ. eigenvalues --   -1.03438  -1.03339  -1.02812  -1.02519  -1.01887
 Alpha  occ. eigenvalues --   -0.92066  -0.91776  -0.89701  -0.89287  -0.89278
 Alpha  occ. eigenvalues --   -0.88952  -0.88459  -0.87979  -0.87976  -0.87781
 Alpha  occ. eigenvalues --   -0.87624  -0.87469  -0.87330  -0.86884  -0.85082
 Alpha  occ. eigenvalues --   -0.84793  -0.84139  -0.83632  -0.83034  -0.82726
 Alpha  occ. eigenvalues --   -0.82678  -0.82435  -0.81673  -0.81412  -0.80683
 Alpha  occ. eigenvalues --   -0.80237  -0.78875  -0.78423  -0.77354  -0.77050
 Alpha  occ. eigenvalues --   -0.76942  -0.76688  -0.76015  -0.75640  -0.75045
 Alpha  occ. eigenvalues --   -0.74527  -0.72891  -0.72494  -0.71781  -0.71339
 Alpha  occ. eigenvalues --   -0.70148  -0.69539  -0.68968  -0.68622  -0.67733
 Alpha  occ. eigenvalues --   -0.67383  -0.67301  -0.66994  -0.65393  -0.65073
 Alpha  occ. eigenvalues --   -0.64966  -0.64740  -0.64562  -0.64451  -0.64425
 Alpha  occ. eigenvalues --   -0.63979  -0.62385  -0.62089  -0.60529  -0.60099
 Alpha  occ. eigenvalues --   -0.59900  -0.59594  -0.59102  -0.58772  -0.58611
 Alpha  occ. eigenvalues --   -0.58211  -0.57667  -0.57424  -0.57369  -0.57008
 Alpha  occ. eigenvalues --   -0.56401  -0.56051  -0.56010  -0.55699  -0.55601
 Alpha  occ. eigenvalues --   -0.55490  -0.55239  -0.55029  -0.54658  -0.54274
 Alpha  occ. eigenvalues --   -0.53991  -0.53712  -0.53409  -0.53286  -0.53029
 Alpha  occ. eigenvalues --   -0.53016  -0.52929  -0.52818  -0.52702  -0.52668
 Alpha  occ. eigenvalues --   -0.52427  -0.52212  -0.52031  -0.51754  -0.51692
 Alpha  occ. eigenvalues --   -0.51454  -0.51318  -0.51010  -0.50614  -0.50228
 Alpha  occ. eigenvalues --   -0.50210  -0.49982  -0.49756  -0.49607  -0.49585
 Alpha  occ. eigenvalues --   -0.49296  -0.49265  -0.49187  -0.49000  -0.48906
 Alpha  occ. eigenvalues --   -0.48696  -0.48585  -0.48495  -0.48364  -0.48133
 Alpha  occ. eigenvalues --   -0.48085  -0.47795  -0.47387  -0.47377  -0.46938
 Alpha  occ. eigenvalues --   -0.46878  -0.46647  -0.46505  -0.46476  -0.46343
 Alpha  occ. eigenvalues --   -0.46281  -0.46058  -0.45924  -0.45868  -0.45643
 Alpha  occ. eigenvalues --   -0.45356  -0.44907  -0.44690  -0.44600  -0.44322
 Alpha  occ. eigenvalues --   -0.44298  -0.44265  -0.44177  -0.44083  -0.43921
 Alpha  occ. eigenvalues --   -0.43858  -0.43719  -0.43592  -0.43500  -0.43367
 Alpha  occ. eigenvalues --   -0.43172  -0.43142  -0.42889  -0.42746  -0.42745
 Alpha  occ. eigenvalues --   -0.42692  -0.42324  -0.42178  -0.41808  -0.41764
 Alpha  occ. eigenvalues --   -0.41641  -0.41461  -0.41256  -0.41246  -0.41017
 Alpha  occ. eigenvalues --   -0.40870  -0.40760  -0.40729  -0.40516  -0.40459
 Alpha  occ. eigenvalues --   -0.40329  -0.40259  -0.40023  -0.39696  -0.39216
 Alpha  occ. eigenvalues --   -0.38638  -0.38104  -0.37855  -0.37480  -0.37457
 Alpha  occ. eigenvalues --   -0.37360  -0.37045  -0.36993  -0.36807  -0.36585
 Alpha  occ. eigenvalues --   -0.36304  -0.35990  -0.34394  -0.34037  -0.33830
 Alpha  occ. eigenvalues --   -0.33685  -0.33290  -0.32957  -0.31383  -0.31136
 Alpha  occ. eigenvalues --   -0.30998  -0.30742  -0.30105  -0.29777  -0.29530
 Alpha  occ. eigenvalues --   -0.29414  -0.29103  -0.29006  -0.24188  -0.23813
 Alpha  occ. eigenvalues --   -0.21236  -0.20895
 Alpha virt. eigenvalues --   -0.08869  -0.08570  -0.01858  -0.01448  -0.00122
 Alpha virt. eigenvalues --    0.00209   0.02104   0.02397   0.02830   0.03493
 Alpha virt. eigenvalues --    0.04606   0.04932   0.05037   0.05339   0.06062

 Mulliken charges:
               1
     1  Mg   0.838711
     2  C   -0.002633
     3  C   -0.093848
     4  C   -0.046194
     5  C   -0.064646
     6  N   -0.256654
     7  C   -0.052692
     8  C   -0.013901
     9  C   -0.087072
    10  C    0.046322
    11  C    0.104731
    12  C    0.053430
    13  C   -0.071689
    14  H    0.035427
    15  N   -0.433304
    16  C    0.168667
    17  C   -0.176603
    18  C   -0.003409
    19  C    0.148814
    20  C    0.110086
    21  C    0.012786
    22  O   -0.249756
    23  C    0.062177
    24  N   -0.340885
    25  C    0.041123
    26  C   -0.028419
    27  C   -0.023954
    28  C    0.074094
    29  C    0.076072
    30  C    0.036839
    31  C   -0.009030
    32  N   -0.310396
    33  C    0.080008
    34  C   -0.170404
    35  C    0.008598
    36  C    0.082909
    37  C    0.127418
    38  C    0.046336
    39  O   -0.188120
    40  C   -0.005449
    41  C    0.212977
    42  O   -0.256666
    43  O   -0.304904
    44  C    0.157318
    45  H   -0.017140
    46  H   -0.016862
    47  H   -0.042474
    48  H    0.001193
    49  H   -0.003915
    50  H    0.025617
    51  H    0.016537
    52  H    0.016968
    53  H    0.010870
    54  H    0.043945
    55  H    0.018353
    56  H    0.017925
    57  H    0.005811
    58  H    0.027338
    59  H    0.040667
    60  H    0.037122
    61  H    0.037280
    62  H    0.032958
    63  H    0.015830
    64  H    0.009819
    65  H    0.023288
    66  H    0.013252
    67  H    0.004838
    68  H    0.005988
    69  H    0.003943
    70  H    0.010196
    71  H    0.015531
    72  H    0.031092
    73  H    0.047219
    74  H    0.007966
    75  H    0.046274
    76  H    0.035280
    77  H    0.043329
    78  H    0.046005
    79  H    0.054456
    80  Mg   0.837660
    81  C   -0.016981
    82  C   -0.087759
    83  C   -0.042795
    84  C   -0.065429
    85  N   -0.254693
    86  C   -0.050093
    87  C   -0.015104
    88  C   -0.091677
    89  C    0.046078
    90  C    0.113072
    91  C    0.062681
    92  C   -0.077591
    93  H    0.034234
    94  N   -0.424029
    95  C    0.163714
    96  C   -0.173437
    97  C   -0.006032
    98  C    0.152263
    99  C    0.098909
   100  C    0.016871
   101  O   -0.251875
   102  C    0.061044
   103  N   -0.350015
   104  C    0.038395
   105  C   -0.020441
   106  C   -0.033897
   107  C    0.088674
   108  C    0.072022
   109  C    0.034890
   110  C   -0.007473
   111  N   -0.323792
   112  C    0.078065
   113  C   -0.164385
   114  C    0.001724
   115  C    0.095824
   116  C    0.131773
   117  C    0.041530
   118  O   -0.189341
   119  C    0.001012
   120  C    0.210991
   121  O   -0.251423
   122  O   -0.305271
   123  C    0.152292
   124  H   -0.020129
   125  H   -0.013786
   126  H   -0.041980
   127  H   -0.000256
   128  H   -0.005335
   129  H    0.023994
   130  H    0.015568
   131  H    0.016390
   132  H    0.013669
   133  H    0.037485
   134  H    0.020817
   135  H    0.019118
   136  H    0.007913
   137  H    0.027799
   138  H    0.039392
   139  H    0.039367
   140  H    0.036463
   141  H    0.032815
   142  H    0.013673
   143  H    0.010994
   144  H    0.024195
   145  H    0.021065
   146  H    0.003886
   147  H    0.005651
   148  H    0.002329
   149  H    0.011049
   150  H    0.017039
   151  H    0.030283
   152  H    0.045431
   153  H    0.007830
   154  H    0.044410
   155  H    0.035795
   156  H    0.043650
   157  H    0.049384
   158  H    0.053132
 Sum of Mulliken charges =  -0.00000

 Dipole moment (field-independent basis, Debye):
    X=             -3.7013    Y=             -2.0383    Z=              0.2414  Tot=              4.2323
 Quadrupole moment (field-independent basis, Debye-Ang):
   XX=           -530.2009   YY=           -540.6250   ZZ=           -449.4631
   XY=             21.6958   XZ=             56.7823   YZ=            -33.2909

 Normal termination of Gaussian 16 at Thu Aug 19 18:55:11 2021.
