 Gaussian 16, Revision A.03,
 Gaussian 16:  ES64L-G16RevA.03 25-Dec-2016

 -----------------------------------
 #p cam-b3lyp/Def2SVP td=(nstates=5)
 -----------------------------------

 --------------------------------
 TDDFT excited states in gaussian
 --------------------------------
 Symbolic Z-matrix:
 Charge =  0 Multiplicity = 1

                         Standard orientation:
 ---------------------------------------------------------------------
 Center     Atomic      Atomic             Coordinates (Angstroms)
 Number     Number       Type             X           Y           Z
 ---------------------------------------------------------------------
      1         12           0       -4.434763   -0.560716    0.349383
      2          6           0       -4.488170    3.003477    0.023974
      3          6           0       -5.522352   -0.722997   -2.880769
      4          6           0       -4.830550   -3.681040    0.753795
      5          6           0       -4.458716   -0.098047    3.803514
      6          7           0       -4.907287    1.010443   -1.136829
      7          6           0       -4.828762    2.337342   -1.155393
      8          6           0       -5.069020    2.950767   -2.567257
      9          6           0       -5.921075    1.768384   -3.213765
     10          6           0       -5.394546    0.609022   -2.386377
     11          6           0       -7.422181    1.899043   -2.976889
     12          6           0       -3.732535    3.187109   -3.348077
     13          6           0       -3.849536    4.076249   -4.589486
     14          1           0       -2.748466    4.969180   -4.917615
     15          7           0       -4.607020   -2.013072   -0.978713
     16          6           0       -5.051618   -1.896582   -2.253095
     17          6           0       -4.992542   -3.256327   -2.831270
     18          6           0       -4.657645   -4.203949   -1.732202
     19          6           0       -4.711480   -3.329385   -0.588690
     20          6           0       -5.191965   -3.540209   -4.288456
     21          6           0       -4.349859   -5.667871   -1.713968
     22          8           0       -4.314738   -6.342051   -0.628232
     23          6           0       -4.175430   -6.318868   -3.025005
     24          7           0       -4.840500   -1.735031    2.026880
     25          6           0       -4.904311   -3.068011    1.937011
     26          6           0       -4.921692   -3.706554    3.294177
     27          6           0       -4.610106   -2.537817    4.336636
     28          6           0       -4.545134   -1.349187    3.346077
     29          6           0       -6.229919   -4.406217    3.687911
     30          6           0       -3.420220   -2.757411    5.304299
     31          6           0       -2.121938   -2.761106    4.528705
     32          7           0       -4.289361    1.128399    1.704666
     33          6           0       -4.344541    1.092591    3.105504
     34          6           0       -4.312918    2.489983    3.574934
     35          6           0       -4.257904    3.247132    2.406369
     36          6           0       -4.281813    2.378768    1.277802
     37          6           0       -4.393757    2.915896    4.930108
     38          6           0       -4.209342    4.588708    1.848093
     39          8           0       -4.076456    5.719428    2.318525
     40          6           0       -4.479397    4.489735    0.281855
     41          6           0       -3.433063    5.317796   -0.412990
     42          8           0       -2.231340    4.982201   -0.388418
     43          8           0       -4.033565    6.233014   -1.189080
     44          6           0       -3.051542    7.069132   -1.929818
     45          1           0       -6.084286   -0.892692   -3.801299
     46          1           0       -4.857949   -4.756264    0.942426
     47          1           0       -4.377873    0.120615    4.869865
     48          1           0       -5.650518    3.872873   -2.569208
     49          1           0       -5.680928    1.622324   -4.266722
     50          1           0       -7.647737    2.715884   -2.291457
     51          1           0       -7.733334    0.945936   -2.548796
     52          1           0       -7.956941    1.991609   -3.922532
     53          1           0       -3.420376    2.253967   -3.816973
     54          1           0       -2.965385    3.590877   -2.686429
     55          1           0       -4.796783    4.616046   -4.605283
     56          1           0       -3.889953    3.432418   -5.468149
     57          1           0       -5.585523   -2.671909   -4.815440
     58          1           0       -5.984269   -4.284869   -4.362253
     59          1           0       -4.285588   -3.919792   -4.760398
     60          1           0       -5.085344   -6.194467   -3.612483
     61          1           0       -3.873240   -7.344027   -2.813863
     62          1           0       -3.384626   -5.804773   -3.572075
     63          1           0       -4.151722   -4.472655    3.375794
     64          1           0       -5.456072   -2.341358    4.995741
     65          1           0       -6.102948   -5.456994    3.949543
     66          1           0       -6.934845   -4.290497    2.865123
     67          1           0       -6.772584   -3.933771    4.506279
     68          1           0       -3.503895   -3.726882    5.794269
     69          1           0       -3.352488   -1.997203    6.082597
     70          1           0       -2.056140   -3.787348    4.169079
     71          1           0       -1.285217   -2.523513    5.186472
     72          1           0       -2.178711   -2.112440    3.654351
     73          1           0       -3.648249    3.702255    5.047692
     74          1           0       -4.209679    2.089700    5.616489
     75          1           0       -5.423821    3.269842    4.969430
     76          1           0       -5.484739    4.873963    0.112213
     77          1           0       -3.267748    8.109490   -1.686623
     78          1           0       -3.116741    6.770009   -2.976087
     79          1           0       -2.012913    6.993648   -1.605949
     80         12           0        4.540546   -0.984998   -0.218367
     81          6           0        4.550710    2.513394    0.581738
     82          6           0        3.506549   -0.113177   -3.349723
     83          6           0        4.087942   -4.067431   -0.819353
     84          6           0        4.455959   -1.626033    3.206196
     85          7           0        4.119159    0.979087   -1.144144
     86          6           0        4.217308    2.243451   -0.761915
     87          6           0        4.021215    3.277411   -1.902972
     88          6           0        3.153253    2.369547   -2.903609
     89          6           0        3.643810    0.989819   -2.469574
     90          6           0        1.658021    2.448324   -2.643942
     91          6           0        5.380319    3.712841   -2.555101
     92          6           0        5.293989    4.943327   -3.460757
     93          1           0        6.421697    5.870794   -3.484202
     94          7           0        4.370480   -1.944957   -1.946985
     95          6           0        3.957356   -1.432524   -3.125136
     96          6           0        3.989329   -2.548827   -4.082736
     97          6           0        4.297158   -3.798756   -3.335995
     98          6           0        4.242056   -3.311479   -1.972319
     99          6           0        3.819992   -2.357110   -5.561930
    100          6           0        4.580048   -5.203302   -3.775809
    101          8           0        4.586196   -6.180331   -2.946229
    102          6           0        4.757324   -5.414950   -5.219858
    103          7           0        4.092630   -2.608305    1.000882
    104          6           0        4.001907   -3.850041    0.493144
    105          6           0        3.946536   -4.885532    1.590912
    106          6           0        4.263886   -4.094479    2.944094
    107          6           0        4.364225   -2.659832    2.380965
    108          6           0        2.619784   -5.630487    1.736391
    109          6           0        5.433300   -4.630236    3.814780
    110          6           0        6.746767   -4.432957    3.092785
    111          7           0        4.694055    0.190032    1.588229
    112          6           0        4.606901   -0.275527    2.918543
    113          6           0        4.654093    0.910035    3.798680
    114          6           0        4.742958    1.993272    2.911433
    115          6           0        4.730250    1.517773    1.572317
    116          6           0        4.566534    0.895454    5.219325
    117          6           0        4.833907    3.431559    2.802958
    118          8           0        4.970147    4.356178    3.603118
    119          6           0        4.586028    3.840690    1.287188
    120          6           0        5.657948    4.817716    0.888534
    121          8           0        6.848613    4.462647    0.835078
    122          8           0        5.080097    5.942441    0.428698
    123          6           0        6.102740    6.938003    0.010485
    124          1           0        2.965062    0.033404   -4.284706
    125          1           0        4.039098   -5.148701   -0.967504
    126          1           0        4.533417   -1.748252    4.288659
    127          1           0        3.461551    4.161906   -1.623282
    128          1           0        3.418581    2.559838   -3.940306
    129          1           0        1.433391    3.011914   -1.750600
    130          1           0        1.323229    1.424567   -2.539596
    131          1           0        1.143122    2.845643   -3.523332
    132          1           0        5.681872    2.957696   -3.292366
    133          1           0        6.130486    3.868630   -1.804370
    134          1           0        4.351279    5.487855   -3.327544
    135          1           0        5.265093    4.607766   -4.500258
    136          1           0        3.443815   -1.353808   -5.797043
    137          1           0        3.017067   -3.030090   -5.881729
    138          1           0        4.725590   -2.595265   -6.123920
    139          1           0        3.862422   -5.089723   -5.745051
    140          1           0        5.039300   -6.463976   -5.329007
    141          1           0        5.576630   -4.776645   -5.569023
    142          1           0        4.702851   -5.646604    1.443132
    143          1           0        3.405502   -4.102805    3.631808
    144          1           0        2.724867   -6.728920    1.655901
    145          1           0        1.935108   -5.257992    0.986048
    146          1           0        2.078854   -5.434178    2.660536
    147          1           0        5.325080   -5.705943    3.973828
    148          1           0        5.492240   -4.164415    4.792804
    149          1           0        6.795674   -5.300565    2.427986
    150          1           0        7.575021   -4.429262    3.798486
    151          1           0        6.718821   -3.536218    2.462928
    152          1           0        5.315635    1.585377    5.584524
    153          1           0        4.719529   -0.105722    5.616828
    154          1           0        3.537199    1.238036    5.354817
    155          1           0        3.589128    4.278754    1.224936
    156          1           0        5.896642    7.859425    0.563826
    157          1           0        6.037675    6.987679   -1.092718
    158          1           0        7.131836    6.747894    0.292044
 ---------------------------------------------------------------------

 SCF Done:  E(RCAM-B3LYP) =  -4069.81170721     A.U. after   19 cycles

 Excitation energies and oscillator strengths:

 Excited State   1:      Singlet-A      1.6486 eV  752.06 nm  f=0.0151  <S**2>=0.000
     309 -> 315       -0.11280
     310 -> 316        0.12294
     311 -> 313       -0.46212
     312 -> 314        0.50924
 This state for optimization and/or second-order correction.
 Total Energy, E(TD-HF/TD-DFT) =  -4069.75112240
 Copying the excited state density for this state as the 1-particle RhoCI density.

 Excited State   2:      Singlet-A      1.7024 eV  728.31 nm  f=0.6837  <S**2>=0.000
     309 -> 315        0.13480
     310 -> 316        0.12057
     311 -> 313        0.50663
     312 -> 314        0.45978

 Excited State   3:      Singlet-A      2.1796 eV  568.85 nm  f=0.0234  <S**2>=0.000
     309 -> 313       -0.28618
     310 -> 314        0.57842
     311 -> 315        0.11772
     312 -> 316       -0.23934

 Excited State   4:      Singlet-A      2.1968 eV  564.38 nm  f=0.1520  <S**2>=0.000
     309 -> 313        0.57305
     310 -> 314        0.28151
     311 -> 315       -0.25333
     312 -> 316       -0.12564

 Excited State   5:      Singlet-A      2.3430 eV  529.18 nm  f=0.0000  <S**2>=0.000
     312 -> 313        0.70709

 The electronic state is 1-A.
 Alpha  occ. eigenvalues --  -46.87909 -46.87418 -19.26487 -19.26024 -19.19235
 Alpha  occ. eigenvalues --  -19.18876 -19.18856 -19.18550 -19.18260 -19.17754
 Alpha  occ. eigenvalues --  -14.42575 -14.42238 -14.41561 -14.41119 -14.39509
 Alpha  occ. eigenvalues --  -14.39119 -14.38693 -14.38351 -10.39283 -10.38776
 Alpha  occ. eigenvalues --  -10.35507 -10.35234 -10.34487 -10.33921 -10.31901
 Alpha  occ. eigenvalues --  -10.31535 -10.31467 -10.31047 -10.31027 -10.30758
 Alpha  occ. eigenvalues --  -10.30681 -10.30605 -10.30311 -10.30160 -10.30112
 Alpha  occ. eigenvalues --  -10.30022 -10.29935 -10.29727 -10.29651 -10.29354
 Alpha  occ. eigenvalues --  -10.29222 -10.29176 -10.28948 -10.28862 -10.28477
 Alpha  occ. eigenvalues --  -10.28430 -10.28374 -10.28288 -10.28151 -10.27887
 Alpha  occ. eigenvalues --  -10.27849 -10.27781 -10.27765 -10.27680 -10.27602
 Alpha  occ. eigenvalues --  -10.27598 -10.27546 -10.27527 -10.27427 -10.27355
 Alpha  occ. eigenvalues --  -10.27330 -10.27294 -10.27252 -10.27217 -10.27162
 Alpha  occ. eigenvalues --  -10.26994 -10.26686 -10.26445 -10.26428 -10.26379
 Alpha  occ. eigenvalues --  -10.26321 -10.26296 -10.26124 -10.25983 -10.25883
 Alpha  occ. eigenvalues --  -10.25713 -10.25639 -10.25517 -10.25484 -10.25158
 Alpha  occ. eigenvalues --  -10.24928 -10.24893 -10.24823 -10.24624 -10.24581
 Alpha  occ. eigenvalues --  -10.24449  -3.16651  -3.16168  -1.91533  -1.91120
 Alpha  occ. eigenvalues --   -1.91050  -1.90961  -1.90638  -1.90476  -1.16836
 Alpha  occ. eigenvalues --   -1.16323  -1.08723  -1.08350  -1.07273  -1.06847
 Alpha  occ. eigenvalues --   -1.06806  -1.06638  -1.04708  -1.04231  -1.03872
 Alpha  occ. eigenvalues --   -1.03418  -1.03338  -1.02803  -1.02519  -1.01868
 Alpha  occ. eigenvalues --   -0.92093  -0.91706  -0.89629  -0.89370  -0.89275
 Alpha  occ. eigenvalues --   -0.88822  -0.88395  -0.88004  -0.87956  -0.87808
 Alpha  occ. eigenvalues --   -0.87559  -0.87437  -0.87366  -0.86946  -0.85152
 Alpha  occ. eigenvalues --   -0.84718  -0.84049  -0.83662  -0.83050  -0.82795
 Alpha  occ. eigenvalues --   -0.82775  -0.82386  -0.81738  -0.81324  -0.80726
 Alpha  occ. eigenvalues --   -0.80190  -0.78894  -0.78432  -0.77352  -0.77098
 Alpha  occ. eigenvalues --   -0.76902  -0.76619  -0.76071  -0.75531  -0.75010
 Alpha  occ. eigenvalues --   -0.74560  -0.72880  -0.72459  -0.71795  -0.71299
 Alpha  occ. eigenvalues --   -0.70021  -0.69559  -0.69027  -0.68557  -0.67757
 Alpha  occ. eigenvalues --   -0.67395  -0.67366  -0.66971  -0.65454  -0.64984
 Alpha  occ. eigenvalues --   -0.64981  -0.64763  -0.64520  -0.64387  -0.64382
 Alpha  occ. eigenvalues --   -0.63980  -0.62455  -0.62002  -0.60537  -0.60143
 Alpha  occ. eigenvalues --   -0.59956  -0.59499  -0.59106  -0.58742  -0.58623
 Alpha  occ. eigenvalues --   -0.58171  -0.57724  -0.57420  -0.57252  -0.57001
 Alpha  occ. eigenvalues --   -0.56419  -0.56156  -0.55975  -0.55624  -0.55610
 Alpha  occ. eigenvalues --   -0.55465  -0.55225  -0.55006  -0.54668  -0.54236
 Alpha  occ. eigenvalues --   -0.54078  -0.53603  -0.53405  -0.53359  -0.53067
 Alpha  occ. eigenvalues --   -0.53011  -0.52892  -0.52870  -0.52651  -0.52556
 Alpha  occ. eigenvalues --   -0.52458  -0.52214  -0.51989  -0.51776  -0.51654
 Alpha  occ. eigenvalues --   -0.51399  -0.51320  -0.50945  -0.50659  -0.50326
 Alpha  occ. eigenvalues --   -0.50147  -0.50027  -0.49738  -0.49651  -0.49645
 Alpha  occ. eigenvalues --   -0.49335  -0.49242  -0.49242  -0.48941  -0.48771
 Alpha  occ. eigenvalues --   -0.48728  -0.48567  -0.48537  -0.48279  -0.48165
 Alpha  occ. eigenvalues --   -0.48116  -0.47824  -0.47411  -0.47350  -0.46924
 Alpha  occ. eigenvalues --   -0.46907  -0.46728  -0.46473  -0.46467  -0.46277
 Alpha  occ. eigenvalues --   -0.46274  -0.46050  -0.45948  -0.45839  -0.45547
 Alpha  occ. eigenvalues --   -0.45309  -0.44969  -0.44698  -0.44637  -0.44260
 Alpha  occ. eigenvalues --   -0.44258  -0.44237  -0.44222  -0.44131  -0.43872
 Alpha  occ. eigenvalues --   -0.43828  -0.43702  -0.43635  -0.43527  -0.43281
 Alpha  occ. eigenvalues --   -0.43146  -0.43115  -0.42868  -0.42780  -0.42662
 Alpha  occ. eigenvalues --   -0.42615  -0.42349  -0.42148  -0.41826  -0.41733
 Alpha  occ. eigenvalues --   -0.41703  -0.41390  -0.41267  -0.41196  -0.41032
 Alpha  occ. eigenvalues --   -0.40930  -0.40707  -0.40689  -0.40531  -0.40455
 Alpha  occ. eigenvalues --   -0.40443  -0.40246  -0.39967  -0.39562  -0.39238
 Alpha  occ. eigenvalues --   -0.38596  -0.38121  -0.37967  -0.37437  -0.37421
 Alpha  occ. eigenvalues --   -0.37402  -0.37035  -0.36932  -0.36888  -0.36487
 Alpha  occ. eigenvalues --   -0.36340  -0.35962  -0.34400  -0.34003  -0.33965
 Alpha  occ. eigenvalues --   -0.33568  -0.33303  -0.32933  -0.31409  -0.31151
 Alpha  occ. eigenvalues --   -0.31105  -0.30718  -0.30124  -0.29650  -0.29542
 Alpha  occ. eigenvalues --   -0.29415  -0.29116  -0.28963  -0.24196  -0.23783
 Alpha  occ. eigenvalues --   -0.21237  -0.20875
 Alpha virt. eigenvalues --   -0.08878  -0.08556  -0.01858  -0.01449  -0.00154
 Alpha virt. eigenvalues --    0.00190   0.02104   0.02460   0.02840   0.03509
 Alpha virt. eigenvalues --    0.04546   0.04881   0.05008   0.05477   0.05887

 Mulliken charges:
               1
     1  Mg   0.838634
     2  C   -0.003694
     3  C   -0.095024
     4  C   -0.045469
     5  C   -0.063556
     6  N   -0.256667
     7  C   -0.053005
     8  C   -0.013844
     9  C   -0.086873
    10  C    0.045928
    11  C    0.104765
    12  C    0.053486
    13  C   -0.071104
    14  H    0.033345
    15  N   -0.433221
    16  C    0.168377
    17  C   -0.177401
    18  C   -0.003512
    19  C    0.148808
    20  C    0.110260
    21  C    0.013061
    22  O   -0.249158
    23  C    0.062331
    24  N   -0.340993
    25  C    0.041129
    26  C   -0.028253
    27  C   -0.023937
    28  C    0.074658
    29  C    0.076069
    30  C    0.035102
    31  C   -0.004617
    32  N   -0.310577
    33  C    0.080451
    34  C   -0.168962
    35  C    0.008749
    36  C    0.082960
    37  C    0.127088
    38  C    0.046389
    39  O   -0.187449
    40  C   -0.005634
    41  C    0.213698
    42  O   -0.258920
    43  O   -0.304342
    44  C    0.157687
    45  H   -0.017728
    46  H   -0.016515
    47  H   -0.041056
    48  H    0.001240
    49  H   -0.004765
    50  H    0.025737
    51  H    0.016903
    52  H    0.016680
    53  H    0.009931
    54  H    0.043023
    55  H    0.019172
    56  H    0.017606
    57  H    0.005288
    58  H    0.027203
    59  H    0.038977
    60  H    0.036956
    61  H    0.036722
    62  H    0.031670
    63  H    0.016504
    64  H    0.009798
    65  H    0.023411
    66  H    0.012684
    67  H    0.004963
    68  H    0.006316
    69  H    0.005143
    70  H    0.008130
    71  H    0.017216
    72  H    0.029930
    73  H    0.048901
    74  H    0.009327
    75  H    0.046143
    76  H    0.035440
    77  H    0.044008
    78  H    0.045651
    79  H    0.052792
    80  Mg   0.837502
    81  C   -0.016100
    82  C   -0.088072
    83  C   -0.045984
    84  C   -0.065559
    85  N   -0.254814
    86  C   -0.047735
    87  C   -0.015400
    88  C   -0.091241
    89  C    0.046427
    90  C    0.112796
    91  C    0.062580
    92  C   -0.077188
    93  H    0.033684
    94  N   -0.423353
    95  C    0.162832
    96  C   -0.175823
    97  C   -0.008475
    98  C    0.151946
    99  C    0.100087
   100  C    0.014814
   101  O   -0.253504
   102  C    0.061517
   103  N   -0.350177
   104  C    0.037492
   105  C   -0.019758
   106  C   -0.034600
   107  C    0.089323
   108  C    0.073548
   109  C    0.034846
   110  C   -0.007543
   111  N   -0.324402
   112  C    0.079203
   113  C   -0.163219
   114  C    0.003451
   115  C    0.096015
   116  C    0.131177
   117  C    0.043418
   118  O   -0.187017
   119  C    0.000161
   120  C    0.210647
   121  O   -0.252152
   122  O   -0.304166
   123  C    0.152440
   124  H   -0.021144
   125  H   -0.015997
   126  H   -0.041349
   127  H    0.002786
   128  H   -0.006481
   129  H    0.035076
   130  H    0.012056
   131  H    0.013473
   132  H    0.012980
   133  H    0.037328
   134  H    0.021242
   135  H    0.018433
   136  H    0.007972
   137  H    0.023829
   138  H    0.039108
   139  H    0.036904
   140  H    0.035774
   141  H    0.033782
   142  H    0.013849
   143  H    0.011713
   144  H    0.025065
   145  H    0.012942
   146  H    0.005292
   147  H    0.005851
   148  H    0.003061
   149  H    0.010794
   150  H    0.017430
   151  H    0.030391
   152  H    0.045833
   153  H    0.007519
   154  H    0.047669
   155  H    0.041430
   156  H    0.044045
   157  H    0.048819
   158  H    0.052732
 Sum of Mulliken charges =  -0.00000

 Dipole moment (field-independent basis, Debye):
    X=             -4.8062    Y=             -1.8540    Z=             -6.9686  Tot=              8.6659
 Quadrupole moment (field-independent basis, Debye-Ang):
   XX=           -518.5432   YY=           -548.1538   ZZ=           -451.7151
   XY=             -2.7564   XZ=              0.7127   YZ=            -46.0401

 Normal termination of Gaussian 16 at Thu Aug 19 18:58:27 2021.
