 Gaussian 16, Revision A.03,
 Gaussian 16:  ES64L-G16RevA.03 25-Dec-2016

 -----------------------------------
 #p cam-b3lyp/Def2SVP td=(nstates=5)
 -----------------------------------

 --------------------------------
 TDDFT excited states in gaussian
 --------------------------------
 Symbolic Z-matrix:
 Charge =  0 Multiplicity = 1

                         Standard orientation:
 ---------------------------------------------------------------------
 Center     Atomic      Atomic             Coordinates (Angstroms)
 Number     Number       Type             X           Y           Z
 ---------------------------------------------------------------------
      1         12           0        4.230945    1.249694    0.455753
      2          6           0        5.362654   -1.699000   -1.228484
      3          6           0        4.670090    2.919333   -2.487463
      4          6           0        3.672905    3.946619    2.027951
      5          6           0        4.961940   -0.362835    3.457595
      6          7           0        4.930930    0.584461   -1.536264
      7          6           0        5.277014   -0.584621   -2.066023
      8          6           0        5.467251   -0.530535   -3.611422
      9          6           0        5.781523    1.024269   -3.772100
     10          6           0        5.055138    1.546953   -2.545279
     11          6           0        7.263551    1.362440   -3.646655
     12          6           0        4.167413   -0.935210   -4.384979
     13          6           0        4.358015   -1.223766   -5.876877
     14          1           0        3.560641   -2.272458   -6.494768
     15          7           0        3.713616    3.036676   -0.209014
     16          6           0        3.958829    3.544792   -1.440669
     17          6           0        3.376804    4.904172   -1.444040
     18          6           0        2.940950    5.215977   -0.054470
     19          6           0        3.455490    4.074549    0.658108
     20          6           0        3.235868    5.735826   -2.681876
     21          6           0        2.190401    6.366032    0.538980
     22          8           0        2.119407    6.552866    1.801765
     23          6           0        1.607186    7.330334   -0.411296
     24          7           0        4.508625    1.817038    2.445388
     25          6           0        4.129243    3.024463    2.878029
     26          6           0        4.162738    3.103244    4.375564
     27          6           0        4.413230    1.612881    4.891148
     28          6           0        4.569993    0.911781    3.519232
     29          6           0        5.225775    4.035404    4.973094
     30          6           0        3.389297    1.036778    5.901141
     31          6           0        2.049567    0.851483    5.224467
     32          7           0        4.853149   -0.742106    1.052947
     33          6           0        5.120932   -1.186610    2.355783
     34          6           0        5.612565   -2.572436    2.246910
     35          6           0        5.612332   -2.833874    0.878153
     36          6           0        5.174803   -1.675386    0.174756
     37          6           0        6.043887   -3.391008    3.327805
     38          6           0        5.903363   -3.814208   -0.155338
     39          8           0        6.215687   -5.005822   -0.156977
     40          6           0        5.869541   -3.078772   -1.567364
     41          6           0        5.043039   -3.922232   -2.499447
     42          8           0        3.817859   -4.068878   -2.312912
     43          8           0        5.769120   -4.225523   -3.586352
     44          6           0        4.997788   -5.036814   -4.565642
     45          1           0        4.991281    3.591715   -3.285385
     46          1           0        3.386836    4.819692    2.618159
     47          1           0        5.129343   -0.957680    4.357367
     48          1           0        6.303582   -1.120182   -3.987310
     49          1           0        5.339627    1.437201   -4.678707
     50          1           0        7.845648    0.494041   -3.338487
     51          1           0        7.320281    2.146365   -2.891185
     52          1           0        7.638776    1.807180   -4.568712
     53          1           0        3.502598   -0.073616   -4.446114
     54          1           0        3.687014   -1.791670   -3.910617
     55          1           0        5.411968   -1.347520   -6.127430
     56          1           0        4.047999   -0.341931   -6.437641
     57          1           0        3.794222    5.311324   -3.515293
     58          1           0        3.726763    6.688313   -2.483128
     59          1           0        2.191830    5.907968   -2.943953
     60          1           0        2.401121    7.754626   -1.026269
     61          1           0        1.032899    8.034702    0.189462
     62          1           0        0.943392    6.797253   -1.092583
     63          1           0        3.213000    3.462640    4.769592
     64          1           0        5.372963    1.511447    5.398393
     65          1           0        4.815179    4.806521    5.625393
     66          1           0        5.787261    4.477331    4.150461
     67          1           0        6.015991    3.530890    5.528469
     68          1           0        3.238423    1.731926    6.726340
     69          1           0        3.694542    0.080027    6.325055
     70          1           0        1.602955    1.842766    5.293213
     71          1           0        1.450658    0.115331    5.761681
     72          1           0        2.167012    0.619716    4.165705
     73          1           0        5.617088   -4.378363    3.151902
     74          1           0        5.720481   -2.984617    4.285854
     75          1           0        7.124974   -3.343988    3.197821
     76          1           0        6.903221   -2.992891   -1.900907
     77          1           0        5.570444   -5.945557   -4.751341
     78          1           0        4.793421   -4.385050   -5.415255
     79          1           0        4.056376   -5.456108   -4.208885
     80         12           0       -4.381026   -1.373953    0.361149
     81          6           0       -5.014478    1.484279   -1.714507
     82          6           0       -4.151520    0.778234    2.997433
     83          6           0       -3.378775   -3.807866    2.132861
     84          6           0       -3.535882   -3.116859   -2.536048
     85          7           0       -4.577520    0.824916    0.497586
     86          6           0       -4.880063    1.799866   -0.346383
     87          6           0       -5.127118    3.177721    0.324477
     88          6           0       -4.277689    2.946975    1.667640
     89          6           0       -4.365466    1.424631    1.753859
     90          6           0       -2.814733    3.333928    1.528456
     91          6           0       -6.644097    3.425647    0.639655
     92          6           0       -6.996734    4.868146    1.009250
     93          1           0       -8.285748    5.401912    0.577974
     94          7           0       -4.321474   -1.588073    2.333246
     95          6           0       -4.252587   -0.606303    3.256632
     96          6           0       -4.211994   -1.283723    4.561859
     97          6           0       -4.096281   -2.748645    4.326648
     98          6           0       -3.902501   -2.770564    2.890655
     99          6           0       -4.361003   -0.551353    5.863727
    100          6           0       -4.138576   -3.932972    5.244137
    101          8           0       -3.778677   -5.099788    4.854482
    102          6           0       -4.524690   -3.669016    6.637961
    103          7           0       -3.372932   -3.132718   -0.100177
    104          6           0       -3.105306   -4.045746    0.849918
    105          6           0       -2.624793   -5.341548    0.241306
    106          6           0       -2.856675   -5.188496   -1.333619
    107          6           0       -3.370783   -3.732642   -1.373408
    108          6           0       -1.162944   -5.699855    0.507769
    109          6           0       -3.701204   -6.289929   -2.030953
    110          6           0       -5.134788   -6.218992   -1.556400
    111          7           0       -4.457822   -0.989450   -1.763543
    112          6           0       -4.029856   -1.846046   -2.801414
    113          6           0       -4.175645   -1.101064   -4.068763
    114          6           0       -4.660453    0.155267   -3.674962
    115          6           0       -4.787373    0.197654   -2.260183
    116          6           0       -3.830030   -1.584293   -5.362273
    117          6           0       -5.083634    1.458856   -4.133508
    118          8           0       -5.271933    1.973285   -5.235170
    119          6           0       -5.211834    2.420398   -2.874394
    120          6           0       -6.526555    3.144262   -2.974681
    121          8           0       -7.599331    2.520503   -2.892986
    122          8           0       -6.303736    4.470501   -2.932001
    123          6           0       -7.578849    5.231195   -3.017108
    124          1           0       -3.834907    1.382076    3.848332
    125          1           0       -3.121146   -4.713323    2.687174
    126          1           0       -3.386282   -3.623956   -3.491629
    127          1           0       -4.734344    4.026313   -0.222694
    128          1           0       -4.762463    3.406042    2.525314
    129          1           0       -2.560831    3.590116    0.510596
    130          1           0       -2.249760    2.470042    1.853344
    131          1           0       -2.568632    4.136217    2.229957
    132          1           0       -6.901202    2.922393    1.580593
    133          1           0       -7.260719    3.100448   -0.175600
    134          1           0       -6.188735    5.566759    0.760175
    135          1           0       -7.084388    4.936325    2.096308
    136          1           0       -4.263880    0.532960    5.728682
    137          1           0       -3.501681   -0.825727    6.485133
    138          1           0       -5.278816   -0.815874    6.393171
    139          1           0       -3.834086   -2.951248    7.074262
    140          1           0       -4.584111   -4.649042    7.115336
    141          1           0       -5.513812   -3.197609    6.643709
    142          1           0       -3.209182   -6.178731    0.602831
    143          1           0       -1.907041   -5.201692   -1.888459
    144          1           0       -1.036759   -6.686083    0.993049
    145          1           0       -0.725192   -4.918562    1.114812
    146          1           0       -0.519529   -5.697946   -0.370419
    147          1           0       -3.332000   -7.281060   -1.756169
    148          1           0       -3.682168   -6.228012   -3.113907
    149          1           0       -5.111840   -6.779671   -0.617143
    150          1           0       -5.801005   -6.686243   -2.278805
    151          1           0       -5.419810   -5.187735   -1.317822
    152          1           0       -4.633228   -1.295868   -6.027240
    153          1           0       -3.684171   -2.662480   -5.358017
    154          1           0       -2.894187   -1.044119   -5.528639
    155          1           0       -4.364060    3.106177   -2.898239
    156          1           0       -7.483267    5.921654   -3.860801
    157          1           0       -7.728158    5.677036   -2.015771
    158          1           0       -8.472106    4.682910   -3.292678
 ---------------------------------------------------------------------

 SCF Done:  E(RCAM-B3LYP) =  -4069.81234680     A.U. after   19 cycles

 Excitation energies and oscillator strengths:

 Excited State   1:      Singlet-A      1.6610 eV  746.42 nm  f=0.1808  <S**2>=0.000
     309 -> 315       -0.10449
     310 -> 316       -0.13448
     311 -> 313        0.42252
     312 -> 314        0.54139
 This state for optimization and/or second-order correction.
 Total Energy, E(TD-HF/TD-DFT) =  -4069.75130449
 Copying the excited state density for this state as the 1-particle RhoCI density.

 Excited State   2:      Singlet-A      1.6856 eV  735.55 nm  f=0.4977  <S**2>=0.000
     309 -> 315       -0.13915
     310 -> 316        0.10811
     311 -> 313        0.53992
     312 -> 314       -0.42143

 Excited State   3:      Singlet-A      2.1820 eV  568.21 nm  f=0.0707  <S**2>=0.000
     309 -> 313        0.24085
     310 -> 314        0.59733
     311 -> 315        0.10056
     312 -> 316        0.24974

 Excited State   4:      Singlet-A      2.1935 eV  565.24 nm  f=0.1211  <S**2>=0.000
     309 -> 313        0.59368
     310 -> 314       -0.23853
     311 -> 315        0.25868
     312 -> 316       -0.10494

 Excited State   5:      Singlet-A      2.3445 eV  528.82 nm  f=0.0000  <S**2>=0.000
     312 -> 313        0.70707

 The electronic state is 1-A.
 Alpha  occ. eigenvalues --  -46.87917 -46.87438 -19.26428 -19.26294 -19.19180
 Alpha  occ. eigenvalues --  -19.19080 -19.18986 -19.18534 -19.18288 -19.17930
 Alpha  occ. eigenvalues --  -14.42562 -14.42280 -14.41580 -14.41104 -14.39527
 Alpha  occ. eigenvalues --  -14.39140 -14.38705 -14.38393 -10.39234 -10.39007
 Alpha  occ. eigenvalues --  -10.35619 -10.35214 -10.34509 -10.34109 -10.31824
 Alpha  occ. eigenvalues --  -10.31725 -10.31507 -10.31110 -10.31021 -10.30824
 Alpha  occ. eigenvalues --  -10.30680 -10.30639 -10.30344 -10.30187 -10.30170
 Alpha  occ. eigenvalues --  -10.30061 -10.29860 -10.29753 -10.29622 -10.29375
 Alpha  occ. eigenvalues --  -10.29216 -10.29214 -10.28834 -10.28593 -10.28549
 Alpha  occ. eigenvalues --  -10.28536 -10.28483 -10.28212 -10.28193 -10.27930
 Alpha  occ. eigenvalues --  -10.27908 -10.27832 -10.27815 -10.27709 -10.27674
 Alpha  occ. eigenvalues --  -10.27630 -10.27550 -10.27524 -10.27452 -10.27321
 Alpha  occ. eigenvalues --  -10.27282 -10.27282 -10.27281 -10.27109 -10.26939
 Alpha  occ. eigenvalues --  -10.26938 -10.26778 -10.26575 -10.26550 -10.26398
 Alpha  occ. eigenvalues --  -10.26303 -10.26276 -10.26144 -10.25930 -10.25808
 Alpha  occ. eigenvalues --  -10.25762 -10.25722 -10.25684 -10.25602 -10.24950
 Alpha  occ. eigenvalues --  -10.24948 -10.24926 -10.24716 -10.24695 -10.24455
 Alpha  occ. eigenvalues --  -10.24442  -3.16660  -3.16189  -1.91541  -1.91128
 Alpha  occ. eigenvalues --   -1.91071  -1.90970  -1.90659  -1.90497  -1.16779
 Alpha  occ. eigenvalues --   -1.16582  -1.08747  -1.08548  -1.07393  -1.06867
 Alpha  occ. eigenvalues --   -1.06798  -1.06786  -1.04694  -1.04287  -1.03888
 Alpha  occ. eigenvalues --   -1.03440  -1.03358  -1.02800  -1.02535  -1.01884
 Alpha  occ. eigenvalues --   -0.92092  -0.91806  -0.89678  -0.89274  -0.89226
 Alpha  occ. eigenvalues --   -0.88950  -0.88446  -0.87976  -0.87891  -0.87783
 Alpha  occ. eigenvalues --   -0.87620  -0.87455  -0.87395  -0.86946  -0.85083
 Alpha  occ. eigenvalues --   -0.84802  -0.84110  -0.83553  -0.83117  -0.82767
 Alpha  occ. eigenvalues --   -0.82722  -0.82455  -0.81713  -0.81454  -0.80723
 Alpha  occ. eigenvalues --   -0.80270  -0.78910  -0.78454  -0.77345  -0.77049
 Alpha  occ. eigenvalues --   -0.76940  -0.76678  -0.76032  -0.75658  -0.75047
 Alpha  occ. eigenvalues --   -0.74444  -0.72893  -0.72487  -0.71794  -0.71312
 Alpha  occ. eigenvalues --   -0.70092  -0.69425  -0.68981  -0.68635  -0.67769
 Alpha  occ. eigenvalues --   -0.67395  -0.67321  -0.67036  -0.65391  -0.65093
 Alpha  occ. eigenvalues --   -0.64982  -0.64752  -0.64570  -0.64457  -0.64420
 Alpha  occ. eigenvalues --   -0.63909  -0.62437  -0.62124  -0.60574  -0.60121
 Alpha  occ. eigenvalues --   -0.59901  -0.59605  -0.59115  -0.58767  -0.58632
 Alpha  occ. eigenvalues --   -0.58219  -0.57713  -0.57453  -0.57428  -0.56997
 Alpha  occ. eigenvalues --   -0.56425  -0.56107  -0.56030  -0.55751  -0.55648
 Alpha  occ. eigenvalues --   -0.55498  -0.55300  -0.54995  -0.54681  -0.54233
 Alpha  occ. eigenvalues --   -0.53986  -0.53717  -0.53432  -0.53339  -0.53053
 Alpha  occ. eigenvalues --   -0.53027  -0.52961  -0.52876  -0.52728  -0.52631
 Alpha  occ. eigenvalues --   -0.52501  -0.52108  -0.52019  -0.51733  -0.51718
 Alpha  occ. eigenvalues --   -0.51495  -0.51325  -0.51016  -0.50696  -0.50296
 Alpha  occ. eigenvalues --   -0.50189  -0.50045  -0.49780  -0.49632  -0.49529
 Alpha  occ. eigenvalues --   -0.49334  -0.49306  -0.49194  -0.49037  -0.48920
 Alpha  occ. eigenvalues --   -0.48713  -0.48613  -0.48584  -0.48392  -0.48176
 Alpha  occ. eigenvalues --   -0.48038  -0.47819  -0.47420  -0.47386  -0.46925
 Alpha  occ. eigenvalues --   -0.46880  -0.46654  -0.46487  -0.46480  -0.46340
 Alpha  occ. eigenvalues --   -0.46295  -0.46058  -0.45937  -0.45826  -0.45647
 Alpha  occ. eigenvalues --   -0.45355  -0.44841  -0.44700  -0.44638  -0.44335
 Alpha  occ. eigenvalues --   -0.44291  -0.44271  -0.44192  -0.44141  -0.43944
 Alpha  occ. eigenvalues --   -0.43839  -0.43781  -0.43624  -0.43505  -0.43402
 Alpha  occ. eigenvalues --   -0.43155  -0.43152  -0.42859  -0.42819  -0.42815
 Alpha  occ. eigenvalues --   -0.42674  -0.42266  -0.42159  -0.41831  -0.41727
 Alpha  occ. eigenvalues --   -0.41636  -0.41465  -0.41260  -0.41245  -0.40994
 Alpha  occ. eigenvalues --   -0.40972  -0.40742  -0.40719  -0.40543  -0.40488
 Alpha  occ. eigenvalues --   -0.40319  -0.40172  -0.40070  -0.39640  -0.39103
 Alpha  occ. eigenvalues --   -0.38620  -0.38020  -0.37843  -0.37475  -0.37464
 Alpha  occ. eigenvalues --   -0.37364  -0.37031  -0.36968  -0.36864  -0.36638
 Alpha  occ. eigenvalues --   -0.36336  -0.35947  -0.34407  -0.34037  -0.33926
 Alpha  occ. eigenvalues --   -0.33754  -0.33313  -0.32957  -0.31516  -0.31163
 Alpha  occ. eigenvalues --   -0.31087  -0.30754  -0.30147  -0.29838  -0.29575
 Alpha  occ. eigenvalues --   -0.29438  -0.29143  -0.29033  -0.24202  -0.23816
 Alpha  occ. eigenvalues --   -0.21248  -0.20895
 Alpha virt. eigenvalues --   -0.08896  -0.08590  -0.01881  -0.01447  -0.00190
 Alpha virt. eigenvalues --    0.00151   0.02073   0.02375   0.02827   0.03496
 Alpha virt. eigenvalues --    0.04611   0.04951   0.04956   0.05258   0.06088

 Mulliken charges:
               1
     1  Mg   0.838893
     2  C   -0.003016
     3  C   -0.093140
     4  C   -0.046724
     5  C   -0.063787
     6  N   -0.256791
     7  C   -0.052179
     8  C   -0.014160
     9  C   -0.087114
    10  C    0.046275
    11  C    0.104689
    12  C    0.053268
    13  C   -0.071992
    14  H    0.035680
    15  N   -0.433118
    16  C    0.168322
    17  C   -0.176638
    18  C   -0.004509
    19  C    0.148617
    20  C    0.109887
    21  C    0.011128
    22  O   -0.251051
    23  C    0.062674
    24  N   -0.341046
    25  C    0.041376
    26  C   -0.028006
    27  C   -0.023866
    28  C    0.074513
    29  C    0.076173
    30  C    0.035262
    31  C   -0.004281
    32  N   -0.310536
    33  C    0.080532
    34  C   -0.169294
    35  C    0.008349
    36  C    0.082993
    37  C    0.127317
    38  C    0.045908
    39  O   -0.188298
    40  C   -0.005342
    41  C    0.213233
    42  O   -0.258438
    43  O   -0.304366
    44  C    0.158000
    45  H   -0.016984
    46  H   -0.017660
    47  H   -0.041349
    48  H    0.001040
    49  H   -0.003224
    50  H    0.025464
    51  H    0.016393
    52  H    0.017169
    53  H    0.012123
    54  H    0.043341
    55  H    0.018005
    56  H    0.019082
    57  H    0.006731
    58  H    0.026904
    59  H    0.040620
    60  H    0.038348
    61  H    0.034671
    62  H    0.031554
    63  H    0.014962
    64  H    0.009836
    65  H    0.022700
    66  H    0.013023
    67  H    0.005072
    68  H    0.005611
    69  H    0.005604
    70  H    0.005966
    71  H    0.017691
    72  H    0.030313
    73  H    0.048018
    74  H    0.009347
    75  H    0.046132
    76  H    0.035548
    77  H    0.043300
    78  H    0.046918
    79  H    0.052299
    80  Mg   0.837695
    81  C   -0.017467
    82  C   -0.088437
    83  C   -0.045242
    84  C   -0.062903
    85  N   -0.254806
    86  C   -0.050085
    87  C   -0.014981
    88  C   -0.090364
    89  C    0.045800
    90  C    0.114385
    91  C    0.062590
    92  C   -0.077569
    93  H    0.033961
    94  N   -0.423577
    95  C    0.163324
    96  C   -0.175003
    97  C   -0.007753
    98  C    0.152345
    99  C    0.099652
   100  C    0.015199
   101  O   -0.252519
   102  C    0.061377
   103  N   -0.350146
   104  C    0.039066
   105  C   -0.021059
   106  C   -0.034733
   107  C    0.089316
   108  C    0.070882
   109  C    0.034500
   110  C   -0.007434
   111  N   -0.323916
   112  C    0.078145
   113  C   -0.163449
   114  C    0.001389
   115  C    0.096349
   116  C    0.131855
   117  C    0.041409
   118  O   -0.189856
   119  C    0.001353
   120  C    0.211205
   121  O   -0.250891
   122  O   -0.306145
   123  C    0.152138
   124  H   -0.019502
   125  H   -0.014734
   126  H   -0.040416
   127  H   -0.001982
   128  H   -0.004494
   129  H    0.020277
   130  H    0.014679
   131  H    0.020076
   132  H    0.013935
   133  H    0.037277
   134  H    0.020565
   135  H    0.019812
   136  H    0.008788
   137  H    0.025088
   138  H    0.039406
   139  H    0.037469
   140  H    0.036169
   141  H    0.033695
   142  H    0.013259
   143  H    0.016712
   144  H    0.024207
   145  H    0.013471
   146  H    0.015589
   147  H    0.006876
   148  H    0.002691
   149  H    0.010830
   150  H    0.016809
   151  H    0.029335
   152  H    0.045083
   153  H    0.008728
   154  H    0.045611
   155  H    0.032919
   156  H    0.042958
   157  H    0.049685
   158  H    0.053562
 Sum of Mulliken charges =  -0.00000

 Dipole moment (field-independent basis, Debye):
    X=              2.9585    Y=              4.8363    Z=              1.1942  Tot=              5.7939
 Quadrupole moment (field-independent basis, Debye-Ang):
   XX=           -523.4529   YY=           -519.2901   ZZ=           -477.2812
   XY=             10.1738   XZ=            -40.4308   YZ=             15.2509

 Normal termination of Gaussian 16 at Thu Aug 19 20:10:18 2021.
