 Gaussian 16, Revision A.03,
 Gaussian 16:  ES64L-G16RevA.03 25-Dec-2016

 -----------------------------------
 #p cam-b3lyp/Def2SVP td=(nstates=5)
 -----------------------------------

 --------------------------------
 TDDFT excited states in gaussian
 --------------------------------
 Symbolic Z-matrix:
 Charge =  0 Multiplicity = 1

                         Standard orientation:
 ---------------------------------------------------------------------
 Center     Atomic      Atomic             Coordinates (Angstroms)
 Number     Number       Type             X           Y           Z
 ---------------------------------------------------------------------
      1         12           0        4.089147   -1.680697    0.052516
      2          6           0        5.513794    1.404748   -1.071151
      3          6           0        5.426025   -1.009093    3.119235
      4          6           0        3.233843   -4.601225    0.944474
      5          6           0        3.858618   -2.622741   -3.294882
      6          7           0        5.295296    0.016275    0.804937
      7          6           0        5.722595    1.164365    0.288725
      8          6           0        6.347296    2.122763    1.346362
      9          6           0        6.766958    1.046148    2.444899
     10          6           0        5.746710   -0.033369    2.129207
     11          6           0        8.166099    0.475902    2.235795
     12          6           0        5.304005    3.143299    1.913620
     13          6           0        5.897732    4.315621    2.700070
     14          1           0        5.260965    5.620164    2.599842
     15          7           0        3.867017   -2.456008    1.855957
     16          6           0        4.476343   -2.046099    2.994369
     17          6           0        3.983872   -2.939673    4.064732
     18          6           0        3.185555   -4.021035    3.423296
     19          6           0        3.421715   -3.747345    2.028771
     20          6           0        4.240430   -2.698689    5.520704
     21          6           0        2.351969   -5.132048    3.979098
     22          8           0        1.933219   -6.097171    3.252626
     23          6           0        2.109415   -5.107353    5.432920
     24          7           0        3.815153   -3.463370   -0.998502
     25          6           0        3.385425   -4.569345   -0.381140
     26          6           0        2.994806   -5.628962   -1.368342
     27          6           0        3.017856   -4.927138   -2.802449
     28          6           0        3.525649   -3.528674   -2.372664
     29          6           0        3.886259   -6.878160   -1.397122
     30          6           0        1.722859   -5.013657   -3.648567
     31          6           0        0.624091   -4.210943   -2.988677
     32          7           0        4.421313   -0.728223   -1.869333
     33          6           0        4.285879   -1.315065   -3.135803
     34          6           0        4.722520   -0.312852   -4.125238
     35          6           0        5.099743    0.788707   -3.359656
     36          6           0        4.935503    0.483987   -1.978185
     37          6           0        4.789295   -0.506006   -5.533310
     38          6           0        5.626621    2.143532   -3.386229
     39          8           0        5.870168    2.961982   -4.274100
     40          6           0        6.030813    2.553175   -1.901423
     41          6           0        5.465254    3.922077   -1.637683
     42          8           0        4.232198    4.103481   -1.574187
     43          8           0        6.455675    4.748696   -1.268482
     44          6           0        5.957890    6.116638   -0.963357
     45          1           0        5.992315   -1.019871    4.052584
     46          1           0        2.832893   -5.583662    1.202343
     47          1           0        3.734778   -2.815497   -4.362103
     48          1           0        7.227384    2.666821    1.003040
     49          1           0        6.621386    1.420493    3.458011
     50          1           0        8.594910    0.808932    1.290737
     51          1           0        8.042125   -0.607206    2.236914
     52          1           0        8.808780    0.704810    3.086288
     53          1           0        4.725338    2.664213    2.703356
     54          1           0        4.668762    3.529362    1.115656
     55          1           0        6.972375    4.401575    2.536785
     56          1           0        5.801978    4.096802    3.763625
     57          1           0        4.992392   -1.925294    5.672222
     58          1           0        4.698578   -3.604444    5.917461
     59          1           0        3.323511   -2.480279    6.068326
     60          1           0        3.064598   -5.135874    5.957669
     61          1           0        1.421583   -5.927166    5.636989
     62          1           0        1.642809   -4.157875    5.696962
     63          1           0        1.990158   -5.998974   -1.167843
     64          1           0        3.787571   -5.346567   -3.450749
     65          1           0        3.343614   -7.807457   -1.222053
     66          1           0        4.678836   -6.743596   -0.661591
     67          1           0        4.461036   -7.008508   -2.313668
     68          1           0        1.376091   -6.044832   -3.706681
     69          1           0        1.849492   -4.648401   -4.667784
     70          1           0        0.223453   -4.906349   -2.251973
     71          1           0       -0.136867   -3.935129   -3.719485
     72          1           0        1.027113   -3.356428   -2.444745
     73          1           0        4.384373    0.399545   -5.984956
     74          1           0        4.225949   -1.387279   -5.839256
     75          1           0        5.863608   -0.629107   -5.669520
     76          1           0        7.119520    2.544951   -1.859335
     77          1           0        6.516385    6.809317   -1.593049
     78          1           0        6.034731    6.240540    0.116989
     79          1           0        4.935261    6.337315   -1.271366
     80         12           0       -4.250440    1.696939    0.370845
     81          6           0       -5.398204   -1.608882   -0.424941
     82          6           0       -3.310366    1.995036   -2.894424
     83          6           0       -2.825997    4.427621    1.133589
     84          6           0       -4.222322    0.730919    3.719241
     85          7           0       -4.389425    0.304371   -1.341949
     86          6           0       -4.900619   -0.901504   -1.539160
     87          6           0       -4.950496   -1.343619   -3.026306
     88          6           0       -3.774106   -0.409687   -3.594405
     89          6           0       -3.845194    0.722320   -2.571566
     90          6           0       -2.399332   -1.050712   -3.502627
     91          6           0       -6.326227   -1.010165   -3.703196
     92          6           0       -6.558027   -1.686721   -5.056092
     93          1           0       -7.912058   -2.113615   -5.397903
     94          7           0       -3.666711    3.205761   -0.778627
     95          6           0       -3.347085    3.154303   -2.088761
     96          6           0       -2.962991    4.524115   -2.463285
     97          6           0       -2.923657    5.354357   -1.228830
     98          6           0       -3.121326    4.334262   -0.218672
     99          6           0       -2.753609    4.949893   -3.887461
    100          6           0       -2.726358    6.821573   -0.995276
    101          8           0       -2.491188    7.291668    0.173717
    102          6           0       -2.723769    7.680796   -2.188257
    103          7           0       -3.413631    2.405331    2.137278
    104          6           0       -2.907288    3.648669    2.212457
    105          6           0       -2.615309    4.033150    3.643304
    106          6           0       -3.259178    2.875411    4.539209
    107          6           0       -3.756023    1.935339    3.419030
    108          6           0       -1.137743    4.191164    4.001400
    109          6           0       -4.266417    3.313365    5.637537
    110          6           0       -5.520271    3.864641    4.997754
    111          7           0       -4.890535   -0.032893    1.496027
    112          6           0       -4.761281   -0.241552    2.886648
    113          6           0       -5.236181   -1.612010    3.167255
    114          6           0       -5.590029   -2.117719    1.907283
    115          6           0       -5.333488   -1.139185    0.909204
    116          6           0       -5.252333   -2.241810    4.443662
    117          6           0       -6.112270   -3.260634    1.193335
    118          8           0       -6.585239   -4.347988    1.521504
    119          6           0       -5.892824   -3.027391   -0.363533
    120          6           0       -7.181860   -3.351039   -1.067924
    121          8           0       -8.197564   -2.659401   -0.876631
    122          8           0       -6.947411   -4.282886   -2.009760
    123          6           0       -8.193991   -4.628968   -2.743296
    124          1           0       -2.773818    2.108458   -3.836839
    125          1           0       -2.435146    5.392326    1.465343
    126          1           0       -4.337064    0.389667    4.750285
    127          1           0       -4.713122   -2.386607   -3.198350
    128          1           0       -4.008806   -0.040003   -4.589201
    129          1           0       -2.425444   -1.984150   -2.960271
    130          1           0       -1.773478   -0.332361   -2.989473
    131          1           0       -1.969461   -1.165480   -4.501811
    132          1           0       -6.325349    0.041679   -4.016834
    133          1           0       -7.140545   -1.235404   -3.042303
    134          1           0       -5.841771   -2.496720   -5.239981
    135          1           0       -6.351197   -0.961403   -5.846757
    136          1           0       -2.689340    4.085881   -4.560321
    137          1           0       -1.761092    5.410234   -3.940951
    138          1           0       -3.497937    5.674648   -4.224181
    139          1           0       -1.937108    7.356342   -2.865280
    140          1           0       -2.659456    8.703503   -1.811665
    141          1           0       -3.672293    7.544537   -2.719612
    142          1           0       -3.086903    4.975265    3.894520
    143          1           0       -2.492738    2.319538    5.099035
    144          1           0       -0.892514    5.188655    4.412432
    145          1           0       -0.548624    3.989111    3.116730
    146          1           0       -0.752773    3.457706    4.707824
    147          1           0       -3.843388    4.122008    6.238619
    148          1           0       -4.537469    2.513643    6.318693
    149          1           0       -5.250369    4.902294    4.779784
    150          1           0       -6.358419    3.811810    5.689667
    151          1           0       -5.724571    3.369327    4.041412
    152          1           0       -6.202334   -2.752775    4.526725
    153          1           0       -5.117435   -1.518837    5.245468
    154          1           0       -4.391750   -2.908555    4.343072
    155          1           0       -5.078047   -3.679354   -0.680817
    156          1           0       -8.323312   -5.712508   -2.660076
    157          1           0       -8.067107   -4.213487   -3.760653
    158          1           0       -9.131841   -4.272013   -2.334070
 ---------------------------------------------------------------------

 SCF Done:  E(RCAM-B3LYP) =  -4069.81195538     A.U. after   19 cycles

 Excitation energies and oscillator strengths:

 Excited State   1:      Singlet-A      1.6514 eV  750.76 nm  f=0.0531  <S**2>=0.000
     309 -> 315        0.11488
     310 -> 316        0.12220
     311 -> 313        0.46898
     312 -> 314        0.50250
 This state for optimization and/or second-order correction.
 Total Energy, E(TD-HF/TD-DFT) =  -4069.75126572
 Copying the excited state density for this state as the 1-particle RhoCI density.

 Excited State   2:      Singlet-A      1.7013 eV  728.78 nm  f=0.6357  <S**2>=0.000
     309 -> 315        0.13222
     310 -> 316       -0.12315
     311 -> 313        0.50025
     312 -> 314       -0.46703

 Excited State   3:      Singlet-A      2.1844 eV  567.59 nm  f=0.0235  <S**2>=0.000
     309 -> 313        0.35532
     310 -> 314        0.53737
     311 -> 315       -0.14837
     312 -> 316       -0.22567

 Excited State   4:      Singlet-A      2.1959 eV  564.63 nm  f=0.1571  <S**2>=0.000
     309 -> 313        0.53351
     310 -> 314       -0.35151
     311 -> 315       -0.23463
     312 -> 316        0.15537

 Excited State   5:      Singlet-A      2.3461 eV  528.47 nm  f=0.0000  <S**2>=0.000
     312 -> 313        0.70707

 The electronic state is 1-A.
 Alpha  occ. eigenvalues --  -46.87904 -46.87440 -19.26360 -19.26203 -19.19110
 Alpha  occ. eigenvalues --  -19.19000 -19.18867 -19.18454 -19.18299 -19.17830
 Alpha  occ. eigenvalues --  -14.42552 -14.42278 -14.41561 -14.41151 -14.39505
 Alpha  occ. eigenvalues --  -14.39116 -14.38705 -14.38381 -10.39170 -10.38927
 Alpha  occ. eigenvalues --  -10.35498 -10.35127 -10.34517 -10.34013 -10.31728
 Alpha  occ. eigenvalues --  -10.31636 -10.31520 -10.31096 -10.30995 -10.30785
 Alpha  occ. eigenvalues --  -10.30693 -10.30621 -10.30315 -10.30182 -10.30137
 Alpha  occ. eigenvalues --  -10.30041 -10.29927 -10.29746 -10.29710 -10.29360
 Alpha  occ. eigenvalues --  -10.29191 -10.29169 -10.28819 -10.28560 -10.28528
 Alpha  occ. eigenvalues --  -10.28521 -10.28468 -10.28199 -10.28164 -10.27939
 Alpha  occ. eigenvalues --  -10.27911 -10.27834 -10.27761 -10.27689 -10.27640
 Alpha  occ. eigenvalues --  -10.27573 -10.27559 -10.27506 -10.27426 -10.27400
 Alpha  occ. eigenvalues --  -10.27265 -10.27263 -10.27251 -10.27214 -10.27094
 Alpha  occ. eigenvalues --  -10.26848 -10.26752 -10.26525 -10.26439 -10.26384
 Alpha  occ. eigenvalues --  -10.26312 -10.26147 -10.26119 -10.26057 -10.26035
 Alpha  occ. eigenvalues --  -10.25813 -10.25737 -10.25684 -10.25518 -10.25305
 Alpha  occ. eigenvalues --  -10.24954 -10.24946 -10.24890 -10.24641 -10.24640
 Alpha  occ. eigenvalues --  -10.24472  -3.16647  -3.16190  -1.91528  -1.91115
 Alpha  occ. eigenvalues --   -1.91072  -1.90957  -1.90661  -1.90497  -1.16712
 Alpha  occ. eigenvalues --   -1.16493  -1.08758  -1.08445  -1.07263  -1.06784
 Alpha  occ. eigenvalues --   -1.06733  -1.06703  -1.04683  -1.04272  -1.03869
 Alpha  occ. eigenvalues --   -1.03443  -1.03346  -1.02824  -1.02523  -1.01892
 Alpha  occ. eigenvalues --   -0.92081  -0.91771  -0.89657  -0.89321  -0.89269
 Alpha  occ. eigenvalues --   -0.88955  -0.88413  -0.88064  -0.88010  -0.87774
 Alpha  occ. eigenvalues --   -0.87587  -0.87470  -0.87364  -0.86837  -0.85064
 Alpha  occ. eigenvalues --   -0.84800  -0.84076  -0.83735  -0.83051  -0.82730
 Alpha  occ. eigenvalues --   -0.82690  -0.82433  -0.81681  -0.81415  -0.80692
 Alpha  occ. eigenvalues --   -0.80238  -0.78904  -0.78382  -0.77335  -0.77026
 Alpha  occ. eigenvalues --   -0.76942  -0.76729  -0.76017  -0.75634  -0.75010
 Alpha  occ. eigenvalues --   -0.74643  -0.72895  -0.72487  -0.71773  -0.71386
 Alpha  occ. eigenvalues --   -0.70068  -0.69627  -0.68961  -0.68624  -0.67742
 Alpha  occ. eigenvalues --   -0.67391  -0.67286  -0.66989  -0.65377  -0.65077
 Alpha  occ. eigenvalues --   -0.64962  -0.64723  -0.64572  -0.64465  -0.64395
 Alpha  occ. eigenvalues --   -0.64037  -0.62393  -0.62105  -0.60539  -0.60100
 Alpha  occ. eigenvalues --   -0.59896  -0.59589  -0.59097  -0.58790  -0.58613
 Alpha  occ. eigenvalues --   -0.58222  -0.57693  -0.57418  -0.57361  -0.57038
 Alpha  occ. eigenvalues --   -0.56422  -0.56058  -0.55985  -0.55705  -0.55611
 Alpha  occ. eigenvalues --   -0.55463  -0.55227  -0.55093  -0.54641  -0.54339
 Alpha  occ. eigenvalues --   -0.53974  -0.53720  -0.53407  -0.53302  -0.53030
 Alpha  occ. eigenvalues --   -0.53015  -0.52925  -0.52834  -0.52712  -0.52606
 Alpha  occ. eigenvalues --   -0.52394  -0.52274  -0.52074  -0.51698  -0.51694
 Alpha  occ. eigenvalues --   -0.51441  -0.51315  -0.51010  -0.50651  -0.50206
 Alpha  occ. eigenvalues --   -0.50164  -0.49999  -0.49762  -0.49677  -0.49595
 Alpha  occ. eigenvalues --   -0.49321  -0.49259  -0.49187  -0.48976  -0.48909
 Alpha  occ. eigenvalues --   -0.48695  -0.48573  -0.48520  -0.48364  -0.48216
 Alpha  occ. eigenvalues --   -0.48089  -0.47792  -0.47393  -0.47379  -0.46916
 Alpha  occ. eigenvalues --   -0.46889  -0.46633  -0.46524  -0.46473  -0.46357
 Alpha  occ. eigenvalues --   -0.46279  -0.46053  -0.45941  -0.45909  -0.45649
 Alpha  occ. eigenvalues --   -0.45317  -0.45043  -0.44697  -0.44597  -0.44328
 Alpha  occ. eigenvalues --   -0.44280  -0.44266  -0.44178  -0.44108  -0.43935
 Alpha  occ. eigenvalues --   -0.43879  -0.43698  -0.43601  -0.43482  -0.43389
 Alpha  occ. eigenvalues --   -0.43201  -0.43133  -0.42817  -0.42764  -0.42756
 Alpha  occ. eigenvalues --   -0.42712  -0.42373  -0.42138  -0.41815  -0.41803
 Alpha  occ. eigenvalues --   -0.41617  -0.41467  -0.41275  -0.41237  -0.40972
 Alpha  occ. eigenvalues --   -0.40880  -0.40793  -0.40690  -0.40536  -0.40469
 Alpha  occ. eigenvalues --   -0.40335  -0.40289  -0.40034  -0.39610  -0.39299
 Alpha  occ. eigenvalues --   -0.38584  -0.38200  -0.37818  -0.37475  -0.37439
 Alpha  occ. eigenvalues --   -0.37347  -0.37090  -0.36988  -0.36811  -0.36617
 Alpha  occ. eigenvalues --   -0.36296  -0.36047  -0.34398  -0.34043  -0.33864
 Alpha  occ. eigenvalues --   -0.33688  -0.33297  -0.32956  -0.31398  -0.31137
 Alpha  occ. eigenvalues --   -0.31019  -0.30754  -0.30159  -0.29742  -0.29554
 Alpha  occ. eigenvalues --   -0.29442  -0.29072  -0.28976  -0.24189  -0.23816
 Alpha  occ. eigenvalues --   -0.21241  -0.20892
 Alpha virt. eigenvalues --   -0.08883  -0.08554  -0.01853  -0.01466  -0.00144
 Alpha virt. eigenvalues --    0.00225   0.02077   0.02412   0.02841   0.03489
 Alpha virt. eigenvalues --    0.04628   0.04931   0.05005   0.05336   0.06126

 Mulliken charges:
               1
     1  Mg   0.838847
     2  C   -0.002636
     3  C   -0.094179
     4  C   -0.045522
     5  C   -0.064652
     6  N   -0.256833
     7  C   -0.052367
     8  C   -0.014077
     9  C   -0.087024
    10  C    0.046630
    11  C    0.104760
    12  C    0.053457
    13  C   -0.072442
    14  H    0.037831
    15  N   -0.433288
    16  C    0.168789
    17  C   -0.177021
    18  C   -0.003480
    19  C    0.149123
    20  C    0.110172
    21  C    0.012897
    22  O   -0.248271
    23  C    0.062266
    24  N   -0.341062
    25  C    0.041204
    26  C   -0.028641
    27  C   -0.023956
    28  C    0.074533
    29  C    0.075965
    30  C    0.036249
    31  C   -0.008839
    32  N   -0.310148
    33  C    0.079725
    34  C   -0.171377
    35  C    0.007988
    36  C    0.082518
    37  C    0.127694
    38  C    0.045305
    39  O   -0.189282
    40  C   -0.004984
    41  C    0.212500
    42  O   -0.257186
    43  O   -0.304801
    44  C    0.157666
    45  H   -0.017263
    46  H   -0.016022
    47  H   -0.042466
    48  H    0.001027
    49  H   -0.003864
    50  H    0.025553
    51  H    0.016441
    52  H    0.016945
    53  H    0.010843
    54  H    0.044756
    55  H    0.017737
    56  H    0.017716
    57  H    0.005955
    58  H    0.027376
    59  H    0.039472
    60  H    0.037271
    61  H    0.037011
    62  H    0.031047
    63  H    0.017393
    64  H    0.009646
    65  H    0.024047
    66  H    0.012800
    67  H    0.004747
    68  H    0.007104
    69  H    0.003286
    70  H    0.010786
    71  H    0.016994
    72  H    0.029684
    73  H    0.045837
    74  H    0.008165
    75  H    0.046469
    76  H    0.035335
    77  H    0.042733
    78  H    0.047085
    79  H    0.053954
    80  Mg   0.837690
    81  C   -0.016613
    82  C   -0.086424
    83  C   -0.043866
    84  C   -0.065652
    85  N   -0.254474
    86  C   -0.050286
    87  C   -0.014965
    88  C   -0.091265
    89  C    0.045089
    90  C    0.111308
    91  C    0.062756
    92  C   -0.077505
    93  H    0.034297
    94  N   -0.424165
    95  C    0.162854
    96  C   -0.170640
    97  C   -0.006534
    98  C    0.153021
    99  C    0.097780
   100  C    0.016955
   101  O   -0.253942
   102  C    0.060647
   103  N   -0.349959
   104  C    0.037567
   105  C   -0.019833
   106  C   -0.034244
   107  C    0.088517
   108  C    0.073575
   109  C    0.035041
   110  C   -0.007523
   111  N   -0.323911
   112  C    0.077957
   113  C   -0.163718
   114  C    0.002432
   115  C    0.095593
   116  C    0.131288
   117  C    0.042452
   118  O   -0.188521
   119  C    0.000793
   120  C    0.211152
   121  O   -0.251276
   122  O   -0.305692
   123  C    0.152176
   124  H   -0.017280
   125  H   -0.015732
   126  H   -0.042020
   127  H   -0.001517
   128  H   -0.004508
   129  H    0.024906
   130  H    0.017202
   131  H    0.015735
   132  H    0.013989
   133  H    0.037462
   134  H    0.019990
   135  H    0.019610
   136  H    0.009243
   137  H    0.031407
   138  H    0.038802
   139  H    0.040937
   140  H    0.035371
   141  H    0.033103
   142  H    0.013970
   143  H    0.010447
   144  H    0.023967
   145  H    0.014376
   146  H    0.003118
   147  H    0.005158
   148  H    0.002829
   149  H    0.010775
   150  H    0.017388
   151  H    0.030795
   152  H    0.045483
   153  H    0.007189
   154  H    0.046916
   155  H    0.035185
   156  H    0.043516
   157  H    0.049216
   158  H    0.053391
 Sum of Mulliken charges =  -0.00000

 Dipole moment (field-independent basis, Debye):
    X=              4.6846    Y=              0.4502    Z=              0.5938  Tot=              4.7435
 Quadrupole moment (field-independent basis, Debye-Ang):
   XX=           -527.7788   YY=           -536.1441   ZZ=           -456.1251
   XY=            -19.3138   XZ=             51.2096   YZ=             28.3567

 Normal termination of Gaussian 16 at Thu Aug 19 18:16:02 2021.
