 Gaussian 16, Revision A.03,
 Gaussian 16:  ES64L-G16RevA.03 25-Dec-2016

 -----------------------------------
 #p cam-b3lyp/Def2SVP td=(nstates=5)
 -----------------------------------

 --------------------------------
 TDDFT excited states in gaussian
 --------------------------------
 Symbolic Z-matrix:
 Charge =  0 Multiplicity = 1

                         Standard orientation:
 ---------------------------------------------------------------------
 Center     Atomic      Atomic             Coordinates (Angstroms)
 Number     Number       Type             X           Y           Z
 ---------------------------------------------------------------------
      1         12           0        4.203059    1.338431    0.423930
      2          6           0        5.426403   -1.678709   -1.063522
      3          6           0        4.673642    2.844786   -2.601382
      4          6           0        3.560331    4.109402    1.825801
      5          6           0        4.899793   -0.083958    3.528286
      6          7           0        4.958187    0.574135   -1.511601
      7          6           0        5.337677   -0.616227   -1.965689
      8          6           0        5.560031   -0.647165   -3.507434
      9          6           0        5.848156    0.901864   -3.751345
     10          6           0        5.085789    1.479394   -2.571862
     11          6           0        7.320468    1.276496   -3.615513
     12          6           0        4.285027   -1.121728   -4.282600
     13          6           0        4.513089   -1.491592   -5.751117
     14          1           0        3.749204   -2.589905   -6.323425
     15          7           0        3.666359    3.073488   -0.353489
     16          6           0        3.928316    3.514866   -1.607224
     17          6           0        3.320833    4.859797   -1.701076
     18          6           0        2.849379    5.242045   -0.341035
     19          6           0        3.370026    4.154034    0.446708
     20          6           0        3.190799    5.615972   -2.987559
     21          6           0        2.064581    6.408917    0.169487
     22          8           0        1.962929    6.666501    1.417643
     23          6           0        1.483753    7.305093   -0.846658
     24          7           0        4.427102    2.024597    2.382658
     25          6           0        4.015688    3.246982    2.736914
     26          6           0        4.015485    3.412302    4.227756
     27          6           0        4.283042    1.959366    4.833681
     28          6           0        4.482521    1.183931    3.508095
     29          6           0        5.047571    4.398486    4.791892
     30          6           0        3.248739    1.421694    5.854242
     31          6           0        1.927618    1.170864    5.162273
     32          7           0        4.849927   -0.602830    1.147887
     33          6           0        5.098020   -0.966282    2.479437
     34          6           0        5.618061   -2.345878    2.460944
     35          6           0        5.652206   -2.685450    1.109882
     36          6           0        5.208017   -1.578332    0.331885
     37          6           0        6.041487   -3.092155    3.595940
     38          6           0        5.983917   -3.717456    0.140971
     39          8           0        6.318735   -4.900657    0.214624
     40          6           0        5.966520   -3.065165   -1.311627
     41          6           0        5.176383   -3.977260   -2.210000
     42          8           0        3.950476   -4.137624   -2.040287
     43          8           0        5.931278   -4.327774   -3.262528
     44          6           0        5.196692   -5.209358   -4.208756
     45          1           0        4.999107    3.476570   -3.430154
     46          1           0        3.245142    5.008986    2.358569
     47          1           0        5.059062   -0.622646    4.464183
     48          1           0        6.415276   -1.240444   -3.831472
     49          1           0        5.418101    1.253050   -4.689132
     50          1           0        7.912162    0.439144   -3.245837
     51          1           0        7.346075    2.103502   -2.905655
     52          1           0        7.706929    1.675019   -4.553917
     53          1           0        3.605467   -0.278648   -4.406999
     54          1           0        3.810862   -1.959041   -3.769374
     55          1           0        5.574341   -1.608256   -5.972574
     56          1           0        4.198539   -0.649850   -6.368149
     57          1           0        3.774886    5.155648   -3.783480
     58          1           0        3.659165    6.588005   -2.834283
     59          1           0        2.149561    5.751690   -3.280364
     60          1           0        2.282539    7.709286   -1.468846
     61          1           0        0.883436    8.031079   -0.299471
     62          1           0        0.844982    6.720486   -1.509346
     63          1           0        3.050855    3.774512    4.580909
     64          1           0        5.233400    1.906605    5.365385
     65          1           0        4.608505    5.197359    5.389996
     66          1           0        5.618132    4.803668    3.956681
     67          1           0        5.835087    3.942740    5.391500
     68          1           0        3.067012    2.159906    6.634604
     69          1           0        3.562883    0.497219    6.338918
     70          1           0        1.460921    2.155252    5.164453
     71          1           0        1.331362    0.454856    5.728861
     72          1           0        2.072167    0.881086    4.121302
     73          1           0        5.637361   -4.096387    3.468788
     74          1           0        5.689917   -2.638013    4.522091
     75          1           0        7.124033   -3.030889    3.485499
     76          1           0        7.005318   -2.977758   -1.628458
     77          1           0        5.790331   -6.115535   -4.329875
     78          1           0        4.998318   -4.611721   -5.098633
     79          1           0        4.255947   -5.626367   -3.847590
     80         12           0       -4.353437   -1.459983    0.306652
     81          6           0       -5.082825    1.509118   -1.572576
     82          6           0       -4.120784    0.526041    3.070013
     83          6           0       -3.269586   -3.978556    1.903376
     84          6           0       -3.524953   -2.997902   -2.708994
     85          7           0       -4.592619    0.721121    0.585619
     86          6           0       -4.930305    1.740590   -0.189613
     87          6           0       -5.193531    3.067695    0.571349
     88          6           0       -4.315469    2.771122    1.882816
     89          6           0       -4.370350    1.244824    1.873699
     90          6           0       -2.863530    3.197689    1.744091
     91          6           0       -6.709353    3.262316    0.926886
     92          6           0       -7.084870    4.670642    1.393106
     93          1           0       -8.392151    5.202502    1.018136
     94          7           0       -4.253965   -1.796773    2.259919
     95          6           0       -4.188665   -0.873950    3.242470
     96          6           0       -4.110651   -1.631340    4.501216
     97          6           0       -3.969091   -3.075649    4.171618
     98          6           0       -3.800799   -3.002716    2.734099
     99          6           0       -4.251213   -0.985971    5.849238
    100          6           0       -3.970481   -4.316138    5.012676
    101          8           0       -3.593743   -5.447977    4.543818
    102          6           0       -4.336764   -4.149078    6.426693
    103          7           0       -3.317851   -3.163894   -0.282105
    104          6           0       -3.014440   -4.129029    0.603536
    105          6           0       -2.518416   -5.373130   -0.094004
    106          6           0       -2.781734   -5.126079   -1.651954
    107          6           0       -3.326310   -3.682098   -1.590703
    108          6           0       -1.044944   -5.715778    0.124763
    109          6           0       -3.615852   -6.199360   -2.403599
    110          6           0       -5.041811   -6.189584   -1.901659
    111          7           0       -4.476390   -0.943950   -1.787778
    112          6           0       -4.049657   -1.723884   -2.884906
    113          6           0       -4.233546   -0.903759   -4.099812
    114          6           0       -4.736919    0.314431   -3.619056
    115          6           0       -4.839179    0.264698   -2.202523
    116          6           0       -3.901424   -1.296805   -5.426967
    117          6           0       -5.195021    1.634877   -3.986833
    118          8           0       -5.413671    2.213587   -5.050325
    119          6           0       -5.320256    2.512059   -2.667261
    120          6           0       -6.651180    3.212153   -2.699485
    121          8           0       -7.709266    2.561386   -2.639656
    122          8           0       -6.454959    4.537563   -2.576434
    123          6           0       -7.746775    5.274304   -2.591821
    124          1           0       -3.801381    1.081706    3.952118
    125          1           0       -2.983448   -4.911380    2.394741
    126          1           0       -3.382193   -3.440334   -3.697203
    127          1           0       -4.828206    3.957434    0.072669
    128          1           0       -4.794053    3.164547    2.775861
    129          1           0       -2.633326    3.523030    0.740442
    130          1           0       -2.275145    2.327464    2.004033
    131          1           0       -2.621379    3.959257    2.490882
    132          1           0       -6.939062    2.695242    1.838152
    133          1           0       -7.333746    2.975920    0.103034
    134          1           0       -6.296035    5.400925    1.175435
    135          1           0       -7.154318    4.668184    2.483611
    136          1           0       -4.178852    0.106548    5.781676
    137          1           0       -3.375372   -1.280320    6.437565
    138          1           0       -5.153701   -1.303193    6.376056
    139          1           0       -3.653329   -3.445480    6.896075
    140          1           0       -4.367407   -5.158331    6.841841
    141          1           0       -5.335113   -3.700514    6.478838
    142          1           0       -3.078861   -6.243922    0.223356
    143          1           0       -1.842180   -5.083657   -2.222283
    144          1           0       -0.889779   -6.727704    0.544309
    145          1           0       -0.612492   -4.965046    0.772782
    146          1           0       -0.417622   -5.644533   -0.762137
    147          1           0       -3.221457   -7.197619   -2.198473
    148          1           0       -3.617616   -6.068834   -3.480615
    149          1           0       -4.990424   -6.807775   -1.000388
    150          1           0       -5.711186   -6.624641   -2.641056
    151          1           0       -5.343636   -5.181849   -1.593403
    152          1           0       -4.722235   -0.984473   -6.058801
    153          1           0       -3.733370   -2.369700   -5.493579
    154          1           0       -2.980042   -0.727067   -5.574306
    155          1           0       -4.487336    3.216181   -2.661672
    156          1           0       -7.680628    6.018533   -3.391474
    157          1           0       -7.887149    5.652744   -1.561860
    158          1           0       -8.633385    4.725281   -2.886689
 ---------------------------------------------------------------------

 SCF Done:  E(RCAM-B3LYP) =  -4069.81229203     A.U. after   19 cycles

 Excitation energies and oscillator strengths:

 Excited State   1:      Singlet-A      1.6582 eV  747.70 nm  f=0.1441  <S**2>=0.000
     309 -> 315       -0.10656
     310 -> 316       -0.13199
     311 -> 313        0.43254
     312 -> 314        0.53369
 This state for optimization and/or second-order correction.
 Total Energy, E(TD-HF/TD-DFT) =  -4069.75135423
 Copying the excited state density for this state as the 1-particle RhoCI density.

 Excited State   2:      Singlet-A      1.6891 eV  734.04 nm  f=0.5381  <S**2>=0.000
     309 -> 315       -0.13787
     310 -> 316        0.11126
     311 -> 313        0.53195
     312 -> 314       -0.43118

 Excited State   3:      Singlet-A      2.1817 eV  568.30 nm  f=0.0608  <S**2>=0.000
     309 -> 313        0.25698
     310 -> 314        0.59092
     311 -> 315        0.10697
     312 -> 316        0.24646

 Excited State   4:      Singlet-A      2.1944 eV  565.01 nm  f=0.1281  <S**2>=0.000
     309 -> 313        0.58679
     310 -> 314       -0.25420
     311 -> 315        0.25650
     312 -> 316       -0.11220

 Excited State   5:      Singlet-A      2.3446 eV  528.81 nm  f=0.0000  <S**2>=0.000
     312 -> 313        0.70707

 The electronic state is 1-A.
 Alpha  occ. eigenvalues --  -46.87917 -46.87435 -19.26433 -19.26281 -19.19184
 Alpha  occ. eigenvalues --  -19.19070 -19.18969 -19.18524 -19.18282 -19.17926
 Alpha  occ. eigenvalues --  -14.42563 -14.42275 -14.41582 -14.41101 -14.39524
 Alpha  occ. eigenvalues --  -14.39136 -14.38704 -14.38391 -10.39237 -10.38997
 Alpha  occ. eigenvalues --  -10.35600 -10.35203 -10.34503 -10.34105 -10.31832
 Alpha  occ. eigenvalues --  -10.31709 -10.31509 -10.31108 -10.31020 -10.30815
 Alpha  occ. eigenvalues --  -10.30680 -10.30638 -10.30346 -10.30184 -10.30171
 Alpha  occ. eigenvalues --  -10.30064 -10.29858 -10.29749 -10.29618 -10.29371
 Alpha  occ. eigenvalues --  -10.29216 -10.29211 -10.28841 -10.28615 -10.28534
 Alpha  occ. eigenvalues --  -10.28518 -10.28480 -10.28207 -10.28199 -10.27919
 Alpha  occ. eigenvalues --  -10.27903 -10.27833 -10.27812 -10.27702 -10.27688
 Alpha  occ. eigenvalues --  -10.27640 -10.27535 -10.27524 -10.27451 -10.27324
 Alpha  occ. eigenvalues --  -10.27281 -10.27280 -10.27277 -10.27116 -10.26932
 Alpha  occ. eigenvalues --  -10.26922 -10.26793 -10.26539 -10.26536 -10.26427
 Alpha  occ. eigenvalues --  -10.26308 -10.26264 -10.26147 -10.25928 -10.25819
 Alpha  occ. eigenvalues --  -10.25742 -10.25735 -10.25688 -10.25609 -10.24994
 Alpha  occ. eigenvalues --  -10.24943 -10.24926 -10.24693 -10.24668 -10.24461
 Alpha  occ. eigenvalues --  -10.24434  -3.16660  -3.16185  -1.91541  -1.91128
 Alpha  occ. eigenvalues --   -1.91068  -1.90970  -1.90656  -1.90494  -1.16783
 Alpha  occ. eigenvalues --   -1.16569  -1.08742  -1.08545  -1.07375  -1.06856
 Alpha  occ. eigenvalues --   -1.06800  -1.06774  -1.04694  -1.04282  -1.03889
 Alpha  occ. eigenvalues --   -1.03436  -1.03356  -1.02797  -1.02534  -1.01880
 Alpha  occ. eigenvalues --   -0.92092  -0.91801  -0.89688  -0.89281  -0.89226
 Alpha  occ. eigenvalues --   -0.88939  -0.88455  -0.87973  -0.87886  -0.87785
 Alpha  occ. eigenvalues --   -0.87622  -0.87450  -0.87383  -0.86943  -0.85088
 Alpha  occ. eigenvalues --   -0.84792  -0.84123  -0.83545  -0.83106  -0.82768
 Alpha  occ. eigenvalues --   -0.82714  -0.82445  -0.81716  -0.81447  -0.80722
 Alpha  occ. eigenvalues --   -0.80264  -0.78903  -0.78453  -0.77351  -0.77056
 Alpha  occ. eigenvalues --   -0.76934  -0.76670  -0.76035  -0.75651  -0.75053
 Alpha  occ. eigenvalues --   -0.74428  -0.72894  -0.72486  -0.71796  -0.71300
 Alpha  occ. eigenvalues --   -0.70111  -0.69423  -0.68983  -0.68626  -0.67767
 Alpha  occ. eigenvalues --   -0.67389  -0.67324  -0.67026  -0.65397  -0.65083
 Alpha  occ. eigenvalues --   -0.64985  -0.64758  -0.64566  -0.64451  -0.64427
 Alpha  occ. eigenvalues --   -0.63906  -0.62441  -0.62118  -0.60568  -0.60116
 Alpha  occ. eigenvalues --   -0.59904  -0.59596  -0.59117  -0.58762  -0.58633
 Alpha  occ. eigenvalues --   -0.58214  -0.57713  -0.57455  -0.57422  -0.56992
 Alpha  occ. eigenvalues --   -0.56422  -0.56111  -0.56027  -0.55743  -0.55642
 Alpha  occ. eigenvalues --   -0.55507  -0.55293  -0.54988  -0.54689  -0.54226
 Alpha  occ. eigenvalues --   -0.53993  -0.53706  -0.53429  -0.53337  -0.53056
 Alpha  occ. eigenvalues --   -0.53022  -0.52954  -0.52868  -0.52721  -0.52649
 Alpha  occ. eigenvalues --   -0.52492  -0.52111  -0.52017  -0.51740  -0.51719
 Alpha  occ. eigenvalues --   -0.51486  -0.51329  -0.51013  -0.50681  -0.50291
 Alpha  occ. eigenvalues --   -0.50198  -0.50036  -0.49771  -0.49630  -0.49519
 Alpha  occ. eigenvalues --   -0.49331  -0.49298  -0.49197  -0.49031  -0.48909
 Alpha  occ. eigenvalues --   -0.48716  -0.48614  -0.48576  -0.48385  -0.48167
 Alpha  occ. eigenvalues --   -0.48027  -0.47820  -0.47417  -0.47380  -0.46931
 Alpha  occ. eigenvalues --   -0.46873  -0.46659  -0.46488  -0.46475  -0.46332
 Alpha  occ. eigenvalues --   -0.46298  -0.46056  -0.45939  -0.45820  -0.45639
 Alpha  occ. eigenvalues --   -0.45362  -0.44822  -0.44702  -0.44637  -0.44327
 Alpha  occ. eigenvalues --   -0.44295  -0.44263  -0.44197  -0.44137  -0.43936
 Alpha  occ. eigenvalues --   -0.43834  -0.43774  -0.43626  -0.43509  -0.43394
 Alpha  occ. eigenvalues --   -0.43155  -0.43145  -0.42870  -0.42827  -0.42806
 Alpha  occ. eigenvalues --   -0.42667  -0.42261  -0.42170  -0.41831  -0.41723
 Alpha  occ. eigenvalues --   -0.41643  -0.41459  -0.41262  -0.41237  -0.41001
 Alpha  occ. eigenvalues --   -0.40964  -0.40731  -0.40727  -0.40531  -0.40480
 Alpha  occ. eigenvalues --   -0.40329  -0.40166  -0.40055  -0.39663  -0.39105
 Alpha  occ. eigenvalues --   -0.38631  -0.38010  -0.37852  -0.37472  -0.37464
 Alpha  occ. eigenvalues --   -0.37369  -0.37025  -0.36964  -0.36869  -0.36627
 Alpha  occ. eigenvalues --   -0.36342  -0.35940  -0.34407  -0.34033  -0.33928
 Alpha  occ. eigenvalues --   -0.33746  -0.33313  -0.32955  -0.31500  -0.31163
 Alpha  occ. eigenvalues --   -0.31076  -0.30748  -0.30142  -0.29835  -0.29568
 Alpha  occ. eigenvalues --   -0.29434  -0.29140  -0.29031  -0.24203  -0.23814
 Alpha  occ. eigenvalues --   -0.21247  -0.20892
 Alpha virt. eigenvalues --   -0.08893  -0.08588  -0.01880  -0.01442  -0.00181
 Alpha virt. eigenvalues --    0.00157   0.02076   0.02377   0.02826   0.03499
 Alpha virt. eigenvalues --    0.04606   0.04950   0.04962   0.05267   0.06075

 Mulliken charges:
               1
     1  Mg   0.838912
     2  C   -0.003050
     3  C   -0.093173
     4  C   -0.046709
     5  C   -0.063861
     6  N   -0.256771
     7  C   -0.052274
     8  C   -0.014108
     9  C   -0.087150
    10  C    0.046279
    11  C    0.104699
    12  C    0.053328
    13  C   -0.071882
    14  H    0.035402
    15  N   -0.433153
    16  C    0.168379
    17  C   -0.176499
    18  C   -0.004363
    19  C    0.148635
    20  C    0.109840
    21  C    0.011210
    22  O   -0.251034
    23  C    0.062574
    24  N   -0.341027
    25  C    0.041337
    26  C   -0.028047
    27  C   -0.023824
    28  C    0.074421
    29  C    0.076176
    30  C    0.035319
    31  C   -0.004298
    32  N   -0.310546
    33  C    0.080464
    34  C   -0.169251
    35  C    0.008426
    36  C    0.083019
    37  C    0.127293
    38  C    0.046032
    39  O   -0.188209
    40  C   -0.005397
    41  C    0.213309
    42  O   -0.258465
    43  O   -0.304360
    44  C    0.157991
    45  H   -0.016967
    46  H   -0.017629
    47  H   -0.041500
    48  H    0.001044
    49  H   -0.003306
    50  H    0.025476
    51  H    0.016436
    52  H    0.017155
    53  H    0.012017
    54  H    0.043265
    55  H    0.018097
    56  H    0.018945
    57  H    0.006609
    58  H    0.026937
    59  H    0.041030
    60  H    0.038248
    61  H    0.034877
    62  H    0.032052
    63  H    0.014915
    64  H    0.009852
    65  H    0.022720
    66  H    0.013098
    67  H    0.005051
    68  H    0.005625
    69  H    0.005476
    70  H    0.006085
    71  H    0.016873
    72  H    0.030518
    73  H    0.048178
    74  H    0.009142
    75  H    0.046107
    76  H    0.035531
    77  H    0.043367
    78  H    0.046797
    79  H    0.052284
    80  Mg   0.837661
    81  C   -0.017481
    82  C   -0.088440
    83  C   -0.045034
    84  C   -0.063470
    85  N   -0.254832
    86  C   -0.050066
    87  C   -0.015011
    88  C   -0.090395
    89  C    0.045934
    90  C    0.114683
    91  C    0.062567
    92  C   -0.077625
    93  H    0.033905
    94  N   -0.423645
    95  C    0.163477
    96  C   -0.175001
    97  C   -0.007540
    98  C    0.152344
    99  C    0.099642
   100  C    0.015335
   101  O   -0.252268
   102  C    0.061352
   103  N   -0.350154
   104  C    0.039173
   105  C   -0.021103
   106  C   -0.034318
   107  C    0.089291
   108  C    0.070763
   109  C    0.034506
   110  C   -0.007428
   111  N   -0.323879
   112  C    0.078160
   113  C   -0.163669
   114  C    0.001348
   115  C    0.096294
   116  C    0.131827
   117  C    0.041319
   118  O   -0.189912
   119  C    0.001395
   120  C    0.211175
   121  O   -0.250941
   122  O   -0.306050
   123  C    0.152158
   124  H   -0.019726
   125  H   -0.014450
   126  H   -0.040780
   127  H   -0.001579
   128  H   -0.004639
   129  H    0.021146
   130  H    0.014298
   131  H    0.019603
   132  H    0.013835
   133  H    0.037241
   134  H    0.020908
   135  H    0.019697
   136  H    0.008622
   137  H    0.025089
   138  H    0.039448
   139  H    0.037521
   140  H    0.036265
   141  H    0.033600
   142  H    0.013218
   143  H    0.015591
   144  H    0.024391
   145  H    0.014626
   146  H    0.015459
   147  H    0.006779
   148  H    0.002433
   149  H    0.010933
   150  H    0.016764
   151  H    0.029406
   152  H    0.045141
   153  H    0.008590
   154  H    0.045286
   155  H    0.032987
   156  H    0.042977
   157  H    0.049772
   158  H    0.053497
 Sum of Mulliken charges =  -0.00000

 Dipole moment (field-independent basis, Debye):
    X=              3.0003    Y=              4.5124    Z=              1.0959  Tot=              5.5285
 Quadrupole moment (field-independent basis, Debye-Ang):
   XX=           -524.5050   YY=           -523.9679   ZZ=           -471.6669
   XY=             12.1651   XZ=            -43.5389   YZ=             19.2871

 Normal termination of Gaussian 16 at Thu Aug 19 20:08:36 2021.
