 Gaussian 16, Revision A.03,
 Gaussian 16:  ES64L-G16RevA.03 25-Dec-2016

 -----------------------------------
 #p cam-b3lyp/Def2SVP td=(nstates=5)
 -----------------------------------

 --------------------------------
 TDDFT excited states in gaussian
 --------------------------------
 Symbolic Z-matrix:
 Charge =  0 Multiplicity = 1

                         Standard orientation:
 ---------------------------------------------------------------------
 Center     Atomic      Atomic             Coordinates (Angstroms)
 Number     Number       Type             X           Y           Z
 ---------------------------------------------------------------------
      1         12           0       -4.438242   -0.626550   -0.060677
      2          6           0       -4.559961    2.842491    0.812909
      3          6           0       -5.184541    0.305241   -3.257217
      4          6           0       -4.783951   -3.700238   -0.760353
      5          6           0       -4.828701   -1.341824    3.327772
      6          7           0       -4.800952    1.353584   -0.981633
      7          6           0       -4.758911    2.610149   -0.549838
      8          6           0       -4.870893    3.660913   -1.694709
      9          6           0       -5.618171    2.767897   -2.783790
     10          6           0       -5.146128    1.395256   -2.337747
     11          6           0       -7.138754    2.822906   -2.677479
     12          6           0       -3.468838    4.134436   -2.206322
     13          6           0       -3.483584    5.387414   -3.086768
     14          1           0       -2.380704    6.330704   -2.980909
     15          7           0       -4.432114   -1.551732   -1.806200
     16          6           0       -4.747136   -1.013822   -3.008989
     17          6           0       -4.590360   -2.103387   -3.996385
     18          6           0       -4.342716   -3.365610   -3.245679
     19          6           0       -4.538252   -2.921977   -1.889090
     20          6           0       -4.631445   -1.883748   -5.477540
     21          6           0       -3.996681   -4.754026   -3.682364
     22          8           0       -4.053570   -5.751857   -2.885075
     23          6           0       -3.670486   -4.931904   -5.108898
     24          7           0       -4.979742   -2.290010    1.078320
     25          6           0       -4.995884   -3.516263    0.544440
     26          6           0       -5.133769   -4.570615    1.602394
     27          6           0       -4.964023   -3.818587    3.000747
     28          6           0       -4.832054   -2.368208    2.474196
     29          6           0       -6.454873   -5.352083    1.600278
     30          6           0       -3.873600   -4.356800    3.960811
     31          6           0       -2.503203   -4.111041    3.370292
     32          7           0       -4.480626    0.512966    1.786145
     33          6           0       -4.677798    0.012557    3.081285
     34          6           0       -4.734339    1.173217    3.988886
     35          6           0       -4.581722    2.276235    3.151088
     36          6           0       -4.465197    1.834023    1.802324
     37          6           0       -4.965554    1.123507    5.391919
     38          6           0       -4.514672    3.726796    3.078758
     39          8           0       -4.463001    4.634988    3.909427
     40          6           0       -4.620119    4.157627    1.549348
     41          6           0       -3.532288    5.162421    1.284161
     42          8           0       -2.330285    4.829194    1.323058
     43          8           0       -4.076153    6.288323    0.797236
     44          6           0       -3.047805    7.316476    0.484897
     45          1           0       -5.644259    0.456216   -4.235894
     46          1           0       -4.799752   -4.776605   -0.943719
     47          1           0       -4.863672   -1.491789    4.408392
     48          1           0       -5.475266    4.535070   -1.451795
     49          1           0       -5.267473    2.979533   -3.793713
     50          1           0       -7.456520    3.366084   -1.787589
     51          1           0       -7.464696    1.783870   -2.625920
     52          1           0       -7.576381    3.229306   -3.589674
     53          1           0       -3.083790    3.408797   -2.922734
     54          1           0       -2.785271    4.288970   -1.370750
     55          1           0       -4.439289    5.908396   -3.022623
     56          1           0       -3.415462    5.073682   -4.128465
     57          1           0       -4.993684   -0.886621   -5.724653
     58          1           0       -5.390423   -2.555473   -5.878099
     59          1           0       -3.671057   -2.090778   -5.949901
     60          1           0       -4.518699   -4.612206   -5.714601
     61          1           0       -3.362297   -5.970950   -5.219598
     62          1           0       -2.842882   -4.270534   -5.366990
     63          1           0       -4.354603   -5.325615    1.505954
     64          1           0       -5.878255   -3.847035    3.594080
     65          1           0       -6.325345   -6.430853    1.509814
     66          1           0       -7.074934   -4.963590    0.792882
     67          1           0       -7.091707   -5.175625    2.466720
     68          1           0       -3.979214   -5.433532    4.089037
     69          1           0       -3.907618   -3.900087    4.950006
     70          1           0       -2.371639   -4.959109    2.699245
     71          1           0       -1.745310   -4.112376    4.154389
     72          1           0       -2.488741   -3.207583    2.760341
     73          1           0       -4.258779    1.820282    5.842411
     74          1           0       -4.829122    0.114437    5.780208
     75          1           0       -6.003932    1.451496    5.437195
     76          1           0       -5.613400    4.583656    1.411462
     77          1           0       -3.317416    8.217754    1.035572
     78          1           0       -2.997033    7.383779   -0.601978
     79          1           0       -2.046033    7.129858    0.873438
     80         12           0        4.556431   -0.906404    0.214851
     81          6           0        4.476362    2.649334   -0.264087
     82          6           0        3.772718   -1.219030   -3.090086
     83          6           0        4.176397   -4.018670    0.701478
     84          6           0        4.199884   -0.314670    3.630763
     85          7           0        4.196982    0.595048   -1.369030
     86          6           0        4.254673    1.915926   -1.448323
     87          6           0        4.143969    2.479141   -2.890580
     88          6           0        3.366403    1.249233   -3.569984
     89          6           0        3.830307    0.125863   -2.645053
     90          6           0        1.854537    1.361049   -3.464604
     91          6           0        5.548136    2.707138   -3.552645
     92          6           0        5.526354    3.540384   -4.835985
     93          1           0        6.645480    4.440407   -5.100568
     94          7           0        4.533717   -2.414578   -1.074892
     95          6           0        4.213486   -2.360344   -2.384777
     96          6           0        4.330935   -3.738775   -2.885073
     97          6           0        4.586469   -4.637907   -1.727060
     98          6           0        4.417738   -3.707657   -0.628772
     99          6           0        4.280365   -4.081370   -4.345718
    100          6           0        4.914240   -6.096756   -1.624487
    101          8           0        4.860415   -6.722025   -0.506917
    102          6           0        5.209243   -6.792649   -2.885524
    103          7           0        4.023248   -2.016884    1.889644
    104          6           0        3.982935   -3.360102    1.844359
    105          6           0        3.846518   -3.948698    3.228316
    106          6           0        4.047634   -2.724534    4.237563
    107          6           0        4.182721   -1.574002    3.216082
    108          6           0        2.517818   -4.642215    3.528276
    109          6           0        5.146691   -2.881312    5.323917
    110          6           0        6.512758   -2.902315    4.676778
    111          7           0        4.554785    0.829807    1.500787
    112          6           0        4.363732    0.854976    2.899696
    113          6           0        4.330956    2.274024    3.309167
    114          6           0        4.483378    2.981966    2.107472
    115          6           0        4.582465    2.068934    1.023011
    116          6           0        4.128921    2.753033    4.634253
    117          6           0        4.572315    4.294235    1.508512
    118          8           0        4.636648    5.444124    1.941329
    119          6           0        4.444832    4.139725   -0.068276
    120          6           0        5.538328    4.953270   -0.704628
    121          8           0        6.731968    4.643964   -0.542898
    122          8           0        4.991376    5.825771   -1.570622
    123          6           0        6.037190    6.648106   -2.235336
    124          1           0        3.307544   -1.427072   -4.054047
    125          1           0        4.147581   -5.084672    0.938726
    126          1           0        4.190441   -0.048669    4.689927
    127          1           0        3.557084    3.385365   -2.980550
    128          1           0        3.713297    1.075006   -4.585213
    129          1           0        1.554298    2.192674   -2.844600
    130          1           0        1.519882    0.426964   -3.032699
    131          1           0        1.409550    1.408159   -4.462640
    132          1           0        5.913824    1.753288   -3.954135
    133          1           0        6.233993    3.141377   -2.851455
    134          1           0        4.572016    4.063655   -4.971543
    135          1           0        5.584070    2.862375   -5.690972
    136          1           0        3.917124   -3.237081   -4.944577
    137          1           0        3.510861   -4.851434   -4.467084
    138          1           0        5.230153   -4.468664   -4.720643
    139          1           0        4.357393   -6.702819   -3.555398
    140          1           0        5.506762   -7.803213   -2.598956
    141          1           0        6.049427   -6.287926   -3.375381
    142          1           0        4.617848   -4.686404    3.412576
    143          1           0        3.136540   -2.522530    4.819739
    144          1           0        2.637073   -5.695266    3.845978
    145          1           0        1.893366   -4.579300    2.647004
    146          1           0        1.902511   -4.154907    4.282682
    147          1           0        5.033803   -3.836991    5.841686
    148          1           0        5.122946   -2.101709    6.078013
    149          1           0        6.621594   -3.945070    4.363898
    150          1           0        7.281195   -2.623466    5.394969
    151          1           0        6.529307   -2.283309    3.772232
    152          1           0        4.840981    3.552906    4.788114
    153          1           0        4.256563    1.959551    5.367637
    154          1           0        3.089520    3.084951    4.565296
    155          1           0        3.453062    4.493189   -0.352962
    156          1           0        5.780316    7.696843   -2.056894
    157          1           0        6.061188    6.307367   -3.287514
    158          1           0        7.041511    6.604516   -1.830486
 ---------------------------------------------------------------------

 SCF Done:  E(RCAM-B3LYP) =  -4069.81130870     A.U. after   19 cycles

 Excitation energies and oscillator strengths:

 Excited State   1:      Singlet-A      1.6489 eV  751.90 nm  f=0.0273  <S**2>=0.000
     309 -> 315       -0.11516
     310 -> 316        0.12101
     311 -> 313       -0.47231
     312 -> 314        0.49962
 This state for optimization and/or second-order correction.
 Total Energy, E(TD-HF/TD-DFT) =  -4069.75071140
 Copying the excited state density for this state as the 1-particle RhoCI density.

 Excited State   2:      Singlet-A      1.7024 eV  728.30 nm  f=0.6651  <S**2>=0.000
     309 -> 315        0.13183
     310 -> 316        0.12419
     311 -> 313        0.49713
     312 -> 314        0.47009

 Excited State   3:      Singlet-A      2.1818 eV  568.28 nm  f=0.0166  <S**2>=0.000
     309 -> 313       -0.35129
     310 -> 314        0.54039
     311 -> 315        0.14609
     312 -> 316       -0.22634

 Excited State   4:      Singlet-A      2.1947 eV  564.91 nm  f=0.1614  <S**2>=0.000
     309 -> 313        0.53620
     310 -> 314        0.34707
     311 -> 315       -0.23584
     312 -> 316       -0.15395

 Excited State   5:      Singlet-A      2.3488 eV  527.86 nm  f=0.0000  <S**2>=0.000
     312 -> 313        0.70709

 The electronic state is 1-A.
 Alpha  occ. eigenvalues --  -46.87892 -46.87440 -19.26257 -19.26188 -19.19007
 Alpha  occ. eigenvalues --  -19.18978 -19.18932 -19.18509 -19.18225 -19.17772
 Alpha  occ. eigenvalues --  -14.42551 -14.42288 -14.41542 -14.41144 -14.39503
 Alpha  occ. eigenvalues --  -14.39132 -14.38678 -14.38359 -10.39074 -10.38899
 Alpha  occ. eigenvalues --  -10.35569 -10.35190 -10.34443 -10.33948 -10.31642
 Alpha  occ. eigenvalues --  -10.31603 -10.31500 -10.31091 -10.31012 -10.30831
 Alpha  occ. eigenvalues --  -10.30665 -10.30598 -10.30310 -10.30156 -10.30120
 Alpha  occ. eigenvalues --  -10.30001 -10.29947 -10.29730 -10.29662 -10.29361
 Alpha  occ. eigenvalues --  -10.29221 -10.29161 -10.28857 -10.28665 -10.28591
 Alpha  occ. eigenvalues --  -10.28568 -10.28459 -10.28224 -10.28174 -10.27997
 Alpha  occ. eigenvalues --  -10.27889 -10.27832 -10.27755 -10.27692 -10.27648
 Alpha  occ. eigenvalues --  -10.27588 -10.27520 -10.27492 -10.27472 -10.27346
 Alpha  occ. eigenvalues --  -10.27318 -10.27260 -10.27236 -10.27203 -10.27203
 Alpha  occ. eigenvalues --  -10.26843 -10.26781 -10.26585 -10.26578 -10.26326
 Alpha  occ. eigenvalues --  -10.26278 -10.26246 -10.26118 -10.25987 -10.25927
 Alpha  occ. eigenvalues --  -10.25899 -10.25714 -10.25496 -10.25489 -10.25254
 Alpha  occ. eigenvalues --  -10.24922 -10.24875 -10.24793 -10.24612 -10.24584
 Alpha  occ. eigenvalues --  -10.24468  -3.16635  -3.16190  -1.91517  -1.91103
 Alpha  occ. eigenvalues --   -1.91072  -1.90946  -1.90661  -1.90497  -1.16610
 Alpha  occ. eigenvalues --   -1.16476  -1.08675  -1.08376  -1.07332  -1.06763
 Alpha  occ. eigenvalues --   -1.06761  -1.06630  -1.04680  -1.04284  -1.03855
 Alpha  occ. eigenvalues --   -1.03444  -1.03329  -1.02814  -1.02505  -1.01883
 Alpha  occ. eigenvalues --   -0.92051  -0.91750  -0.89609  -0.89295  -0.89293
 Alpha  occ. eigenvalues --   -0.88997  -0.88372  -0.88033  -0.87962  -0.87776
 Alpha  occ. eigenvalues --   -0.87527  -0.87473  -0.87401  -0.86918  -0.85088
 Alpha  occ. eigenvalues --   -0.84833  -0.84016  -0.83694  -0.83098  -0.82748
 Alpha  occ. eigenvalues --   -0.82742  -0.82481  -0.81628  -0.81400  -0.80672
 Alpha  occ. eigenvalues --   -0.80242  -0.78912  -0.78415  -0.77319  -0.77010
 Alpha  occ. eigenvalues --   -0.76961  -0.76730  -0.75995  -0.75655  -0.74972
 Alpha  occ. eigenvalues --   -0.74622  -0.72869  -0.72470  -0.71756  -0.71387
 Alpha  occ. eigenvalues --   -0.69996  -0.69588  -0.68976  -0.68653  -0.67731
 Alpha  occ. eigenvalues --   -0.67391  -0.67340  -0.67038  -0.65383  -0.65095
 Alpha  occ. eigenvalues --   -0.64929  -0.64696  -0.64565  -0.64468  -0.64355
 Alpha  occ. eigenvalues --   -0.64013  -0.62321  -0.62092  -0.60554  -0.60136
 Alpha  occ. eigenvalues --   -0.59907  -0.59613  -0.59072  -0.58781  -0.58585
 Alpha  occ. eigenvalues --   -0.58213  -0.57634  -0.57385  -0.57314  -0.57027
 Alpha  occ. eigenvalues --   -0.56406  -0.56006  -0.55984  -0.55716  -0.55620
 Alpha  occ. eigenvalues --   -0.55400  -0.55254  -0.55057  -0.54568  -0.54311
 Alpha  occ. eigenvalues --   -0.54000  -0.53758  -0.53402  -0.53324  -0.53021
 Alpha  occ. eigenvalues --   -0.52980  -0.52957  -0.52878  -0.52721  -0.52525
 Alpha  occ. eigenvalues --   -0.52495  -0.52231  -0.51997  -0.51725  -0.51569
 Alpha  occ. eigenvalues --   -0.51489  -0.51271  -0.50986  -0.50725  -0.50304
 Alpha  occ. eigenvalues --   -0.50131  -0.50037  -0.49809  -0.49686  -0.49620
 Alpha  occ. eigenvalues --   -0.49302  -0.49301  -0.49188  -0.49005  -0.48899
 Alpha  occ. eigenvalues --   -0.48657  -0.48565  -0.48514  -0.48359  -0.48185
 Alpha  occ. eigenvalues --   -0.48139  -0.47791  -0.47417  -0.47388  -0.46936
 Alpha  occ. eigenvalues --   -0.46889  -0.46658  -0.46519  -0.46447  -0.46396
 Alpha  occ. eigenvalues --   -0.46229  -0.46067  -0.45878  -0.45865  -0.45597
 Alpha  occ. eigenvalues --   -0.45283  -0.45023  -0.44653  -0.44617  -0.44339
 Alpha  occ. eigenvalues --   -0.44272  -0.44240  -0.44193  -0.44095  -0.43937
 Alpha  occ. eigenvalues --   -0.43889  -0.43733  -0.43540  -0.43482  -0.43372
 Alpha  occ. eigenvalues --   -0.43198  -0.43109  -0.42770  -0.42744  -0.42686
 Alpha  occ. eigenvalues --   -0.42663  -0.42368  -0.42096  -0.41791  -0.41784
 Alpha  occ. eigenvalues --   -0.41637  -0.41445  -0.41294  -0.41229  -0.40974
 Alpha  occ. eigenvalues --   -0.40943  -0.40802  -0.40656  -0.40555  -0.40532
 Alpha  occ. eigenvalues --   -0.40361  -0.40312  -0.40090  -0.39531  -0.39256
 Alpha  occ. eigenvalues --   -0.38558  -0.38179  -0.37857  -0.37514  -0.37411
 Alpha  occ. eigenvalues --   -0.37366  -0.37075  -0.37010  -0.36736  -0.36598
 Alpha  occ. eigenvalues --   -0.36244  -0.36033  -0.34378  -0.34033  -0.33778
 Alpha  occ. eigenvalues --   -0.33669  -0.33271  -0.32954  -0.31459  -0.31126
 Alpha  occ. eigenvalues --   -0.31069  -0.30756  -0.30081  -0.29677  -0.29555
 Alpha  occ. eigenvalues --   -0.29411  -0.29100  -0.28943  -0.24173  -0.23810
 Alpha  occ. eigenvalues --   -0.21226  -0.20895
 Alpha virt. eigenvalues --   -0.08873  -0.08559  -0.01847  -0.01470  -0.00167
 Alpha virt. eigenvalues --    0.00185   0.02122   0.02462   0.02849   0.03491
 Alpha virt. eigenvalues --    0.04618   0.04921   0.05091   0.05361   0.06074

 Mulliken charges:
               1
     1  Mg   0.838591
     2  C   -0.002847
     3  C   -0.095036
     4  C   -0.045389
     5  C   -0.064083
     6  N   -0.256677
     7  C   -0.052636
     8  C   -0.013762
     9  C   -0.086833
    10  C    0.046010
    11  C    0.104806
    12  C    0.053625
    13  C   -0.071939
    14  H    0.036653
    15  N   -0.433071
    16  C    0.168070
    17  C   -0.178032
    18  C   -0.004263
    19  C    0.148806
    20  C    0.110342
    21  C    0.012227
    22  O   -0.248827
    23  C    0.062846
    24  N   -0.341140
    25  C    0.041106
    26  C   -0.028364
    27  C   -0.023983
    28  C    0.075052
    29  C    0.076041
    30  C    0.034980
    31  C   -0.005756
    32  N   -0.310594
    33  C    0.080749
    34  C   -0.169775
    35  C    0.008685
    36  C    0.083245
    37  C    0.127289
    38  C    0.046471
    39  O   -0.187287
    40  C   -0.005422
    41  C    0.213082
    42  O   -0.256532
    43  O   -0.305179
    44  C    0.156678
    45  H   -0.017822
    46  H   -0.016481
    47  H   -0.041478
    48  H    0.001505
    49  H   -0.004692
    50  H    0.025782
    51  H    0.016536
    52  H    0.016648
    53  H    0.009468
    54  H    0.044310
    55  H    0.018593
    56  H    0.016915
    57  H    0.005649
    58  H    0.027110
    59  H    0.037457
    60  H    0.037550
    61  H    0.035655
    62  H    0.029384
    63  H    0.017198
    64  H    0.009690
    65  H    0.023599
    66  H    0.012515
    67  H    0.004836
    68  H    0.006887
    69  H    0.004268
    70  H    0.010605
    71  H    0.017112
    72  H    0.029376
    73  H    0.047809
    74  H    0.008884
    75  H    0.046394
    76  H    0.035288
    77  H    0.043681
    78  H    0.045675
    79  H    0.056203
    80  Mg   0.837844
    81  C   -0.015848
    82  C   -0.088106
    83  C   -0.045130
    84  C   -0.064015
    85  N   -0.254398
    86  C   -0.049057
    87  C   -0.015008
    88  C   -0.090787
    89  C    0.045773
    90  C    0.114022
    91  C    0.062704
    92  C   -0.077298
    93  H    0.034362
    94  N   -0.423389
    95  C    0.162637
    96  C   -0.175089
    97  C   -0.007765
    98  C    0.151617
    99  C    0.099585
   100  C    0.015651
   101  O   -0.253546
   102  C    0.061294
   103  N   -0.349819
   104  C    0.037099
   105  C   -0.019924
   106  C   -0.035050
   107  C    0.089130
   108  C    0.073436
   109  C    0.034773
   110  C   -0.007493
   111  N   -0.324725
   112  C    0.079150
   113  C   -0.161006
   114  C    0.004310
   115  C    0.096232
   116  C    0.130320
   117  C    0.045113
   118  O   -0.187144
   119  C   -0.000190
   120  C    0.210775
   121  O   -0.251521
   122  O   -0.305541
   123  C    0.152263
   124  H   -0.021662
   125  H   -0.015925
   126  H   -0.040131
   127  H   -0.000758
   128  H   -0.005692
   129  H    0.025412
   130  H    0.014605
   131  H    0.012800
   132  H    0.013748
   133  H    0.037802
   134  H    0.019943
   135  H    0.018889
   136  H    0.007209
   137  H    0.025508
   138  H    0.039064
   139  H    0.038241
   140  H    0.035960
   141  H    0.033301
   142  H    0.013980
   143  H    0.012302
   144  H    0.024206
   145  H    0.013152
   146  H    0.004519
   147  H    0.005540
   148  H    0.003767
   149  H    0.010659
   150  H    0.017637
   151  H    0.030362
   152  H    0.045277
   153  H    0.007455
   154  H    0.052725
   155  H    0.038371
   156  H    0.043307
   157  H    0.048738
   158  H    0.053411
 Sum of Mulliken charges =  -0.00000

 Dipole moment (field-independent basis, Debye):
    X=             -3.9513    Y=             -1.8774    Z=             -7.2457  Tot=              8.4639
 Quadrupole moment (field-independent basis, Debye-Ang):
   XX=           -518.8895   YY=           -547.1100   ZZ=           -452.1479
   XY=            -10.5055   XZ=             -0.9324   YZ=            -44.3863

 Normal termination of Gaussian 16 at Thu Aug 19 22:05:05 2021.
