 Gaussian 16, Revision A.03,
 Gaussian 16:  ES64L-G16RevA.03 25-Dec-2016

 -----------------------------------
 #p cam-b3lyp/Def2SVP td=(nstates=5)
 -----------------------------------

 --------------------------------
 TDDFT excited states in gaussian
 --------------------------------
 Symbolic Z-matrix:
 Charge =  0 Multiplicity = 1

                         Standard orientation:
 ---------------------------------------------------------------------
 Center     Atomic      Atomic             Coordinates (Angstroms)
 Number     Number       Type             X           Y           Z
 ---------------------------------------------------------------------
      1         12           0        4.418999   -0.641281    0.302165
      2          6           0        4.690785    2.603356   -1.184670
      3          6           0        5.011360    0.852142    3.312457
      4          6           0        4.635011   -3.538202    1.574095
      5          6           0        4.978216   -1.978289   -2.867275
      6          7           0        4.787005    1.468104    0.864049
      7          6           0        4.805977    2.623613    0.207079
      8          6           0        4.884059    3.865866    1.144140
      9          6           0        5.542580    3.176292    2.421965
     10          6           0        5.056498    1.753691    2.207828
     11          6           0        7.067691    3.182830    2.399726
     12          6           0        3.469884    4.451476    1.474143
     13          6           0        3.471683    5.845262    2.108739
     14          1           0        2.404488    6.772698    1.764785
     15          7           0        4.287799   -1.227188    2.184278
     16          6           0        4.550294   -0.481842    3.284660
     17          6           0        4.306555   -1.366805    4.444019
     18          6           0        4.064763   -2.741403    3.924295
     19          6           0        4.349084   -2.560136    2.523694
     20          6           0        4.270733   -0.877649    5.859361
     21          6           0        3.654372   -4.018453    4.586755
     22          8           0        3.726835   -5.147466    3.991227
     23          6           0        3.243478   -3.923264    5.999252
     24          7           0        4.974880   -2.496420   -0.476996
     25          6           0        4.925209   -3.602779    0.272995
     26          6           0        5.091504   -4.837049   -0.562985
     27          6           0        5.022621   -4.353808   -2.083343
     28          6           0        4.903648   -2.828870   -1.841108
     29          6           0        6.387036   -5.628679   -0.337309
     30          6           0        3.972632   -5.040340   -2.992528
     31          6           0        2.578972   -4.664499   -2.541359
     32          7           0        4.598328    0.135812   -1.716502
     33          6           0        4.853282   -0.599156   -2.883333
     34          6           0        4.994578    0.372265   -3.983535
     35          6           0        4.827372    1.613878   -3.373385
     36          6           0        4.622385    1.431114   -1.975934
     37          6           0        5.302722    0.059545   -5.336934
     38          6           0        4.798717    3.053750   -3.572893
     39          8           0        4.820328    3.793323   -4.557808
     40          6           0        4.830579    3.758166   -2.145094
     41          6           0        3.759347    4.814423   -2.135390
     42          8           0        2.552218    4.501815   -2.185211
     43          8           0        4.307610    6.000840   -1.831474
     44          6           0        3.293774    7.087685   -1.776194
     45          1           0        5.419564    1.173180    4.272793
     46          1           0        4.609069   -4.562149    1.952641
     47          1           0        5.069465   -2.326257   -3.897831
     48          1           0        5.526375    4.668758    0.781900
     49          1           0        5.142009    3.577551    3.352693
     50          1           0        7.450675    3.546034    1.446140
     51          1           0        7.365559    2.146409    2.559725
     52          1           0        7.465037    3.742940    3.246586
     53          1           0        3.024177    3.878121    2.286960
     54          1           0        2.839152    4.461198    0.584532
     55          1           0        4.444276    6.327790    2.008052
     56          1           0        3.336007    5.731025    3.184259
     57          1           0        4.647453    0.141184    5.940634
     58          1           0        4.986079   -1.477424    6.421730
     59          1           0        3.279687   -0.976071    6.302614
     60          1           0        4.065280   -3.512579    6.586217
     61          1           0        2.899370   -4.918057    6.280011
     62          1           0        2.422329   -3.210518    6.080840
     63          1           0        4.286452   -5.546768   -0.376933
     64          1           0        5.967531   -4.508298   -2.604833
     65          1           0        6.221208   -6.669519   -0.058279
     66          1           0        6.971818   -5.108898    0.421077
     67          1           0        7.076431   -5.627300   -1.181199
     68          1           0        4.053823   -6.123952   -2.914180
     69          1           0        4.075496   -4.775275   -4.044864
     70          1           0        2.385218   -5.371182   -1.735201
     71          1           0        1.866623   -4.797040   -3.356346
     72          1           0        2.556625   -3.663659   -2.109729
     73          1           0        4.643011    0.673737   -5.949729
     74          1           0        5.158940   -1.001282   -5.540837
     75          1           0        6.351130    0.354425   -5.378653
     76          1           0        5.826549    4.184098   -2.027848
     77          1           0        3.620086    7.866399   -2.465658
     78          1           0        3.183990    7.355879   -0.725278
     79          1           0        2.310400    6.850758   -2.183847
     80         12           0       -4.550303   -0.805457   -0.461436
     81          6           0       -4.505297    2.590186    0.699010
     82          6           0       -3.929041   -1.755651    2.755045
     83          6           0       -4.136808   -3.767438   -1.521224
     84          6           0       -4.028121    0.432772   -3.677001
     85          7           0       -4.273991    0.359398    1.398399
     86          6           0       -4.339757    1.640414    1.728568
     87          6           0       -4.301906    1.913676    3.256133
     88          6           0       -3.554746    0.570768    3.722198
     89          6           0       -3.968997   -0.349779    2.576061
     90          6           0       -2.039891    0.691223    3.714410
     91          6           0       -5.737659    2.018391    3.880364
     92          6           0       -5.781681    2.587861    5.300054
     93          1           0       -6.915346    3.426910    5.678582
     94          7           0       -4.586188   -2.534502    0.512057
     95          6           0       -4.330929   -2.736381    1.821776
     96          6           0       -4.468410   -4.184718    2.039880
     97          6           0       -4.663807   -4.841557    0.718857
     98          6           0       -4.444254   -3.717742   -0.169352
     99          6           0       -4.488621   -4.803354    3.407475
    100          6           0       -4.981443   -6.250990    0.320380
    101          8           0       -4.870719   -6.648912   -0.892981
    102          6           0       -5.335862   -7.175506    1.407190
    103          7           0       -3.931842   -1.574836   -2.291172
    104          6           0       -3.889493   -2.901731   -2.504440
    105          6           0       -3.683311   -3.212721   -3.967704
    106          6           0       -3.838485   -1.815391   -4.729925
    107          6           0       -4.027332   -0.883034   -3.513193
    108          6           0       -2.339248   -3.843655   -4.330742
    109          6           0       -4.882276   -1.752349   -5.878483
    110          6           0       -6.278449   -1.889300   -5.315142
    111          7           0       -4.491006    1.146426   -1.385927
    112          6           0       -4.231481    1.440166   -2.742558
    113          6           0       -4.183166    2.911344   -2.867953
    114          6           0       -4.396767    3.374752   -1.560999
    115          6           0       -4.546124    2.270059   -0.679608
    116          6           0       -3.917751    3.636027   -4.063993
    117          6           0       -4.519259    4.547116   -0.724787
    118          8           0       -4.565928    5.759352   -0.929832
    119          6           0       -4.468966    4.090093    0.796723
    120          6           0       -5.595039    4.772306    1.524090
    121          8           0       -6.778281    4.507675    1.247502
    122          8           0       -5.094131    5.457577    2.568054
    123          6           0       -6.174006    6.142633    3.327257
    124          1           0       -3.511166   -2.148950    3.682177
    125          1           0       -4.092937   -4.767684   -1.958330
    126          1           0       -3.967477    0.898317   -4.663030
    127          1           0       -3.723066    2.781700    3.548119
    128          1           0       -3.950578    0.205909    4.666417
    129          1           0       -1.712211    1.625042    3.282259
    130          1           0       -1.681403   -0.143935    3.127015
    131          1           0       -1.644672    0.541807    4.723280
    132          1           0       -6.119577    1.007293    4.071573
    133          1           0       -6.389598    2.584265    3.243655
    134          1           0       -4.836849    3.069014    5.580654
    135          1           0       -5.879191    1.757831    6.004014
    136          1           0       -4.157985   -4.092991    4.175229
    137          1           0       -3.723548   -5.587241    3.415179
    138          1           0       -5.454450   -5.249741    3.653605
    139          1           0       -4.518276   -7.222199    2.122619
    140          1           0       -5.615679   -8.109755    0.916530
    141          1           0       -6.200731   -6.769598    1.943716
    142          1           0       -4.442273   -3.896014   -4.328520
    143          1           0       -2.900515   -1.510507   -5.216860
    144          1           0       -2.439344   -4.814715   -4.851426
    145          1           0       -1.759086   -3.956149   -3.424491
    146          1           0       -1.689151   -3.223705   -4.945761
    147          1           0       -4.741009   -2.590700   -6.565045
    148          1           0       -4.823994   -0.841927   -6.465612
    149          1           0       -6.399189   -2.972149   -5.215389
    150          1           0       -7.011528   -1.472077   -6.002566
    151          1           0       -6.341439   -1.456612   -4.309920
    152          1           0       -4.623958    4.455066   -4.094969
    153          1           0       -4.006635    2.999999   -4.942254
    154          1           0       -2.884078    3.941753   -3.881488
    155          1           0       -3.493542    4.375588    1.192460
    156          1           0       -5.912033    7.204442    3.367635
    157          1           0       -6.248617    5.605215    4.291286
    158          1           0       -7.157052    6.184469    2.873043
 ---------------------------------------------------------------------

 SCF Done:  E(RCAM-B3LYP) =  -4069.81171408     A.U. after   19 cycles

 Excitation energies and oscillator strengths:

 Excited State   1:      Singlet-A      1.6535 eV  749.83 nm  f=0.0968  <S**2>=0.000
     309 -> 315       -0.11570
     310 -> 316        0.12193
     311 -> 313        0.47163
     312 -> 314        0.49967
 This state for optimization and/or second-order correction.
 Total Energy, E(TD-HF/TD-DFT) =  -4069.75094893
 Copying the excited state density for this state as the 1-particle RhoCI density.

 Excited State   2:      Singlet-A      1.6958 eV  731.13 nm  f=0.5827  <S**2>=0.000
     309 -> 315       -0.13025
     310 -> 316       -0.12313
     311 -> 313        0.49771
     312 -> 314       -0.47000

 Excited State   3:      Singlet-A      2.1835 eV  567.81 nm  f=0.0374  <S**2>=0.000
     309 -> 313       -0.34859
     310 -> 314        0.54115
     311 -> 315       -0.14577
     312 -> 316       -0.22826

 Excited State   4:      Singlet-A      2.1926 eV  565.48 nm  f=0.1488  <S**2>=0.000
     309 -> 313        0.53816
     310 -> 314        0.34545
     311 -> 315        0.23478
     312 -> 316       -0.15191

 Excited State   5:      Singlet-A      2.3489 eV  527.83 nm  f=0.0000  <S**2>=0.000
     312 -> 313        0.70708

 The electronic state is 1-A.
 Alpha  occ. eigenvalues --  -46.87891 -46.87449 -19.26259 -19.26240 -19.19042
 Alpha  occ. eigenvalues --  -19.19002 -19.18977 -19.18515 -19.18245 -19.17833
 Alpha  occ. eigenvalues --  -14.42542 -14.42301 -14.41539 -14.41148 -14.39508
 Alpha  occ. eigenvalues --  -14.39140 -14.38680 -14.38371 -10.39068 -10.38965
 Alpha  occ. eigenvalues --  -10.35616 -10.35195 -10.34460 -10.34012 -10.31708
 Alpha  occ. eigenvalues --  -10.31568 -10.31487 -10.31111 -10.31001 -10.30854
 Alpha  occ. eigenvalues --  -10.30664 -10.30606 -10.30309 -10.30165 -10.30129
 Alpha  occ. eigenvalues --  -10.30001 -10.29933 -10.29741 -10.29668 -10.29368
 Alpha  occ. eigenvalues --  -10.29216 -10.29165 -10.28807 -10.28631 -10.28617
 Alpha  occ. eigenvalues --  -10.28530 -10.28464 -10.28195 -10.28186 -10.28041
 Alpha  occ. eigenvalues --  -10.27900 -10.27825 -10.27766 -10.27705 -10.27657
 Alpha  occ. eigenvalues --  -10.27570 -10.27514 -10.27488 -10.27476 -10.27312
 Alpha  occ. eigenvalues --  -10.27281 -10.27274 -10.27239 -10.27204 -10.27195
 Alpha  occ. eigenvalues --  -10.26863 -10.26746 -10.26649 -10.26617 -10.26297
 Alpha  occ. eigenvalues --  -10.26236 -10.26232 -10.26115 -10.25976 -10.25949
 Alpha  occ. eigenvalues --  -10.25948 -10.25702 -10.25496 -10.25452 -10.25254
 Alpha  occ. eigenvalues --  -10.24933 -10.24879 -10.24716 -10.24627 -10.24559
 Alpha  occ. eigenvalues --  -10.24481  -3.16634  -3.16199  -1.91516  -1.91102
 Alpha  occ. eigenvalues --   -1.91081  -1.90944  -1.90670  -1.90506  -1.16595
 Alpha  occ. eigenvalues --   -1.16546  -1.08695  -1.08444  -1.07381  -1.06826
 Alpha  occ. eigenvalues --   -1.06770  -1.06624  -1.04672  -1.04302  -1.03852
 Alpha  occ. eigenvalues --   -1.03454  -1.03333  -1.02818  -1.02506  -1.01892
 Alpha  occ. eigenvalues --   -0.92051  -0.91781  -0.89596  -0.89289  -0.89253
 Alpha  occ. eigenvalues --   -0.89036  -0.88360  -0.88027  -0.87972  -0.87760
 Alpha  occ. eigenvalues --   -0.87535  -0.87472  -0.87420  -0.86910  -0.85054
 Alpha  occ. eigenvalues --   -0.84861  -0.83997  -0.83691  -0.83124  -0.82742
 Alpha  occ. eigenvalues --   -0.82720  -0.82505  -0.81614  -0.81433  -0.80665
 Alpha  occ. eigenvalues --   -0.80264  -0.78923  -0.78410  -0.77299  -0.76976
 Alpha  occ. eigenvalues --   -0.76975  -0.76753  -0.75976  -0.75686  -0.74961
 Alpha  occ. eigenvalues --   -0.74630  -0.72867  -0.72473  -0.71747  -0.71407
 Alpha  occ. eigenvalues --   -0.69966  -0.69573  -0.68953  -0.68677  -0.67735
 Alpha  occ. eigenvalues --   -0.67407  -0.67301  -0.67058  -0.65350  -0.65129
 Alpha  occ. eigenvalues --   -0.64921  -0.64678  -0.64578  -0.64492  -0.64341
 Alpha  occ. eigenvalues --   -0.64011  -0.62309  -0.62128  -0.60566  -0.60134
 Alpha  occ. eigenvalues --   -0.59883  -0.59643  -0.59067  -0.58794  -0.58584
 Alpha  occ. eigenvalues --   -0.58233  -0.57634  -0.57384  -0.57368  -0.57036
 Alpha  occ. eigenvalues --   -0.56412  -0.55993  -0.55985  -0.55755  -0.55628
 Alpha  occ. eigenvalues --   -0.55387  -0.55271  -0.55068  -0.54552  -0.54330
 Alpha  occ. eigenvalues --   -0.53960  -0.53795  -0.53413  -0.53310  -0.53026
 Alpha  occ. eigenvalues --   -0.52981  -0.52978  -0.52870  -0.52749  -0.52496
 Alpha  occ. eigenvalues --   -0.52493  -0.52216  -0.52010  -0.51699  -0.51558
 Alpha  occ. eigenvalues --   -0.51508  -0.51261  -0.51008  -0.50750  -0.50291
 Alpha  occ. eigenvalues --   -0.50112  -0.50046  -0.49826  -0.49683  -0.49608
 Alpha  occ. eigenvalues --   -0.49318  -0.49306  -0.49162  -0.49037  -0.48928
 Alpha  occ. eigenvalues --   -0.48649  -0.48588  -0.48512  -0.48389  -0.48192
 Alpha  occ. eigenvalues --   -0.48152  -0.47781  -0.47430  -0.47389  -0.46934
 Alpha  occ. eigenvalues --   -0.46874  -0.46621  -0.46528  -0.46444  -0.46418
 Alpha  occ. eigenvalues --   -0.46226  -0.46065  -0.45873  -0.45871  -0.45622
 Alpha  occ. eigenvalues --   -0.45275  -0.45032  -0.44658  -0.44605  -0.44375
 Alpha  occ. eigenvalues --   -0.44287  -0.44230  -0.44162  -0.44097  -0.43963
 Alpha  occ. eigenvalues --   -0.43892  -0.43754  -0.43532  -0.43459  -0.43404
 Alpha  occ. eigenvalues --   -0.43221  -0.43103  -0.42785  -0.42749  -0.42708
 Alpha  occ. eigenvalues --   -0.42645  -0.42363  -0.42067  -0.41800  -0.41782
 Alpha  occ. eigenvalues --   -0.41597  -0.41480  -0.41315  -0.41218  -0.40980
 Alpha  occ. eigenvalues --   -0.40919  -0.40829  -0.40636  -0.40573  -0.40550
 Alpha  occ. eigenvalues --   -0.40314  -0.40291  -0.40120  -0.39493  -0.39236
 Alpha  occ. eigenvalues --   -0.38534  -0.38179  -0.37799  -0.37544  -0.37397
 Alpha  occ. eigenvalues --   -0.37330  -0.37075  -0.37029  -0.36725  -0.36647
 Alpha  occ. eigenvalues --   -0.36229  -0.36046  -0.34376  -0.34047  -0.33776
 Alpha  occ. eigenvalues --   -0.33724  -0.33271  -0.32962  -0.31503  -0.31124
 Alpha  occ. eigenvalues --   -0.31077  -0.30772  -0.30099  -0.29741  -0.29570
 Alpha  occ. eigenvalues --   -0.29423  -0.29103  -0.28957  -0.24171  -0.23822
 Alpha  occ. eigenvalues --   -0.21226  -0.20901
 Alpha virt. eigenvalues --   -0.08880  -0.08568  -0.01849  -0.01476  -0.00184
 Alpha virt. eigenvalues --    0.00171   0.02110   0.02434   0.02855   0.03484
 Alpha virt. eigenvalues --    0.04649   0.04904   0.05098   0.05298   0.06158

 Mulliken charges:
               1
     1  Mg   0.838754
     2  C   -0.002705
     3  C   -0.094719
     4  C   -0.045734
     5  C   -0.064180
     6  N   -0.256795
     7  C   -0.052252
     8  C   -0.013877
     9  C   -0.086868
    10  C    0.046190
    11  C    0.104810
    12  C    0.053620
    13  C   -0.072830
    14  H    0.039103
    15  N   -0.433042
    16  C    0.168058
    17  C   -0.177981
    18  C   -0.004640
    19  C    0.148709
    20  C    0.110322
    21  C    0.011451
    22  O   -0.249416
    23  C    0.063113
    24  N   -0.341266
    25  C    0.041353
    26  C   -0.028273
    27  C   -0.024063
    28  C    0.075340
    29  C    0.076097
    30  C    0.034901
    31  C   -0.005561
    32  N   -0.310577
    33  C    0.080807
    34  C   -0.170026
    35  C    0.008509
    36  C    0.083219
    37  C    0.127351
    38  C    0.046099
    39  O   -0.187817
    40  C   -0.005219
    41  C    0.212835
    42  O   -0.256780
    43  O   -0.305115
    44  C    0.157022
    45  H   -0.017705
    46  H   -0.016821
    47  H   -0.041435
    48  H    0.001421
    49  H   -0.004291
    50  H    0.025690
    51  H    0.016320
    52  H    0.016755
    53  H    0.009678
    54  H    0.044944
    55  H    0.017984
    56  H    0.017098
    57  H    0.006035
    58  H    0.027025
    59  H    0.037289
    60  H    0.037961
    61  H    0.034995
    62  H    0.028944
    63  H    0.016973
    64  H    0.009607
    65  H    0.023410
    66  H    0.012419
    67  H    0.004896
    68  H    0.007038
    69  H    0.004215
    70  H    0.010278
    71  H    0.018975
    72  H    0.028625
    73  H    0.047317
    74  H    0.009005
    75  H    0.046451
    76  H    0.035358
    77  H    0.043246
    78  H    0.046757
    79  H    0.055589
    80  Mg   0.838031
    81  C   -0.016560
    82  C   -0.088006
    83  C   -0.045211
    84  C   -0.062529
    85  N   -0.254427
    86  C   -0.049642
    87  C   -0.014994
    88  C   -0.090649
    89  C    0.045624
    90  C    0.114737
    91  C    0.062718
    92  C   -0.077379
    93  H    0.034478
    94  N   -0.423436
    95  C    0.162489
    96  C   -0.174479
    97  C   -0.007908
    98  C    0.151773
    99  C    0.099301
   100  C    0.015530
   101  O   -0.253890
   102  C    0.061185
   103  N   -0.349769
   104  C    0.037078
   105  C   -0.019894
   106  C   -0.035284
   107  C    0.088934
   108  C    0.072859
   109  C    0.034716
   110  C   -0.007564
   111  N   -0.324683
   112  C    0.078795
   113  C   -0.159899
   114  C    0.003352
   115  C    0.096543
   116  C    0.130052
   117  C    0.043971
   118  O   -0.188313
   119  C    0.000383
   120  C    0.210905
   121  O   -0.251154
   122  O   -0.305926
   123  C    0.152205
   124  H   -0.021056
   125  H   -0.016142
   126  H   -0.039165
   127  H   -0.001642
   128  H   -0.005432
   129  H    0.022876
   130  H    0.015493
   131  H    0.012725
   132  H    0.014020
   133  H    0.037822
   134  H    0.019684
   135  H    0.019105
   136  H    0.007571
   137  H    0.026953
   138  H    0.038969
   139  H    0.038768
   140  H    0.035795
   141  H    0.033409
   142  H    0.013910
   143  H    0.013929
   144  H    0.023774
   145  H    0.012748
   146  H    0.005579
   147  H    0.005638
   148  H    0.004279
   149  H    0.010504
   150  H    0.017655
   151  H    0.030166
   152  H    0.044600
   153  H    0.008098
   154  H    0.054212
   155  H    0.035427
   156  H    0.043198
   157  H    0.048919
   158  H    0.053578
 Sum of Mulliken charges =  -0.00000

 Dipole moment (field-independent basis, Debye):
    X=              3.5284    Y=             -1.8469    Z=              7.0273  Tot=              8.0773
 Quadrupole moment (field-independent basis, Debye-Ang):
   XX=           -519.1029   YY=           -536.6099   ZZ=           -462.6736
   XY=             14.9011   XZ=             -0.8364   YZ=             34.6730

 Normal termination of Gaussian 16 at Thu Aug 19 21:28:49 2021.
