 Gaussian 16, Revision A.03,
 Gaussian 16:  ES64L-G16RevA.03 25-Dec-2016

 -----------------------------------
 #p cam-b3lyp/Def2SVP td=(nstates=5)
 -----------------------------------

 --------------------------------
 TDDFT excited states in gaussian
 --------------------------------
 Symbolic Z-matrix:
 Charge =  0 Multiplicity = 1

                         Standard orientation:
 ---------------------------------------------------------------------
 Center     Atomic      Atomic             Coordinates (Angstroms)
 Number     Number       Type             X           Y           Z
 ---------------------------------------------------------------------
      1         12           0       -4.384006    0.628725    0.565389
      2          6           0       -4.868667   -2.280571   -1.462742
      3          6           0       -4.860137   -1.372334    3.287910
      4          6           0       -4.412041    3.249348    2.350933
      5          6           0       -5.071981    2.537667   -2.268036
      6          7           0       -4.801790   -1.536573    0.759261
      7          6           0       -4.904114   -2.551561   -0.093088
      8          6           0       -4.976891   -3.941430    0.607155
      9          6           0       -5.532953   -3.478670    2.027946
     10          6           0       -5.004377   -2.055195    2.043753
     11          6           0       -7.055881   -3.437968    2.102352
     12          6           0       -3.570202   -4.617179    0.734912
     13          6           0       -3.590295   -6.102847    1.106045
     14          1           0       -2.582070   -6.981568    0.532740
     15          7           0       -4.121508    0.856876    2.510097
     16          6           0       -4.349260   -0.069294    3.472191
     17          6           0       -4.004401    0.581658    4.754382
     18          6           0       -3.739032    2.020700    4.477196
     19          6           0       -4.110571    2.106541    3.087963
     20          6           0       -3.906309   -0.158721    6.052830
     21          6           0       -3.241142    3.143077    5.331892
     22          8           0       -3.303305    4.363496    4.956009
     23          6           0       -2.753541    2.779801    6.674768
     24          7           0       -4.910398    2.609956    0.171344
     25          6           0       -4.774022    3.558776    1.104149
     26          6           0       -4.939510    4.929227    0.517280
     27          6           0       -4.977507    4.730214   -1.066608
     28          6           0       -4.904915    3.183947   -1.111974
     29          6           0       -6.187685    5.702545    0.964548
     30          6           0       -3.955475    5.541407   -1.901974
     31          6           0       -2.554001    5.050247   -1.616087
     32          7           0       -4.709920    0.239000   -1.544810
     33          6           0       -5.002596    1.181725   -2.540945
     34          6           0       -5.245256    0.432103   -3.787240
     35          6           0       -5.092172   -0.904322   -3.423401
     36          6           0       -4.799896   -0.985875   -2.031921
     37          6           0       -5.618381    0.995458   -5.039376
     38          6           0       -5.131804   -2.283713   -3.881185
     39          8           0       -5.239290   -2.829933   -4.980086
     40          6           0       -5.108990   -3.236005   -2.605079
     41          6           0       -4.081416   -4.306067   -2.854812
     42          8           0       -2.867795   -4.023831   -2.924335
     43          8           0       -4.657541   -5.512082   -2.735861
     44          6           0       -3.685798   -6.618914   -2.942724
     45          1           0       -5.224606   -1.851806    4.198520
     46          1           0       -4.324004    4.185727    2.905804
     47          1           0       -5.208735    3.070540   -3.210796
     48          1           0       -5.670152   -4.646141    0.147595
     49          1           0       -5.095488   -4.054406    2.843344
     50          1           0       -7.507228   -3.609830    1.125280
     51          1           0       -7.302974   -2.440249    2.465662
     52          1           0       -7.425478   -4.131958    2.857701
     53          1           0       -3.056126   -4.214835    1.607784
     54          1           0       -2.992697   -4.481971   -0.180257
     55          1           0       -4.585325   -6.531191    0.982167
     56          1           0       -3.388426   -6.190957    2.173606
     57          1           0       -4.317550   -1.164200    5.972585
     58          1           0       -4.563854    0.348138    6.758830
     59          1           0       -2.888244   -0.170983    6.442349
     60          1           0       -3.555661    2.292138    7.229148
     61          1           0       -2.354901    3.696414    7.108076
     62          1           0       -1.957764    2.041249    6.573623
     63          1           0       -4.097741    5.569975    0.776689
     64          1           0       -5.944099    5.004020   -1.490168
     65          1           0       -5.965176    6.669762    1.415865
     66          1           0       -6.747775    5.069649    1.652322
     67          1           0       -6.924118    5.874873    0.180082
     68          1           0       -3.989270    6.594307   -1.624115
     69          1           0       -4.129215    5.476128   -2.976126
     70          1           0       -2.286396    5.591950   -0.709568
     71          1           0       -1.885171    5.309323   -2.437524
     72          1           0       -2.546235    3.987157   -1.374706
     73          1           0       -5.019812    0.485215   -5.793919
     74          1           0       -5.444929    2.071193   -5.057023
     75          1           0       -6.678250    0.742890   -5.066632
     76          1           0       -6.112543   -3.647895   -2.503343
     77          1           0       -4.081746   -7.248988   -3.739258
     78          1           0       -3.526239   -7.077633   -1.966751
     79          1           0       -2.719003   -6.339343   -3.362827
     80         12           0        4.525810    0.679282   -0.727339
     81          6           0        4.596839   -2.426232    1.069821
     82          6           0        4.068905    2.233853    2.274185
     83          6           0        4.009202    3.377034   -2.315636
     84          6           0        3.845592   -1.162484   -3.606729
     85          7           0        4.370554   -0.103059    1.335691
     86          6           0        4.474005   -1.295190    1.903543
     87          6           0        4.524856   -1.266511    3.454727
     88          6           0        3.784199    0.138195    3.693665
     89          6           0        4.120355    0.820184    2.369058
     90          6           0        2.273247    0.012127    3.796037
     91          6           0        5.994355   -1.241836    4.004249
     92          6           0        6.125487   -1.524334    5.502494
     93          1           0        7.291016   -2.269013    5.970974
     94          7           0        4.589072    2.564693   -0.111062
     95          6           0        4.403576    3.016188    1.147120
     96          6           0        4.530786    4.479867    1.072178
     97          6           0        4.642800    4.868255   -0.360066
     98          6           0        4.391647    3.592321   -0.999604
     99          6           0        4.617140    5.352576    2.290507
    100          6           0        4.916375    6.174707   -1.041646
    101          8           0        4.732682    6.328736   -2.300755
    102          6           0        5.316197    7.294299   -0.176686
    103          7           0        3.795460    1.075751   -2.633058
    104          6           0        3.721141    2.335700   -3.096645
    105          6           0        3.429648    2.355498   -4.578206
    106          6           0        3.563744    0.837343   -5.062780
    107          6           0        3.833778    0.160051   -3.701256
    108          6           0        2.058095    2.898160   -4.979156
    109          6           0        4.543277    0.556699   -6.235131
    110          6           0        5.966207    0.806429   -5.789820
    111          7           0        4.445270   -1.415297   -1.251088
    112          6           0        4.115644   -1.968190   -2.507965
    113          6           0        4.082921   -3.435876   -2.342893
    114          6           0        4.375500   -3.635531   -0.985315
    115          6           0        4.556497   -2.379982   -0.344742
    116          6           0        3.762879   -4.380313   -3.358641
    117          6           0        4.561919   -4.622492    0.053836
    118          8           0        4.615671   -5.851255    0.085295
    119          6           0        4.588856   -3.878698    1.458277
    120          6           0        5.763699   -4.401770    2.238435
    121          8           0        6.925671   -4.190935    1.848586
    122          8           0        5.331796   -4.873187    3.422333
    123          6           0        6.462322   -5.393051    4.236865
    124          1           0        3.696983    2.798076    3.129881
    125          1           0        3.925970    4.273060   -2.935059
    126          1           0        3.737625   -1.811036   -4.478733
    127          1           0        3.976355   -2.063676    3.942019
    128          1           0        4.226023    0.681293    4.525055
    129          1           0        1.936459   -0.989252    3.572511
    130          1           0        1.870128    0.715671    3.079404
    131          1           0        1.932178    0.353096    4.777733
    132          1           0        6.370786   -0.211253    3.973719
    133          1           0        6.618649   -1.917902    3.453044
    134          1           0        5.205070   -1.945771    5.924602
    135          1           0        6.249087   -0.572921    6.025506
    136          1           0        4.340329    4.803585    3.199015
    137          1           0        3.841792    6.119772    2.189902
    138          1           0        5.588172    5.842376    2.389811
    139          1           0        4.538796    7.475691    0.561692
    140          1           0        5.554172    8.116549   -0.854297
    141          1           0        6.215504    7.004066    0.377959
    142          1           0        4.156978    2.958844   -5.107415
    143          1           0        2.605048    0.439681   -5.426935
    144          1           0        2.114426    3.749925   -5.683005
    145          1           0        1.527287    3.182189   -4.080202
    146          1           0        1.384534    2.167768   -5.424149
    147          1           0        4.351488    1.245021   -7.061922
    148          1           0        4.466520   -0.450712   -6.630373
    149          1           0        6.075738    1.888512   -5.908885
    150          1           0        6.666441    0.266657   -6.424139
    151          1           0        6.091277    0.577623   -4.725079
    152          1           0        4.478697   -5.186760   -3.270646
    153          1           0        3.793344   -3.926734   -4.347129
    154          1           0        2.745654   -4.649106   -3.061522
    155          1           0        3.641279   -4.085958    1.956977
    156          1           0        6.219220   -6.427857    4.497170
    157          1           0        6.581914   -4.678208    5.072587
    158          1           0        7.419278   -5.518216    3.743889
 ---------------------------------------------------------------------

 SCF Done:  E(RCAM-B3LYP) =  -4069.81207691     A.U. after   19 cycles

 Excitation energies and oscillator strengths:

 Excited State   1:      Singlet-A      1.6610 eV  746.43 nm  f=0.2023  <S**2>=0.000
     309 -> 315        0.11416
     310 -> 316       -0.12578
     311 -> 313       -0.46032
     312 -> 314        0.50928
 This state for optimization and/or second-order correction.
 Total Energy, E(TD-HF/TD-DFT) =  -4069.75103490
 Copying the excited state density for this state as the 1-particle RhoCI density.

 Excited State   2:      Singlet-A      1.6862 eV  735.31 nm  f=0.4705  <S**2>=0.000
     309 -> 315       -0.13080
     310 -> 316       -0.11876
     311 -> 313        0.50810
     312 -> 314        0.45952

 Excited State   3:      Singlet-A      2.1848 eV  567.49 nm  f=0.0767  <S**2>=0.000
     309 -> 313       -0.21130
     310 -> 314        0.60699
     312 -> 316        0.25769

 Excited State   4:      Singlet-A      2.1904 eV  566.04 nm  f=0.1180  <S**2>=0.000
     309 -> 313        0.60536
     310 -> 314        0.20969
     311 -> 315        0.26141

 Excited State   5:      Singlet-A      2.3493 eV  527.76 nm  f=0.0000  <S**2>=0.000
     312 -> 313        0.70707

 The electronic state is 1-A.
 Alpha  occ. eigenvalues --  -46.87897 -46.87456 -19.26302 -19.26300 -19.19083
 Alpha  occ. eigenvalues --  -19.19063 -19.19009 -19.18539 -19.18272 -19.17891
 Alpha  occ. eigenvalues --  -14.42541 -14.42309 -14.41545 -14.41144 -14.39515
 Alpha  occ. eigenvalues --  -14.39151 -14.38688 -14.38387 -10.39123 -10.39008
 Alpha  occ. eigenvalues --  -10.35648 -10.35218 -10.34486 -10.34071 -10.31745
 Alpha  occ. eigenvalues --  -10.31651 -10.31485 -10.31124 -10.31002 -10.30865
 Alpha  occ. eigenvalues --  -10.30668 -10.30618 -10.30314 -10.30181 -10.30145
 Alpha  occ. eigenvalues --  -10.30013 -10.29910 -10.29750 -10.29667 -10.29375
 Alpha  occ. eigenvalues --  -10.29219 -10.29184 -10.28783 -10.28641 -10.28634
 Alpha  occ. eigenvalues --  -10.28474 -10.28456 -10.28216 -10.28164 -10.28050
 Alpha  occ. eigenvalues --  -10.27911 -10.27822 -10.27792 -10.27715 -10.27644
 Alpha  occ. eigenvalues --  -10.27572 -10.27531 -10.27496 -10.27473 -10.27298
 Alpha  occ. eigenvalues --  -10.27262 -10.27257 -10.27244 -10.27231 -10.27141
 Alpha  occ. eigenvalues --  -10.26920 -10.26693 -10.26680 -10.26629 -10.26281
 Alpha  occ. eigenvalues --  -10.26261 -10.26217 -10.26117 -10.25992 -10.25957
 Alpha  occ. eigenvalues --  -10.25888 -10.25688 -10.25518 -10.25515 -10.25164
 Alpha  occ. eigenvalues --  -10.24947 -10.24893 -10.24688 -10.24660 -10.24517
 Alpha  occ. eigenvalues --  -10.24487  -3.16639  -3.16206  -1.91521  -1.91107
 Alpha  occ. eigenvalues --   -1.91088  -1.90950  -1.90677  -1.90513  -1.16655
 Alpha  occ. eigenvalues --   -1.16588  -1.08724  -1.08506  -1.07416  -1.06868
 Alpha  occ. eigenvalues --   -1.06794  -1.06683  -1.04673  -1.04313  -1.03858
 Alpha  occ. eigenvalues --   -1.03461  -1.03341  -1.02821  -1.02513  -1.01901
 Alpha  occ. eigenvalues --   -0.92064  -0.91806  -0.89599  -0.89273  -0.89232
 Alpha  occ. eigenvalues --   -0.89045  -0.88366  -0.87996  -0.87980  -0.87755
 Alpha  occ. eigenvalues --   -0.87557  -0.87486  -0.87429  -0.86922  -0.85040
 Alpha  occ. eigenvalues --   -0.84870  -0.84005  -0.83662  -0.83141  -0.82744
 Alpha  occ. eigenvalues --   -0.82720  -0.82516  -0.81641  -0.81459  -0.80682
 Alpha  occ. eigenvalues --   -0.80282  -0.78930  -0.78425  -0.77295  -0.76985
 Alpha  occ. eigenvalues --   -0.76975  -0.76751  -0.75982  -0.75703  -0.74973
 Alpha  occ. eigenvalues --   -0.74603  -0.72872  -0.72484  -0.71755  -0.71405
 Alpha  occ. eigenvalues --   -0.69963  -0.69533  -0.68947  -0.68689  -0.67749
 Alpha  occ. eigenvalues --   -0.67420  -0.67279  -0.67072  -0.65340  -0.65144
 Alpha  occ. eigenvalues --   -0.64933  -0.64686  -0.64586  -0.64500  -0.64347
 Alpha  occ. eigenvalues --   -0.63990  -0.62347  -0.62146  -0.60576  -0.60137
 Alpha  occ. eigenvalues --   -0.59873  -0.59658  -0.59076  -0.58799  -0.58596
 Alpha  occ. eigenvalues --   -0.58243  -0.57661  -0.57411  -0.57403  -0.57037
 Alpha  occ. eigenvalues --   -0.56420  -0.56016  -0.56012  -0.55774  -0.55644
 Alpha  occ. eigenvalues --   -0.55405  -0.55295  -0.55059  -0.54577  -0.54320
 Alpha  occ. eigenvalues --   -0.53942  -0.53808  -0.53426  -0.53311  -0.53036
 Alpha  occ. eigenvalues --   -0.53003  -0.52993  -0.52872  -0.52763  -0.52511
 Alpha  occ. eigenvalues --   -0.52491  -0.52181  -0.52022  -0.51692  -0.51604
 Alpha  occ. eigenvalues --   -0.51528  -0.51270  -0.51025  -0.50756  -0.50293
 Alpha  occ. eigenvalues --   -0.50110  -0.50055  -0.49834  -0.49654  -0.49609
 Alpha  occ. eigenvalues --   -0.49334  -0.49319  -0.49155  -0.49058  -0.48954
 Alpha  occ. eigenvalues --   -0.48665  -0.48607  -0.48532  -0.48413  -0.48187
 Alpha  occ. eigenvalues --   -0.48154  -0.47785  -0.47431  -0.47401  -0.46928
 Alpha  occ. eigenvalues --   -0.46874  -0.46606  -0.46530  -0.46453  -0.46419
 Alpha  occ. eigenvalues --   -0.46244  -0.46065  -0.45889  -0.45875  -0.45650
 Alpha  occ. eigenvalues --   -0.45283  -0.45008  -0.44675  -0.44607  -0.44388
 Alpha  occ. eigenvalues --   -0.44305  -0.44235  -0.44145  -0.44116  -0.43982
 Alpha  occ. eigenvalues --   -0.43888  -0.43779  -0.43561  -0.43453  -0.43421
 Alpha  occ. eigenvalues --   -0.43229  -0.43112  -0.42814  -0.42759  -0.42720
 Alpha  occ. eigenvalues --   -0.42693  -0.42344  -0.42064  -0.41794  -0.41791
 Alpha  occ. eigenvalues --   -0.41580  -0.41502  -0.41316  -0.41221  -0.40997
 Alpha  occ. eigenvalues --   -0.40904  -0.40834  -0.40637  -0.40582  -0.40560
 Alpha  occ. eigenvalues --   -0.40286  -0.40250  -0.40136  -0.39487  -0.39194
 Alpha  occ. eigenvalues --   -0.38534  -0.38151  -0.37776  -0.37552  -0.37399
 Alpha  occ. eigenvalues --   -0.37313  -0.37064  -0.37034  -0.36761  -0.36671
 Alpha  occ. eigenvalues --   -0.36251  -0.36035  -0.34382  -0.34057  -0.33827
 Alpha  occ. eigenvalues --   -0.33759  -0.33284  -0.32968  -0.31535  -0.31133
 Alpha  occ. eigenvalues --   -0.31098  -0.30782  -0.30126  -0.29799  -0.29582
 Alpha  occ. eigenvalues --   -0.29435  -0.29122  -0.28992  -0.24177  -0.23829
 Alpha  occ. eigenvalues --   -0.21230  -0.20909
 Alpha virt. eigenvalues --   -0.08889  -0.08584  -0.01857  -0.01478  -0.00199
 Alpha virt. eigenvalues --    0.00149   0.02092   0.02400   0.02848   0.03482
 Alpha virt. eigenvalues --    0.04659   0.04895   0.05050   0.05256   0.06184

 Mulliken charges:
               1
     1  Mg   0.838822
     2  C   -0.002776
     3  C   -0.094200
     4  C   -0.046140
     5  C   -0.064034
     6  N   -0.256876
     7  C   -0.051980
     8  C   -0.014037
     9  C   -0.086970
    10  C    0.046351
    11  C    0.104797
    12  C    0.053530
    13  C   -0.073109
    14  H    0.039708
    15  N   -0.433012
    16  C    0.168064
    17  C   -0.177637
    18  C   -0.004809
    19  C    0.148569
    20  C    0.110195
    21  C    0.010947
    22  O   -0.250062
    23  C    0.063089
    24  N   -0.341292
    25  C    0.041474
    26  C   -0.028055
    27  C   -0.024102
    28  C    0.075378
    29  C    0.076161
    30  C    0.034974
    31  C   -0.004723
    32  N   -0.310535
    33  C    0.080757
    34  C   -0.170071
    35  C    0.008322
    36  C    0.083186
    37  C    0.127373
    38  C    0.045896
    39  O   -0.188221
    40  C   -0.005182
    41  C    0.212940
    42  O   -0.257453
    43  O   -0.304773
    44  C    0.157611
    45  H   -0.017481
    46  H   -0.017228
    47  H   -0.041247
    48  H    0.001226
    49  H   -0.003742
    50  H    0.025558
    51  H    0.016197
    52  H    0.016930
    53  H    0.010772
    54  H    0.044473
    55  H    0.017526
    56  H    0.018009
    57  H    0.006433
    58  H    0.026934
    59  H    0.037801
    60  H    0.038287
    61  H    0.034622
    62  H    0.029063
    63  H    0.016245
    64  H    0.009601
    65  H    0.023060
    66  H    0.012471
    67  H    0.005006
    68  H    0.006665
    69  H    0.004790
    70  H    0.008431
    71  H    0.020527
    72  H    0.028410
    73  H    0.047080
    74  H    0.009317
    75  H    0.046430
    76  H    0.035472
    77  H    0.043073
    78  H    0.047460
    79  H    0.053678
    80  Mg   0.838061
    81  C   -0.017081
    82  C   -0.088057
    83  C   -0.045431
    84  C   -0.061106
    85  N   -0.254446
    86  C   -0.049995
    87  C   -0.015013
    88  C   -0.090554
    89  C    0.045347
    90  C    0.114863
    91  C    0.062727
    92  C   -0.077432
    93  H    0.034488
    94  N   -0.423409
    95  C    0.162445
    96  C   -0.174425
    97  C   -0.008169
    98  C    0.152004
    99  C    0.099338
   100  C    0.015250
   101  O   -0.253895
   102  C    0.061253
   103  N   -0.349830
   104  C    0.037625
   105  C   -0.020061
   106  C   -0.035544
   107  C    0.088793
   108  C    0.073136
   109  C    0.034584
   110  C   -0.007539
   111  N   -0.324492
   112  C    0.078383
   113  C   -0.160468
   114  C    0.002047
   115  C    0.096683
   116  C    0.130964
   117  C    0.042663
   118  O   -0.189070
   119  C    0.000812
   120  C    0.211017
   121  O   -0.250961
   122  O   -0.306093
   123  C    0.152174
   124  H   -0.019676
   125  H   -0.016157
   126  H   -0.038502
   127  H   -0.002107
   128  H   -0.004969
   129  H    0.021698
   130  H    0.016386
   131  H    0.012783
   132  H    0.014197
   133  H    0.037747
   134  H    0.019504
   135  H    0.019399
   136  H    0.008639
   137  H    0.026836
   138  H    0.039014
   139  H    0.038434
   140  H    0.035729
   141  H    0.033685
   142  H    0.013736
   143  H    0.016055
   144  H    0.023571
   145  H    0.011220
   146  H    0.008063
   147  H    0.005997
   148  H    0.004508
   149  H    0.010401
   150  H    0.017516
   151  H    0.029789
   152  H    0.044344
   153  H    0.009002
   154  H    0.051799
   155  H    0.033946
   156  H    0.043142
   157  H    0.049077
   158  H    0.053658
 Sum of Mulliken charges =  -0.00000

 Dipole moment (field-independent basis, Debye):
    X=             -3.1860    Y=              1.7856    Z=              6.5668  Tot=              7.5141
 Quadrupole moment (field-independent basis, Debye-Ang):
   XX=           -519.4250   YY=           -520.9243   ZZ=           -478.4842
   XY=             20.6125   XZ=             -0.6795   YZ=            -20.6213

 Normal termination of Gaussian 16 at Thu Aug 19 20:59:56 2021.
