 Gaussian 16, Revision A.03,
 Gaussian 16:  ES64L-G16RevA.03 25-Dec-2016

 -----------------------------------
 #p cam-b3lyp/Def2SVP td=(nstates=5)
 -----------------------------------

 --------------------------------
 TDDFT excited states in gaussian
 --------------------------------
 Symbolic Z-matrix:
 Charge =  0 Multiplicity = 1

                         Standard orientation:
 ---------------------------------------------------------------------
 Center     Atomic      Atomic             Coordinates (Angstroms)
 Number     Number       Type             X           Y           Z
 ---------------------------------------------------------------------
      1         12           0        4.296479    1.023737    0.504930
      2          6           0        5.187193   -1.743012   -1.584074
      3          6           0        4.701023    3.025866   -2.228363
      4          6           0        3.959033    3.526279    2.423271
      5          6           0        5.064875   -0.988000    3.245029
      6          7           0        4.871337    0.579817   -1.586270
      7          6           0        5.128090   -0.529316   -2.272618
      8          6           0        5.254121   -0.291049   -3.807127
      9          6           0        5.647873    1.253840   -3.790490
     10          6           0        5.005629    1.654029   -2.473944
     11          6           0        7.150570    1.498628   -3.698379
     12          6           0        3.901428   -0.529427   -4.558877
     13          6           0        4.010914   -0.637390   -6.082593
     14          1           0        3.130026   -1.558681   -6.784453
     15          7           0        3.851963    2.903832    0.092014
     16          6           0        4.071852    3.549751   -1.078338
     17          6           0        3.567390    4.926301   -0.885182
     18          6           0        3.210151    5.082490    0.552204
     19          6           0        3.690160    3.836138    1.092181
     20          6           0        3.419980    5.912969   -2.002548
     21          6           0        2.551631    6.185098    1.319498
     22          8           0        2.545848    6.215061    2.597638
     23          6           0        1.982915    7.289283    0.525533
     24          7           0        4.691240    1.321822    2.532970
     25          6           0        4.399226    2.482825    3.129444
     26          6           0        4.501751    2.370971    4.621730
     27          6           0        4.690292    0.816931    4.936635
     28          6           0        4.748068    0.286840    3.482697
     29          6           0        5.640220    3.166006    5.275808
     30          6           0        3.680248    0.170657    5.917736
     31          6           0        2.304253    0.139468    5.291026
     32          7           0        4.831199   -1.056068    0.820410
     33          6           0        5.129662   -1.673697    2.043574
     34          6           0        5.537625   -3.057796    1.740418
     35          6           0        5.463597   -3.144776    0.351606
     36          6           0        5.061759   -1.886547   -0.181008
     37          6           0        5.968647   -4.026375    2.689370
     38          6           0        5.654262   -4.000816   -0.808006
     39          8           0        5.898893   -5.196956   -0.972012
     40          6           0        5.600774   -3.092971   -2.115210
     41          6           0        4.688769   -3.769965   -3.101737
     42          8           0        3.466497   -3.877116   -2.873845
     43          8           0        5.349060   -3.970350   -4.252564
     44          6           0        4.491852   -4.612310   -5.284666
     45          1           0        5.024651    3.776204   -2.952379
     46          1           0        3.748150    4.331513    3.130071
     47          1           0        5.237364   -1.698877    4.055186
     48          1           0        6.039041   -0.870066   -4.294021
     49          1           0        5.191081    1.799138   -4.616149
     50          1           0        7.695810    0.570227   -3.528954
     51          1           0        7.283766    2.177531   -2.855857
     52          1           0        7.509965    2.036306   -4.576168
     53          1           0        3.283968    0.365341   -4.480175
     54          1           0        3.394688   -1.413476   -4.170293
     55          1           0        5.044457   -0.781496   -6.398714
     56          1           0        3.726913    0.322395   -6.514281
     57          1           0        3.917118    5.569058   -2.908708
     58          1           0        3.971655    6.807029   -1.712686
     59          1           0        2.376896    6.168950   -2.189042
     60          1           0        2.772089    7.747054   -0.071291
     61          1           0        1.475530    7.940527    1.236372
     62          1           0        1.261453    6.880110   -0.182294
     63          1           0        3.591578    2.725277    5.103889
     64          1           0        5.663841    0.604427    5.379036
     65          1           0        5.302087    3.868678    6.037795
     66          1           0        6.189546    3.679037    4.486928
     67          1           0        6.424147    2.556607    5.724704
     68          1           0        3.604394    0.763271    6.828780
     69          1           0        3.949376   -0.845914    6.204797
     70          1           0        1.917334    1.135438    5.503558
     71          1           0        1.688765   -0.627323    5.762637
     72          1           0        2.362663    0.037008    4.207248
     73          1           0        5.479938   -4.961076    2.414659
     74          1           0        5.710236   -3.727885    3.705111
     75          1           0        7.044043   -4.017797    2.512436
     76          1           0        6.622269   -3.017922   -2.486747
     77          1           0        5.004077   -5.518136   -5.609227
     78          1           0        4.287851   -3.849484   -6.036254
     79          1           0        3.544696   -5.025260   -4.935800
     80         12           0       -4.445464   -1.129583    0.515249
     81          6           0       -4.844137    1.334450   -2.063245
     82          6           0       -4.177598    1.449523    2.731344
     83          6           0       -3.644304   -3.250746    2.734771
     84          6           0       -3.608829   -3.408906   -1.984833
     85          7           0       -4.518471    1.064800    0.247662
     86          6           0       -4.736306    1.885114   -0.769189
     87          6           0       -4.924787    3.372420   -0.366763
     88          6           0       -4.134397    3.345390    1.030887
     89          6           0       -4.313062    1.870294    1.384239
     90          6           0       -2.647703    3.625392    0.887030
     91          6           0       -6.434300    3.750581   -0.165777
     92          6           0       -6.714555    5.252265   -0.075527
     93          1           0       -7.955715    5.764418   -0.649714
     94          7           0       -4.462730   -0.986066    2.494560
     95          6           0       -4.367165    0.141770    3.229511
     96          6           0       -4.408482   -0.289454    4.635391
     97          6           0       -4.370308   -1.776733    4.671165
     98          6           0       -4.131431   -2.068018    3.271812
     99          6           0       -4.557130    0.673057    5.777709
    100          6           0       -4.511083   -2.771722    5.783079
    101          8           0       -4.206936   -4.006652    5.624102
    102          6           0       -4.926457   -2.240494    7.089513
    103          7           0       -3.526552   -2.992035    0.419272
    104          6           0       -3.343426   -3.730536    1.527873
    105          6           0       -2.919273   -5.137932    1.181864
    106          6           0       -3.090441   -5.260746   -0.403436
    107          6           0       -3.517697   -3.811765   -0.724846
    108          6           0       -1.490121   -5.516425    1.570025
    109          6           0       -3.974241   -6.425514   -0.927738
    110          6           0       -5.416001   -6.196621   -0.534900
    111          7           0       -4.430549   -1.132501   -1.645261
    112          6           0       -4.019374   -2.183520   -2.494006
    113          6           0       -4.080345   -1.673705   -3.879212
    114          6           0       -4.504061   -0.343720   -3.737484
    115          6           0       -4.674357   -0.039582   -2.359803
    116          6           0       -3.721350   -2.400071   -5.049528
    117          6           0       -4.835777    0.875283   -4.439396
    118          8           0       -4.957919    1.190810   -5.622300
    119          6           0       -4.948968    2.054079   -3.379208
    120          6           0       -6.215536    2.814150   -3.663169
    121          8           0       -7.324777    2.271192   -3.516871
    122          8           0       -5.917701    4.113046   -3.848989
    123          6           0       -7.143112    4.910006   -4.122922
    124          1           0       -3.854401    2.180369    3.473167
    125          1           0       -3.457818   -4.052922    3.452555
    126          1           0       -3.457827   -4.087539   -2.827049
    127          1           0       -4.465841    4.086769   -1.039708
    128          1           0       -4.619425    3.976277    1.771217
    129          1           0       -2.346341    3.679832   -0.148511
    130          1           0       -2.144667    2.806804    1.384930
    131          1           0       -2.378491    4.527717    1.443507
    132          1           0       -6.750689    3.439722    0.838222
    133          1           0       -7.041844    3.315202   -0.935173
    134          1           0       -5.859723    5.851997   -0.410987
    135          1           0       -6.833501    5.520417    0.977077
    136          1           0       -4.392939    1.708616    5.455128
    137          1           0       -3.735874    0.472058    6.474138
    138          1           0       -5.505499    0.556019    6.306436
    139          1           0       -4.209990   -1.491924    7.419318
    140          1           0       -5.058140   -3.113609    7.731544
    141          1           0       -5.886244   -1.725852    6.968787
    142          1           0       -3.562700   -5.864856    1.662163
    143          1           0       -2.125593   -5.422700   -0.906104
    144          1           0       -1.437221   -6.403704    2.228821
    145          1           0       -1.027821   -4.661622    2.045555
    146          1           0       -0.819398   -5.706392    0.733818
    147          1           0       -3.672272   -7.368126   -0.464649
    148          1           0       -3.916367   -6.561638   -2.002497
    149          1           0       -5.456229   -6.578490    0.489616
    150          1           0       -6.084289   -6.752161   -1.189723
    151          1           0       -5.648374   -5.125999   -0.496998
    152          1           0       -4.484375   -2.196019   -5.788899
    153          1           0       -3.638477   -3.465712   -4.846277
    154          1           0       -2.750836   -1.947524   -5.269921
    155          1           0       -4.062529    2.679935   -3.489292
    156          1           0       -6.980211    5.430577   -5.071690
    157          1           0       -7.298865    5.536733   -3.224757
    158          1           0       -8.057207    4.367349   -4.333672
 ---------------------------------------------------------------------

 SCF Done:  E(RCAM-B3LYP) =  -4069.81235724     A.U. after   19 cycles

 Excitation energies and oscillator strengths:

 Excited State   1:      Singlet-A      1.6690 eV  742.86 nm  f=0.2896  <S**2>=0.000
     310 -> 316       -0.15291
     311 -> 313        0.31724
     312 -> 314        0.60846
 This state for optimization and/or second-order correction.
 Total Energy, E(TD-HF/TD-DFT) =  -4069.75102246
 Copying the excited state density for this state as the 1-particle RhoCI density.

 Excited State   2:      Singlet-A      1.6769 eV  739.36 nm  f=0.3822  <S**2>=0.000
     309 -> 315       -0.15438
     311 -> 313        0.60775
     312 -> 314       -0.31682

 Excited State   3:      Singlet-A      2.1833 eV  567.89 nm  f=0.0937  <S**2>=0.000
     309 -> 313        0.16959
     310 -> 314        0.62039
     312 -> 316        0.26138

 Excited State   4:      Singlet-A      2.1914 eV  565.78 nm  f=0.1031  <S**2>=0.000
     309 -> 313        0.61804
     310 -> 314       -0.16857
     311 -> 315        0.26725

 Excited State   5:      Singlet-A      2.3466 eV  528.36 nm  f=0.0000  <S**2>=0.000
     312 -> 313        0.70706

 The electronic state is 1-A.
 Alpha  occ. eigenvalues --  -46.87912 -46.87449 -19.26397 -19.26315 -19.19151
 Alpha  occ. eigenvalues --  -19.19097 -19.19014 -19.18552 -19.18294 -19.17932
 Alpha  occ. eigenvalues --  -14.42555 -14.42297 -14.41569 -14.41119 -14.39527
 Alpha  occ. eigenvalues --  -14.39150 -14.38702 -14.38397 -10.39207 -10.39023
 Alpha  occ. eigenvalues --  -10.35649 -10.35232 -10.34512 -10.34111 -10.31782
 Alpha  occ. eigenvalues --  -10.31750 -10.31498 -10.31120 -10.31016 -10.30847
 Alpha  occ. eigenvalues --  -10.30678 -10.30637 -10.30334 -10.30192 -10.30166
 Alpha  occ. eigenvalues --  -10.30046 -10.29873 -10.29758 -10.29641 -10.29379
 Alpha  occ. eigenvalues --  -10.29222 -10.29212 -10.28810 -10.28595 -10.28589
 Alpha  occ. eigenvalues --  -10.28527 -10.28485 -10.28223 -10.28176 -10.27982
 Alpha  occ. eigenvalues --  -10.27915 -10.27829 -10.27818 -10.27719 -10.27632
 Alpha  occ. eigenvalues --  -10.27596 -10.27591 -10.27518 -10.27461 -10.27303
 Alpha  occ. eigenvalues --  -10.27296 -10.27281 -10.27273 -10.27131 -10.27006
 Alpha  occ. eigenvalues --  -10.26948 -10.26734 -10.26641 -10.26590 -10.26315
 Alpha  occ. eigenvalues --  -10.26290 -10.26290 -10.26133 -10.25941 -10.25858
 Alpha  occ. eigenvalues --  -10.25808 -10.25682 -10.25669 -10.25575 -10.24954
 Alpha  occ. eigenvalues --  -10.24919 -10.24885 -10.24829 -10.24696 -10.24465
 Alpha  occ. eigenvalues --  -10.24459  -3.16655  -3.16200  -1.91537  -1.91123
 Alpha  occ. eigenvalues --   -1.91082  -1.90966  -1.90670  -1.90508  -1.16749
 Alpha  occ. eigenvalues --   -1.16601  -1.08751  -1.08550  -1.07422  -1.06883
 Alpha  occ. eigenvalues --   -1.06806  -1.06771  -1.04687  -1.04304  -1.03879
 Alpha  occ. eigenvalues --   -1.03452  -1.03356  -1.02811  -1.02531  -1.01895
 Alpha  occ. eigenvalues --   -0.92087  -0.91815  -0.89646  -0.89253  -0.89239
 Alpha  occ. eigenvalues --   -0.88992  -0.88416  -0.87981  -0.87922  -0.87773
 Alpha  occ. eigenvalues --   -0.87607  -0.87474  -0.87418  -0.86947  -0.85065
 Alpha  occ. eigenvalues --   -0.84835  -0.84068  -0.83589  -0.83138  -0.82754
 Alpha  occ. eigenvalues --   -0.82739  -0.82487  -0.81695  -0.81467  -0.80715
 Alpha  occ. eigenvalues --   -0.80285  -0.78924  -0.78452  -0.77326  -0.77021
 Alpha  occ. eigenvalues --   -0.76965  -0.76708  -0.76016  -0.75685  -0.75021
 Alpha  occ. eigenvalues --   -0.74504  -0.72888  -0.72493  -0.71782  -0.71353
 Alpha  occ. eigenvalues --   -0.70037  -0.69453  -0.68969  -0.68664  -0.67769
 Alpha  occ. eigenvalues --   -0.67412  -0.67304  -0.67061  -0.65370  -0.65122
 Alpha  occ. eigenvalues --   -0.64968  -0.64728  -0.64581  -0.64479  -0.64394
 Alpha  occ. eigenvalues --   -0.63933  -0.62413  -0.62140  -0.60583  -0.60133
 Alpha  occ. eigenvalues --   -0.59889  -0.59634  -0.59103  -0.58784  -0.58623
 Alpha  occ. eigenvalues --   -0.58234  -0.57702  -0.57441  -0.57436  -0.57016
 Alpha  occ. eigenvalues --   -0.56428  -0.56083  -0.56033  -0.55770  -0.55655
 Alpha  occ. eigenvalues --   -0.55466  -0.55312  -0.55019  -0.54647  -0.54263
 Alpha  occ. eigenvalues --   -0.53966  -0.53760  -0.53435  -0.53333  -0.53039
 Alpha  occ. eigenvalues --   -0.53038  -0.52981  -0.52884  -0.52749  -0.52573
 Alpha  occ. eigenvalues --   -0.52519  -0.52121  -0.52025  -0.51711  -0.51705
 Alpha  occ. eigenvalues --   -0.51520  -0.51307  -0.51026  -0.50729  -0.50302
 Alpha  occ. eigenvalues --   -0.50157  -0.50059  -0.49809  -0.49628  -0.49573
 Alpha  occ. eigenvalues --   -0.49335  -0.49328  -0.49179  -0.49054  -0.48950
 Alpha  occ. eigenvalues --   -0.48700  -0.48615  -0.48579  -0.48412  -0.48191
 Alpha  occ. eigenvalues --   -0.48082  -0.47809  -0.47419  -0.47408  -0.46905
 Alpha  occ. eigenvalues --   -0.46903  -0.46635  -0.46503  -0.46479  -0.46374
 Alpha  occ. eigenvalues --   -0.46281  -0.46064  -0.45924  -0.45849  -0.45664
 Alpha  occ. eigenvalues --   -0.45329  -0.44907  -0.44695  -0.44632  -0.44361
 Alpha  occ. eigenvalues --   -0.44297  -0.44272  -0.44172  -0.44142  -0.43970
 Alpha  occ. eigenvalues --   -0.43860  -0.43795  -0.43608  -0.43486  -0.43418
 Alpha  occ. eigenvalues --   -0.43192  -0.43140  -0.42828  -0.42825  -0.42780
 Alpha  occ. eigenvalues --   -0.42698  -0.42293  -0.42122  -0.41822  -0.41749
 Alpha  occ. eigenvalues --   -0.41612  -0.41488  -0.41276  -0.41248  -0.41003
 Alpha  occ. eigenvalues --   -0.40948  -0.40783  -0.40687  -0.40571  -0.40521
 Alpha  occ. eigenvalues --   -0.40285  -0.40209  -0.40109  -0.39574  -0.39121
 Alpha  occ. eigenvalues --   -0.38586  -0.38066  -0.37814  -0.37511  -0.37440
 Alpha  occ. eigenvalues --   -0.37346  -0.37049  -0.36992  -0.36835  -0.36663
 Alpha  occ. eigenvalues --   -0.36309  -0.35980  -0.34401  -0.34051  -0.33902
 Alpha  occ. eigenvalues --   -0.33769  -0.33306  -0.32965  -0.31542  -0.31156
 Alpha  occ. eigenvalues --   -0.31107  -0.30770  -0.30151  -0.29840  -0.29585
 Alpha  occ. eigenvalues --   -0.29443  -0.29145  -0.29031  -0.24196  -0.23825
 Alpha  occ. eigenvalues --   -0.21244  -0.20906
 Alpha virt. eigenvalues --   -0.08899  -0.08596  -0.01876  -0.01463  -0.00203
 Alpha virt. eigenvalues --    0.00138   0.02072   0.02374   0.02839   0.03488
 Alpha virt. eigenvalues --    0.04630   0.04928   0.04975   0.05242   0.06129

 Mulliken charges:
               1
     1  Mg   0.838956
     2  C   -0.002944
     3  C   -0.093330
     4  C   -0.046657
     5  C   -0.063759
     6  N   -0.256864
     7  C   -0.051988
     8  C   -0.014202
     9  C   -0.087120
    10  C    0.046354
    11  C    0.104721
    12  C    0.053211
    13  C   -0.072300
    14  H    0.036757
    15  N   -0.433068
    16  C    0.168206
    17  C   -0.177068
    18  C   -0.004657
    19  C    0.148571
    20  C    0.110018
    21  C    0.010900
    22  O   -0.250851
    23  C    0.062731
    24  N   -0.341194
    25  C    0.041450
    26  C   -0.027984
    27  C   -0.023968
    28  C    0.074901
    29  C    0.076197
    30  C    0.035140
    31  C   -0.004510
    32  N   -0.310537
    33  C    0.080623
    34  C   -0.169594
    35  C    0.008192
    36  C    0.083057
    37  C    0.127369
    38  C    0.045765
    39  O   -0.188426
    40  C   -0.005216
    41  C    0.213044
    42  O   -0.258100
    43  O   -0.304435
    44  C    0.157913
    45  H   -0.017102
    46  H   -0.017613
    47  H   -0.041120
    48  H    0.001061
    49  H   -0.003172
    50  H    0.025455
    51  H    0.016282
    52  H    0.017151
    53  H    0.012164
    54  H    0.043543
    55  H    0.017742
    56  H    0.019232
    57  H    0.006836
    58  H    0.026877
    59  H    0.039421
    60  H    0.038458
    61  H    0.034373
    62  H    0.030594
    63  H    0.015258
    64  H    0.009762
    65  H    0.022722
    66  H    0.012803
    67  H    0.005091
    68  H    0.005748
    69  H    0.005687
    70  H    0.006118
    71  H    0.019864
    72  H    0.029584
    73  H    0.047501
    74  H    0.009620
    75  H    0.046244
    76  H    0.035552
    77  H    0.043157
    78  H    0.047186
    79  H    0.052550
    80  Mg   0.837834
    81  C   -0.017412
    82  C   -0.088354
    83  C   -0.045568
    84  C   -0.061475
    85  N   -0.254643
    86  C   -0.050082
    87  C   -0.015000
    88  C   -0.090325
    89  C    0.045380
    90  C    0.113947
    91  C    0.062638
    92  C   -0.077462
    93  H    0.034197
    94  N   -0.423485
    95  C    0.162966
    96  C   -0.174801
    97  C   -0.008114
    98  C    0.152302
    99  C    0.099517
   100  C    0.015028
   101  O   -0.253159
   102  C    0.061369
   103  N   -0.350044
   104  C    0.038567
   105  C   -0.020732
   106  C   -0.035517
   107  C    0.089147
   108  C    0.071834
   109  C    0.034502
   110  C   -0.007480
   111  N   -0.324094
   112  C    0.078106
   113  C   -0.162668
   114  C    0.001440
   115  C    0.096490
   116  C    0.131889
   117  C    0.041700
   118  O   -0.189609
   119  C    0.001154
   120  C    0.211184
   121  O   -0.250861
   122  O   -0.306201
   123  C    0.152129
   124  H   -0.018930
   125  H   -0.015418
   126  H   -0.039343
   127  H   -0.002466
   128  H   -0.004313
   129  H    0.019799
   130  H    0.015974
   131  H    0.018133
   132  H    0.014160
   133  H    0.037457
   134  H    0.019787
   135  H    0.019879
   136  H    0.009136
   137  H    0.025477
   138  H    0.039283
   139  H    0.037628
   140  H    0.035946
   141  H    0.033834
   142  H    0.013426
   143  H    0.018174
   144  H    0.023797
   145  H    0.011707
   146  H    0.013408
   147  H    0.006782
   148  H    0.003570
   149  H    0.010576
   150  H    0.017036
   151  H    0.029323
   152  H    0.044859
   153  H    0.009100
   154  H    0.046866
   155  H    0.033097
   156  H    0.043007
   157  H    0.049425
   158  H    0.053658
 Sum of Mulliken charges =  -0.00000

 Dipole moment (field-independent basis, Debye):
    X=              2.9323    Y=              5.5982    Z=              1.2752  Tot=              6.4470
 Quadrupole moment (field-independent basis, Debye-Ang):
   XX=           -521.2652   YY=           -505.7912   ZZ=           -492.6010
   XY=              4.8649   XZ=            -32.7027   YZ=              3.4630

 Normal termination of Gaussian 16 at Thu Aug 19 20:42:06 2021.
