 Gaussian 16, Revision A.03,
 Gaussian 16:  ES64L-G16RevA.03 25-Dec-2016

 -----------------------------------
 #p cam-b3lyp/Def2SVP td=(nstates=5)
 -----------------------------------

 --------------------------------
 TDDFT excited states in gaussian
 --------------------------------
 Symbolic Z-matrix:
 Charge =  0 Multiplicity = 1

                         Standard orientation:
 ---------------------------------------------------------------------
 Center     Atomic      Atomic             Coordinates (Angstroms)
 Number     Number       Type             X           Y           Z
 ---------------------------------------------------------------------
      1         12           0       -4.398229    0.506031   -0.649062
      2          6           0       -4.594995   -2.874843    0.509898
      3          6           0       -5.729691    1.453363    2.346408
      4          6           0       -4.657538    3.443102   -1.816535
      5          6           0       -4.166671   -0.771759   -3.883145
      6          7           0       -5.037571   -0.656038    1.123362
      7          6           0       -5.004732   -1.940627    1.463838
      8          6           0       -5.375103   -2.193996    2.955818
      9          6           0       -6.235583   -0.879712    3.228270
     10          6           0       -5.607712    0.040033    2.195907
     11          6           0       -7.717004   -1.043300    2.904031
     12          6           0       -4.112496   -2.253896    3.879921
     13          6           0       -4.355827   -2.817456    5.282969
     14          1           0       -3.314045   -3.620191    5.905589
     15          7           0       -4.625862    2.236859    0.275746
     16          6           0       -5.172596    2.435593    1.499214
     17          6           0       -5.114020    3.893443    1.739886
     18          6           0       -4.662803    4.545016    0.478954
     19          6           0       -4.655775    3.422367   -0.423813
     20          6           0       -5.417537    4.521403    3.065516
     21          6           0       -4.306220    5.957519    0.138637
     22          8           0       -4.163793    6.350880   -1.069484
     23          6           0       -4.213627    6.901749    1.266865
     24          7           0       -4.632113    1.248738   -2.585894
     25          6           0       -4.658589    2.565057   -2.821662
     26          6           0       -4.548379    2.859384   -4.288347
     27          6           0       -4.194919    1.470549   -4.992589
     28          6           0       -4.247194    0.553640   -3.745667
     29          6           0       -5.797826    3.461544   -4.945840
     30          6           0       -2.926228    1.435535   -5.881192
     31          6           0       -1.693325    1.607891   -5.022505
     32          7           0       -4.203065   -1.460779   -1.546065
     33          6           0       -4.147056   -1.761490   -2.914681
     34          6           0       -4.125034   -3.230998   -3.033546
     35          6           0       -4.186892   -3.686222   -1.717951
     36          6           0       -4.270416   -2.572137   -0.834701
     37          6           0       -4.113462   -3.968589   -4.250205
     38          6           0       -4.226698   -4.855124   -0.854272
     39          8           0       -4.094869   -6.067375   -1.029088
     40          6           0       -4.615264   -4.379534    0.614965
     41          6           0       -3.654615   -5.030554    1.572375
     42          8           0       -2.444210   -4.726780    1.569686
     43          8           0       -4.344083   -5.724634    2.490759
     44          6           0       -3.451376   -6.371600    3.489089
     45          1           0       -6.356121    1.846535    3.149490
     46          1           0       -4.634441    4.441894   -2.257351
     47          1           0       -4.009778   -1.241022   -4.856094
     48          1           0       -5.985185   -3.080814    3.128379
     49          1           0       -6.074004   -0.488434    4.232519
     50          1           0       -7.915069   -1.997678    2.416330
     51          1           0       -7.961907   -0.216718    2.236740
     52          1           0       -8.327014   -0.899035    3.796138
     53          1           0       -3.807318   -1.239755    4.137690
     54          1           0       -3.309639   -2.814892    3.400307
     55          1           0       -5.318755   -3.324956    5.347171
     56          1           0       -4.443647   -1.981078    5.976483
     57          1           0       -5.879733    3.810308    3.749083
     58          1           0       -6.188089    5.272544    2.893049
     59          1           0       -4.538869    4.990993    3.507962
     60          1           0       -5.170409    6.934172    1.788464
     61          1           0       -3.862030    7.842130    0.843883
     62          1           0       -3.485600    6.523443    1.985064
     63          1           0       -3.749432    3.573129   -4.485013
     64          1           0       -4.992660    1.132985   -5.654657
     65          1           0       -5.616006    4.417019   -5.438500
     66          1           0       -6.568521    3.556125   -4.181396
     67          1           0       -6.290023    2.813802   -5.670815
     68          1           0       -2.939085    2.260105   -6.593137
     69          1           0       -2.822912    0.509915   -6.447589
     70          1           0       -1.621966    2.689474   -4.913335
     71          1           0       -0.815950    1.208198   -5.532082
     72          1           0       -1.839911    1.188853   -4.026812
     73          1           0       -3.387485   -4.770091   -4.114111
     74          1           0       -3.848887   -3.333817   -5.095585
     75          1           0       -5.148430   -4.307809   -4.290545
     76          1           0       -5.642982   -4.698325    0.786106
     77          1           0       -3.682191   -7.436928    3.483299
     78          1           0       -3.588442   -5.829265    4.424766
     79          1           0       -2.388628   -6.389961    3.245022
     80         12           0        4.514501    0.930702    0.551512
     81          6           0        4.684132   -2.237352   -1.125895
     82          6           0        3.343392   -0.745945    3.281341
     83          6           0        3.927865    3.741128    1.902366
     84          6           0        4.592711    2.440689   -2.588482
     85          7           0        4.109629   -1.214134    0.909299
     86          6           0        4.270222   -2.333118    0.219077
     87          6           0        4.047661   -3.632193    1.039102
     88          6           0        3.097445   -3.032504    2.186420
     89          6           0        3.564390   -1.578659    2.155360
     90          6           0        1.621780   -3.068030    1.825180
     91          6           0        5.383520   -4.197792    1.637111
     92          6           0        5.289692   -5.623183    2.185938
     93          1           0        6.444768   -6.504036    2.036413
     94          7           0        4.219941    1.403574    2.456293
     95          6           0        3.761424    0.594296    3.434107
     96          6           0        3.704712    1.422760    4.648443
     97          6           0        4.010406    2.829516    4.271252
     98          6           0        4.044906    2.713669    2.827131
     99          6           0        3.462634    0.849004    6.014330
    100          6           0        4.222337    4.075731    5.076380
    101          8           0        4.240501    5.235196    4.530340
    102          6           0        4.314630    3.906809    6.533924
    103          7           0        4.078921    2.807317   -0.230120
    104          6           0        3.919751    3.871888    0.575664
    105          6           0        3.888974    5.156565   -0.217456
    106          6           0        4.304726    4.751547   -1.707650
    107          6           0        4.422398    3.221768   -1.530612
    108          6           0        2.547883    5.889449   -0.244915
    109          6           0        5.500738    5.516928   -2.337272
    110          6           0        6.779355    5.162154   -1.612938
    111          7           0        4.803893    0.270267   -1.485180
    112          6           0        4.772869    1.064873   -2.652108
    113          6           0        4.906728    0.150809   -3.804932
    114          6           0        4.983834   -1.124467   -3.225090
    115          6           0        4.883380   -1.014822   -1.811807
    116          6           0        4.895186    0.533649   -5.175856
    117          6           0        5.116676   -2.539399   -3.487817
    118          8           0        5.326411   -3.220812   -4.490528
    119          6           0        4.801483   -3.333975   -2.147787
    120          6           0        5.882381   -4.361488   -1.951862
    121          8           0        7.055969   -4.011048   -1.736224
    122          8           0        5.318445   -5.577510   -1.835121
    123          6           0        6.349720   -6.628910   -1.628130
    124          1           0        2.757632   -1.141012    4.111818
    125          1           0        3.835150    4.745311    2.322481
    126          1           0        4.724095    2.842263   -3.595527
    127          1           0        3.533594   -4.423205    0.506365
    128          1           0        3.312889   -3.481633    3.152459
    129          1           0        1.464354   -3.383237    0.804390
    130          1           0        1.259173   -2.058743    1.969688
    131          1           0        1.073892   -3.690161    2.538697
    132          1           0        5.619716   -3.655608    2.561768
    133          1           0        6.177704   -4.138820    0.918497
    134          1           0        4.374157   -6.131196    1.859330
    135          1           0        5.193837   -5.570803    3.273179
    136          1           0        3.107986   -0.187560    5.958137
    137          1           0        2.621723    1.400635    6.448433
    138          1           0        4.328291    0.948835    6.672604
    139          1           0        3.404130    3.439694    6.901700
    140          1           0        4.555238    4.896052    6.928104
    141          1           0        5.134794    3.214544    6.754645
    142          1           0        4.610503    5.866421    0.168047
    143          1           0        3.484735    4.923252   -2.420362
    144          1           0        2.611847    6.930635    0.123743
    145          1           0        1.836679    5.321839    0.340367
    146          1           0        2.064220    5.931047   -1.219353
    147          1           0        5.365455    6.594752   -2.218313
    148          1           0        5.627617    5.323328   -3.397179
    149          1           0        6.763569    5.827194   -0.744286
    150          1           0        7.643995    5.357614   -2.244004
    151          1           0        6.747500    4.131863   -1.239935
    152          1           0        5.685373   -0.023470   -5.661354
    153          1           0        5.035881    1.606448   -5.290257
    154          1           0        3.886588    0.219578   -5.457572
    155          1           0        3.817825   -3.791160   -2.261674
    156          1           0        6.204449   -7.377811   -2.412814
    157          1           0        6.227181   -6.965640   -0.581545
    158          1           0        7.385555   -6.353313   -1.787958
 ---------------------------------------------------------------------

 SCF Done:  E(RCAM-B3LYP) =  -4069.81269086     A.U. after   19 cycles

 Excitation energies and oscillator strengths:

 Excited State   1:      Singlet-A      1.6549 eV  749.20 nm  f=0.1020  <S**2>=0.000
     309 -> 315       -0.10893
     310 -> 316        0.12788
     311 -> 313       -0.44235
     312 -> 314        0.52592
 This state for optimization and/or second-order correction.
 Total Energy, E(TD-HF/TD-DFT) =  -4069.75187525
 Copying the excited state density for this state as the 1-particle RhoCI density.

 Excited State   2:      Singlet-A      1.6927 eV  732.45 nm  f=0.5864  <S**2>=0.000
     309 -> 315        0.13735
     310 -> 316        0.11317
     311 -> 313        0.52389
     312 -> 314        0.44066

 Excited State   3:      Singlet-A      2.1802 eV  568.67 nm  f=0.0542  <S**2>=0.000
     309 -> 313       -0.23891
     310 -> 314        0.59887
     312 -> 316       -0.24745

 Excited State   4:      Singlet-A      2.1960 eV  564.59 nm  f=0.1312  <S**2>=0.000
     309 -> 313        0.59421
     310 -> 314        0.23539
     311 -> 315       -0.26133
     312 -> 316       -0.10428

 Excited State   5:      Singlet-A      2.3290 eV  532.34 nm  f=0.0000  <S**2>=0.000
     312 -> 313        0.70708

 The electronic state is 1-A.
 Alpha  occ. eigenvalues --  -46.87931 -46.87393 -19.26642 -19.26013 -19.19419
 Alpha  occ. eigenvalues --  -19.18907 -19.18851 -19.18569 -19.18339 -19.17792
 Alpha  occ. eigenvalues --  -14.42597 -14.42182 -14.41578 -14.41100 -14.39532
 Alpha  occ. eigenvalues --  -14.39101 -14.38724 -14.38339 -10.39443 -10.38775
 Alpha  occ. eigenvalues --  -10.35536 -10.35253 -10.34568 -10.33959 -10.32070
 Alpha  occ. eigenvalues --  -10.31564 -10.31432 -10.31074 -10.30962 -10.30709
 Alpha  occ. eigenvalues --  -10.30702 -10.30634 -10.30315 -10.30161 -10.30099
 Alpha  occ. eigenvalues --  -10.30046 -10.29905 -10.29754 -10.29650 -10.29370
 Alpha  occ. eigenvalues --  -10.29197 -10.29177 -10.28979 -10.28894 -10.28510
 Alpha  occ. eigenvalues --  -10.28311 -10.28279 -10.28231 -10.28136 -10.27917
 Alpha  occ. eigenvalues --  -10.27866 -10.27760 -10.27703 -10.27587 -10.27572
 Alpha  occ. eigenvalues --  -10.27563 -10.27552 -10.27547 -10.27381 -10.27362
 Alpha  occ. eigenvalues --  -10.27324 -10.27304 -10.27253 -10.27192 -10.27159
 Alpha  occ. eigenvalues --  -10.27027 -10.26724 -10.26451 -10.26401 -10.26336
 Alpha  occ. eigenvalues --  -10.26305 -10.26246 -10.26133 -10.25958 -10.25909
 Alpha  occ. eigenvalues --  -10.25692 -10.25683 -10.25521 -10.25171 -10.25029
 Alpha  occ. eigenvalues --  -10.24967 -10.24919 -10.24755 -10.24627 -10.24564
 Alpha  occ. eigenvalues --  -10.24445  -3.16674  -3.16144  -1.91555  -1.91142
 Alpha  occ. eigenvalues --   -1.91026  -1.90984  -1.90614  -1.90452  -1.16992
 Alpha  occ. eigenvalues --   -1.16314  -1.08811  -1.08393  -1.07307  -1.07013
 Alpha  occ. eigenvalues --   -1.06828  -1.06634  -1.04733  -1.04182  -1.03893
 Alpha  occ. eigenvalues --   -1.03390  -1.03363  -1.02788  -1.02544  -1.01850
 Alpha  occ. eigenvalues --   -0.92140  -0.91696  -0.89634  -0.89396  -0.89260
 Alpha  occ. eigenvalues --   -0.88656  -0.88398  -0.87988  -0.87985  -0.87827
 Alpha  occ. eigenvalues --   -0.87564  -0.87383  -0.87377  -0.86940  -0.85180
 Alpha  occ. eigenvalues --   -0.84609  -0.84053  -0.83653  -0.83059  -0.82828
 Alpha  occ. eigenvalues --   -0.82776  -0.82296  -0.81814  -0.81300  -0.80769
 Alpha  occ. eigenvalues --   -0.80164  -0.78909  -0.78421  -0.77368  -0.77138
 Alpha  occ. eigenvalues --   -0.76859  -0.76532  -0.76116  -0.75413  -0.75026
 Alpha  occ. eigenvalues --   -0.74535  -0.72902  -0.72434  -0.71823  -0.71232
 Alpha  occ. eigenvalues --   -0.70003  -0.69534  -0.69055  -0.68462  -0.67793
 Alpha  occ. eigenvalues --   -0.67421  -0.67353  -0.66891  -0.65489  -0.65031
 Alpha  occ. eigenvalues --   -0.64898  -0.64796  -0.64487  -0.64390  -0.64330
 Alpha  occ. eigenvalues --   -0.63957  -0.62541  -0.61986  -0.60550  -0.60136
 Alpha  occ. eigenvalues --   -0.59984  -0.59394  -0.59137  -0.58715  -0.58661
 Alpha  occ. eigenvalues --   -0.58154  -0.57814  -0.57445  -0.57261  -0.57000
 Alpha  occ. eigenvalues --   -0.56464  -0.56242  -0.55954  -0.55657  -0.55579
 Alpha  occ. eigenvalues --   -0.55504  -0.55200  -0.54996  -0.54723  -0.54222
 Alpha  occ. eigenvalues --   -0.54109  -0.53454  -0.53430  -0.53393  -0.53129
 Alpha  occ. eigenvalues --   -0.52994  -0.52883  -0.52852  -0.52623  -0.52534
 Alpha  occ. eigenvalues --   -0.52360  -0.52196  -0.52025  -0.51807  -0.51680
 Alpha  occ. eigenvalues --   -0.51359  -0.51313  -0.50920  -0.50655  -0.50311
 Alpha  occ. eigenvalues --   -0.50144  -0.50042  -0.49707  -0.49679  -0.49615
 Alpha  occ. eigenvalues --   -0.49378  -0.49279  -0.49167  -0.48916  -0.48790
 Alpha  occ. eigenvalues --   -0.48634  -0.48610  -0.48559  -0.48217  -0.48153
 Alpha  occ. eigenvalues --   -0.48097  -0.47850  -0.47434  -0.47288  -0.46943
 Alpha  occ. eigenvalues --   -0.46880  -0.46761  -0.46503  -0.46420  -0.46310
 Alpha  occ. eigenvalues --   -0.46138  -0.46025  -0.46010  -0.45833  -0.45514
 Alpha  occ. eigenvalues --   -0.45319  -0.44957  -0.44755  -0.44651  -0.44295
 Alpha  occ. eigenvalues --   -0.44252  -0.44251  -0.44169  -0.44161  -0.43861
 Alpha  occ. eigenvalues --   -0.43707  -0.43700  -0.43659  -0.43551  -0.43251
 Alpha  occ. eigenvalues --   -0.43181  -0.43039  -0.42983  -0.42773  -0.42626
 Alpha  occ. eigenvalues --   -0.42601  -0.42332  -0.42160  -0.41866  -0.41727
 Alpha  occ. eigenvalues --   -0.41694  -0.41372  -0.41295  -0.41109  -0.41050
 Alpha  occ. eigenvalues --   -0.40954  -0.40693  -0.40631  -0.40507  -0.40481
 Alpha  occ. eigenvalues --   -0.40362  -0.40143  -0.39847  -0.39535  -0.39214
 Alpha  occ. eigenvalues --   -0.38601  -0.38083  -0.37999  -0.37454  -0.37445
 Alpha  occ. eigenvalues --   -0.37315  -0.37008  -0.36994  -0.36844  -0.36473
 Alpha  occ. eigenvalues --   -0.36382  -0.35927  -0.34430  -0.34115  -0.33973
 Alpha  occ. eigenvalues --   -0.33562  -0.33334  -0.32912  -0.31441  -0.31182
 Alpha  occ. eigenvalues --   -0.31124  -0.30688  -0.30205  -0.29689  -0.29569
 Alpha  occ. eigenvalues --   -0.29451  -0.29114  -0.28972  -0.24223  -0.23763
 Alpha  occ. eigenvalues --   -0.21259  -0.20847
 Alpha virt. eigenvalues --   -0.08904  -0.08546  -0.01879  -0.01427  -0.00184
 Alpha virt. eigenvalues --    0.00209   0.02055   0.02442   0.02837   0.03526
 Alpha virt. eigenvalues --    0.04527   0.04750   0.05078   0.05479   0.05880

 Mulliken charges:
               1
     1  Mg   0.838783
     2  C   -0.004102
     3  C   -0.094450
     4  C   -0.045615
     5  C   -0.063207
     6  N   -0.256757
     7  C   -0.052951
     8  C   -0.013938
     9  C   -0.086997
    10  C    0.046086
    11  C    0.104724
    12  C    0.053623
    13  C   -0.071056
    14  H    0.032845
    15  N   -0.433231
    16  C    0.168653
    17  C   -0.176720
    18  C   -0.003432
    19  C    0.148769
    20  C    0.109986
    21  C    0.012560
    22  O   -0.249739
    23  C    0.062123
    24  N   -0.341038
    25  C    0.041428
    26  C   -0.028247
    27  C   -0.024020
    28  C    0.074639
    29  C    0.076090
    30  C    0.034964
    31  C   -0.004355
    32  N   -0.310402
    33  C    0.080149
    34  C   -0.169109
    35  C    0.008088
    36  C    0.082618
    37  C    0.127281
    38  C    0.045503
    39  O   -0.188605
    40  C   -0.005386
    41  C    0.213895
    42  O   -0.260073
    43  O   -0.303763
    44  C    0.158066
    45  H   -0.017477
    46  H   -0.016626
    47  H   -0.040594
    48  H    0.000983
    49  H   -0.004343
    50  H    0.025610
    51  H    0.016993
    52  H    0.016850
    53  H    0.010964
    54  H    0.041779
    55  H    0.019041
    56  H    0.018320
    57  H    0.005544
    58  H    0.027158
    59  H    0.040556
    60  H    0.037318
    61  H    0.036045
    62  H    0.032898
    63  H    0.016380
    64  H    0.009849
    65  H    0.023351
    66  H    0.012589
    67  H    0.005129
    68  H    0.006377
    69  H    0.005742
    70  H    0.007707
    71  H    0.018632
    72  H    0.029390
    73  H    0.048116
    74  H    0.010163
    75  H    0.046095
    76  H    0.035666
    77  H    0.044010
    78  H    0.046387
    79  H    0.051030
    80  Mg   0.837179
    81  C   -0.016826
    82  C   -0.087777
    83  C   -0.046663
    84  C   -0.065542
    85  N   -0.255230
    86  C   -0.047884
    87  C   -0.015402
    88  C   -0.091244
    89  C    0.046819
    90  C    0.117005
    91  C    0.062395
    92  C   -0.077418
    93  H    0.032843
    94  N   -0.423407
    95  C    0.163016
    96  C   -0.175408
    97  C   -0.008859
    98  C    0.152280
    99  C    0.099924
   100  C    0.014625
   101  O   -0.254169
   102  C    0.061515
   103  N   -0.350266
   104  C    0.037710
   105  C   -0.019820
   106  C   -0.034625
   107  C    0.089100
   108  C    0.073545
   109  C    0.034866
   110  C   -0.007523
   111  N   -0.324115
   112  C    0.078767
   113  C   -0.163869
   114  C    0.002427
   115  C    0.096147
   116  C    0.131573
   117  C    0.042000
   118  O   -0.188333
   119  C    0.001162
   120  C    0.210969
   121  O   -0.251913
   122  O   -0.304416
   123  C    0.152473
   124  H   -0.019560
   125  H   -0.016787
   126  H   -0.041379
   127  H    0.002763
   128  H   -0.006726
   129  H    0.029176
   130  H    0.011094
   131  H    0.023164
   132  H    0.012635
   133  H    0.036595
   134  H    0.023127
   135  H    0.018527
   136  H    0.008788
   137  H    0.024030
   138  H    0.039061
   139  H    0.037051
   140  H    0.035445
   141  H    0.034030
   142  H    0.013654
   143  H    0.012483
   144  H    0.024170
   145  H    0.010944
   146  H    0.007738
   147  H    0.005940
   148  H    0.003177
   149  H    0.010593
   150  H    0.017359
   151  H    0.030360
   152  H    0.045667
   153  H    0.007996
   154  H    0.045646
   155  H    0.038096
   156  H    0.043756
   157  H    0.049852
   158  H    0.052589
 Sum of Mulliken charges =  -0.00000

 Dipole moment (field-independent basis, Debye):
    X=             -5.3745    Y=              1.7103    Z=              6.2146  Tot=              8.3923
 Quadrupole moment (field-independent basis, Debye-Ang):
   XX=           -518.3107   YY=           -534.2797   ZZ=           -466.3582
   XY=             -5.4238   XZ=             -1.3277   YZ=            -34.0804

 Normal termination of Gaussian 16 at Thu Aug 19 22:42:55 2021.
