 Gaussian 16, Revision A.03,
 Gaussian 16:  ES64L-G16RevA.03 25-Dec-2016

 -----------------------------------
 #p cam-b3lyp/Def2SVP td=(nstates=5)
 -----------------------------------

 --------------------------------
 TDDFT excited states in gaussian
 --------------------------------
 Symbolic Z-matrix:
 Charge =  0 Multiplicity = 1

                         Standard orientation:
 ---------------------------------------------------------------------
 Center     Atomic      Atomic             Coordinates (Angstroms)
 Number     Number       Type             X           Y           Z
 ---------------------------------------------------------------------
      1         12           0       -4.068573   -1.708569    0.192781
      2          6           0       -5.648702    1.497444    0.000729
      3          6           0       -4.918760   -2.158146   -3.081075
      4          6           0       -3.086602   -4.711786    0.463046
      5          6           0       -4.354722   -1.477834    3.658403
      6          7           0       -5.144833   -0.420043   -1.250137
      7          6           0       -5.646266    0.810618   -1.215376
      8          6           0       -6.101147    1.332067   -2.611280
      9          6           0       -6.347231   -0.067223   -3.334762
     10          6           0       -5.387592   -0.927802   -2.532002
     11          6           0       -7.761913   -0.607284   -3.151704
     12          6           0       -4.983092    2.159800   -3.329989
     13          6           0       -5.448989    2.974091   -4.540453
     14          1           0       -4.835101    4.269273   -4.791439
     15          7           0       -3.572240   -3.024025   -1.195052
     16          6           0       -3.999552   -3.045372   -2.480444
     17          6           0       -3.348633   -4.216044   -3.106953
     18          6           0       -2.658303   -4.982058   -2.032355
     19          6           0       -3.105744   -4.275226   -0.859511
     20          6           0       -3.378613   -4.483463   -4.580499
     21          6           0       -1.749320   -6.170016   -2.057600
     22          8           0       -1.447108   -6.817857   -0.997627
     23          6           0       -1.286446   -6.614935   -3.384565
     24          7           0       -3.959262   -3.026980    1.807549
     25          6           0       -3.439897   -4.251269    1.664858
     26          6           0       -3.205515   -4.903404    2.995168
     27          6           0       -3.448429   -3.769086    4.092467
     28          6           0       -3.884159   -2.619360    3.150904
     29          6           0       -4.090873   -6.116852    3.310918
     30          6           0       -2.298687   -3.504428    5.096692
     31          6           0       -1.111600   -2.909743    4.372626
     32          7           0       -4.691807   -0.192660    1.615680
     33          6           0       -4.752437   -0.320034    3.010949
     34          6           0       -5.335759    0.929126    3.533828
     35          6           0       -5.590925    1.694742    2.397796
     36          6           0       -5.216559    0.959291    1.237083
     37          6           0       -5.617922    1.209189    4.899984
     38          6           0       -6.115577    2.953237    1.893032
     39          8           0       -6.492510    4.005557    2.410755
     40          6           0       -6.287007    2.827648    0.314847
     41          6           0       -5.687602    4.059497   -0.306900
     42          8           0       -4.459408    4.272738   -0.248307
     43          8           0       -6.609564    4.665592   -1.070561
     44          6           0       -6.070776    5.879375   -1.740331
     45          1           0       -5.335046   -2.505935   -4.028539
     46          1           0       -2.650860   -5.702282    0.609619
     47          1           0       -4.396202   -1.300299    4.734607
     48          1           0       -7.023485    1.913109   -2.600941
     49          1           0       -6.047832   -0.041918   -4.382350
     50          1           0       -8.330714   -0.003014   -2.445132
     51          1           0       -7.639285   -1.621983   -2.772440
     52          1           0       -8.266394   -0.705727   -4.113257
     53          1           0       -4.290063    1.476931   -3.821378
     54          1           0       -4.477868    2.820027   -2.624174
     55          1           0       -6.535957    3.053922   -4.572651
     56          1           0       -5.191100    2.421181   -5.443771
     57          1           0       -4.098365   -3.843321   -5.089144
     58          1           0       -3.770459   -5.491705   -4.713216
     59          1           0       -2.388482   -4.411628   -5.030846
     60          1           0       -2.149745   -6.864317   -4.001876
     61          1           0       -0.575475   -7.419670   -3.200792
     62          1           0       -0.784792   -5.783518   -3.880588
     63          1           0       -2.182013   -5.266819    3.077619
     64          1           0       -4.308567   -3.989518    4.725118
     65          1           0       -3.527825   -7.022625    3.537318
     66          1           0       -4.761127   -6.273888    2.466294
     67          1           0       -4.799554   -5.966173    4.124850
     68          1           0       -1.964997   -4.439170    5.545975
     69          1           0       -2.580276   -2.829763    5.905263
     70          1           0       -0.602642   -3.788070    3.977233
     71          1           0       -0.471848   -2.369162    5.070981
     72          1           0       -1.426301   -2.304980    3.521914
     73          1           0       -5.287098    2.232653    5.076181
     74          1           0       -5.108263    0.508760    5.561233
     75          1           0       -6.700416    1.083078    4.912564
     76          1           0       -7.356346    2.750109    0.120881
     77          1           0       -6.719292    6.711653   -1.466517
     78          1           0       -5.980842    5.635027   -2.798920
     79          1           0       -5.107546    6.241647   -1.379379
     80         12           0        4.223382    1.791919   -0.027621
     81          6           0        5.395212   -1.548707   -0.615946
     82          6           0        3.741262    0.889872    3.226377
     83          6           0        2.769285    4.575485    0.424871
     84          6           0        3.720471    2.072179   -3.464808
     85          7           0        4.562445   -0.112031    1.045831
     86          6           0        5.068940   -1.295124    0.732644
     87          6           0        5.310121   -2.233074    1.945757
     88          6           0        4.242453   -1.593230    2.960428
     89          6           0        4.199218   -0.171150    2.405022
     90          6           0        2.854127   -2.198018    2.833427
     91          6           0        6.771905   -2.122774    2.505252
     92          6           0        7.169923   -3.227412    3.486637
     93          1           0        8.548043   -3.710099    3.469729
     94          7           0        3.834230    2.779982    1.648942
     95          6           0        3.694032    2.259692    2.886246
     96          6           0        3.394533    3.397367    3.769515
     97          6           0        3.206595    4.609128    2.926283
     98          6           0        3.243002    4.018084    1.603616
     99          6           0        3.389513    3.285993    5.266508
    100          6           0        3.011869    6.058082    3.256135
    101          8           0        2.630878    6.904552    2.372306
    102          6           0        3.189908    6.439427    4.664807
    103          7           0        3.170744    3.055903   -1.299086
    104          6           0        2.686431    4.231005   -0.860347
    105          6           0        2.211792    5.088484   -2.009198
    106          6           0        2.702630    4.340647   -3.334870
    107          6           0        3.325831    3.079230   -2.697812
    108          6           0        0.703179    5.322133   -2.085940
    109          6           0        3.561149    5.166338   -4.331788
    110          6           0        4.901987    5.490051   -3.713120
    111          7           0        4.666792    0.590184   -1.767530
    112          6           0        4.345714    0.883353   -3.111051
    113          6           0        4.747868   -0.285642   -3.919844
    114          6           0        5.257960   -1.194330   -2.980375
    115          6           0        5.160681   -0.639492   -1.675693
    116          6           0        4.577013   -0.422609   -5.326315
    117          6           0        5.846800   -2.501013   -2.794513
    118          8           0        6.246840   -3.388539   -3.546844
    119          6           0        5.845558   -2.839615   -1.241539
    120          6           0        7.210697   -3.355784   -0.877586
    121          8           0        8.206120   -2.613474   -0.946357
    122          8           0        7.085555   -4.566600   -0.304317
    123          6           0        8.412102   -5.115237    0.084378
    124          1           0        3.340016    0.647823    4.210901
    125          1           0        2.358451    5.584000    0.511965
    126          1           0        3.686881    2.120933   -4.555297
    127          1           0        5.075310   -3.275621    1.767630
    128          1           0        4.617889   -1.592959    3.980426
    129          1           0        2.785903   -2.878209    1.997468
    130          1           0        2.180489   -1.362150    2.697017
    131          1           0        2.561189   -2.670553    3.775357
    132          1           0        6.836733   -1.250283    3.168055
    133          1           0        7.483984   -2.077169    1.704320
    134          1           0        6.467505   -4.069520    3.466376
    135          1           0        7.088190   -2.834610    4.503016
    136          1           0        3.397987    2.238426    5.591969
    137          1           0        2.423796    3.670112    5.612501
    138          1           0        4.188409    3.865045    5.734647
    139          1           0        2.495291    5.874941    5.282320
    140          1           0        3.097726    7.527034    4.687025
    141          1           0        4.198456    6.150252    4.980751
    142          1           0        2.665656    6.071181   -1.971571
    143          1           0        1.855322    3.997793   -3.946715
    144          1           0        0.426571    6.393356   -2.080205
    145          1           0        0.235063    4.804095   -1.259482
    146          1           0        0.209948    4.875594   -2.947645
    147          1           0        3.078506    6.123312   -4.544888
    148          1           0        3.719690    4.667002   -5.281807
    149          1           0        4.687056    6.375696   -3.107708
    150          1           0        5.637266    5.708477   -4.484926
    151          1           0        5.223021    4.694354   -3.030870
    152          1           0        5.495493   -0.844766   -5.711876
    153          1           0        4.350682    0.533205   -5.794261
    154          1           0        3.723503   -1.105293   -5.353532
    155          1           0        5.067115   -3.583846   -1.069132
    156          1           0        8.505023   -6.095303   -0.393668
    157          1           0        8.433442   -5.090088    1.190115
    158          1           0        9.293484   -4.610893   -0.294119
 ---------------------------------------------------------------------

 SCF Done:  E(RCAM-B3LYP) =  -4069.81172610     A.U. after   19 cycles

 Excitation energies and oscillator strengths:

 Excited State   1:      Singlet-A      1.6484 eV  752.17 nm  f=0.0094  <S**2>=0.000
     309 -> 315        0.11166
     310 -> 316        0.12461
     311 -> 313        0.45889
     312 -> 314        0.51220
 This state for optimization and/or second-order correction.
 Total Energy, E(TD-HF/TD-DFT) =  -4069.75114989
 Copying the excited state density for this state as the 1-particle RhoCI density.

 Excited State   2:      Singlet-A      1.7043 eV  727.49 nm  f=0.6891  <S**2>=0.000
     309 -> 315        0.13540
     310 -> 316       -0.12097
     311 -> 313        0.50957
     312 -> 314       -0.45653

 Excited State   3:      Singlet-A      2.1815 eV  568.35 nm  f=0.0155  <S**2>=0.000
     309 -> 313        0.31788
     310 -> 314        0.56170
     311 -> 315       -0.13138
     312 -> 316       -0.23337

 Excited State   4:      Singlet-A      2.1975 eV  564.19 nm  f=0.1585  <S**2>=0.000
     309 -> 313        0.55627
     310 -> 314       -0.31339
     311 -> 315       -0.24582
     312 -> 316        0.13975

 Excited State   5:      Singlet-A      2.3508 eV  527.40 nm  f=0.0000  <S**2>=0.000
     312 -> 313        0.70709

 The electronic state is 1-A.
 Alpha  occ. eigenvalues --  -46.87903 -46.87437 -19.26343 -19.26189 -19.19080
 Alpha  occ. eigenvalues --  -19.18999 -19.18852 -19.18444 -19.18244 -19.17875
 Alpha  occ. eigenvalues --  -14.42555 -14.42276 -14.41573 -14.41126 -14.39500
 Alpha  occ. eigenvalues --  -14.39123 -14.38691 -14.38390 -10.39143 -10.38924
 Alpha  occ. eigenvalues --  -10.35478 -10.35119 -10.34465 -10.34054 -10.31730
 Alpha  occ. eigenvalues --  -10.31616 -10.31512 -10.31117 -10.30998 -10.30790
 Alpha  occ. eigenvalues --  -10.30676 -10.30616 -10.30335 -10.30177 -10.30170
 Alpha  occ. eigenvalues --  -10.30058 -10.29894 -10.29725 -10.29655 -10.29351
 Alpha  occ. eigenvalues --  -10.29201 -10.29197 -10.28845 -10.28654 -10.28515
 Alpha  occ. eigenvalues --  -10.28507 -10.28453 -10.28210 -10.28181 -10.27940
 Alpha  occ. eigenvalues --  -10.27884 -10.27830 -10.27793 -10.27713 -10.27666
 Alpha  occ. eigenvalues --  -10.27639 -10.27514 -10.27503 -10.27457 -10.27273
 Alpha  occ. eigenvalues --  -10.27261 -10.27255 -10.27248 -10.27236 -10.27060
 Alpha  occ. eigenvalues --  -10.26858 -10.26817 -10.26520 -10.26507 -10.26354
 Alpha  occ. eigenvalues --  -10.26316 -10.26153 -10.26144 -10.25972 -10.25959
 Alpha  occ. eigenvalues --  -10.25793 -10.25769 -10.25725 -10.25596 -10.25120
 Alpha  occ. eigenvalues --  -10.24923 -10.24903 -10.24902 -10.24671 -10.24563
 Alpha  occ. eigenvalues --  -10.24433  -3.16646  -3.16187  -1.91528  -1.91115
 Alpha  occ. eigenvalues --   -1.91070  -1.90956  -1.90658  -1.90495  -1.16692
 Alpha  occ. eigenvalues --   -1.16483  -1.08700  -1.08490  -1.07251  -1.06783
 Alpha  occ. eigenvalues --   -1.06702  -1.06689  -1.04683  -1.04277  -1.03878
 Alpha  occ. eigenvalues --   -1.03437  -1.03339  -1.02811  -1.02520  -1.01887
 Alpha  occ. eigenvalues --   -0.92068  -0.91778  -0.89704  -0.89288  -0.89273
 Alpha  occ. eigenvalues --   -0.88949  -0.88462  -0.87977  -0.87965  -0.87782
 Alpha  occ. eigenvalues --   -0.87626  -0.87467  -0.87330  -0.86890  -0.85084
 Alpha  occ. eigenvalues --   -0.84792  -0.84142  -0.83620  -0.83036  -0.82728
 Alpha  occ. eigenvalues --   -0.82680  -0.82436  -0.81677  -0.81413  -0.80686
 Alpha  occ. eigenvalues --   -0.80238  -0.78875  -0.78427  -0.77355  -0.77053
 Alpha  occ. eigenvalues --   -0.76941  -0.76683  -0.76018  -0.75640  -0.75048
 Alpha  occ. eigenvalues --   -0.74512  -0.72891  -0.72494  -0.71783  -0.71332
 Alpha  occ. eigenvalues --   -0.70151  -0.69527  -0.68970  -0.68621  -0.67735
 Alpha  occ. eigenvalues --   -0.67382  -0.67304  -0.66995  -0.65395  -0.65072
 Alpha  occ. eigenvalues --   -0.64968  -0.64744  -0.64561  -0.64449  -0.64428
 Alpha  occ. eigenvalues --   -0.63971  -0.62391  -0.62089  -0.60530  -0.60100
 Alpha  occ. eigenvalues --   -0.59901  -0.59594  -0.59104  -0.58770  -0.58613
 Alpha  occ. eigenvalues --   -0.58210  -0.57670  -0.57427  -0.57373  -0.57005
 Alpha  occ. eigenvalues --   -0.56401  -0.56058  -0.56012  -0.55700  -0.55603
 Alpha  occ. eigenvalues --   -0.55493  -0.55243  -0.55022  -0.54663  -0.54267
 Alpha  occ. eigenvalues --   -0.53993  -0.53710  -0.53410  -0.53288  -0.53033
 Alpha  occ. eigenvalues --   -0.53016  -0.52931  -0.52819  -0.52702  -0.52672
 Alpha  occ. eigenvalues --   -0.52433  -0.52204  -0.52028  -0.51756  -0.51695
 Alpha  occ. eigenvalues --   -0.51455  -0.51320  -0.51010  -0.50615  -0.50234
 Alpha  occ. eigenvalues --   -0.50211  -0.49983  -0.49755  -0.49595  -0.49588
 Alpha  occ. eigenvalues --   -0.49297  -0.49267  -0.49189  -0.49002  -0.48905
 Alpha  occ. eigenvalues --   -0.48699  -0.48588  -0.48498  -0.48365  -0.48128
 Alpha  occ. eigenvalues --   -0.48083  -0.47797  -0.47388  -0.47376  -0.46938
 Alpha  occ. eigenvalues --   -0.46876  -0.46650  -0.46501  -0.46477  -0.46342
 Alpha  occ. eigenvalues --   -0.46283  -0.46057  -0.45925  -0.45862  -0.45641
 Alpha  occ. eigenvalues --   -0.45360  -0.44891  -0.44692  -0.44602  -0.44321
 Alpha  occ. eigenvalues --   -0.44298  -0.44264  -0.44179  -0.44085  -0.43921
 Alpha  occ. eigenvalues --   -0.43855  -0.43724  -0.43596  -0.43503  -0.43367
 Alpha  occ. eigenvalues --   -0.43166  -0.43146  -0.42892  -0.42755  -0.42747
 Alpha  occ. eigenvalues --   -0.42689  -0.42317  -0.42181  -0.41810  -0.41759
 Alpha  occ. eigenvalues --   -0.41644  -0.41460  -0.41255  -0.41246  -0.41019
 Alpha  occ. eigenvalues --   -0.40874  -0.40755  -0.40731  -0.40513  -0.40462
 Alpha  occ. eigenvalues --   -0.40332  -0.40247  -0.40023  -0.39702  -0.39205
 Alpha  occ. eigenvalues --   -0.38641  -0.38091  -0.37858  -0.37481  -0.37456
 Alpha  occ. eigenvalues --   -0.37362  -0.37040  -0.36992  -0.36814  -0.36585
 Alpha  occ. eigenvalues --   -0.36309  -0.35984  -0.34395  -0.34036  -0.33838
 Alpha  occ. eigenvalues --   -0.33688  -0.33292  -0.32957  -0.31388  -0.31138
 Alpha  occ. eigenvalues --   -0.31002  -0.30742  -0.30105  -0.29783  -0.29530
 Alpha  occ. eigenvalues --   -0.29414  -0.29106  -0.29010  -0.24189  -0.23813
 Alpha  occ. eigenvalues --   -0.21236  -0.20895
 Alpha virt. eigenvalues --   -0.08869  -0.08571  -0.01859  -0.01447  -0.00124
 Alpha virt. eigenvalues --    0.00204   0.02104   0.02394   0.02828   0.03494
 Alpha virt. eigenvalues --    0.04604   0.04935   0.05030   0.05335   0.06057

 Mulliken charges:
               1
     1  Mg   0.838711
     2  C   -0.002687
     3  C   -0.093790
     4  C   -0.046253
     5  C   -0.064583
     6  N   -0.256641
     7  C   -0.052687
     8  C   -0.013919
     9  C   -0.087072
    10  C    0.046297
    11  C    0.104726
    12  C    0.053441
    13  C   -0.071645
    14  H    0.035266
    15  N   -0.433289
    16  C    0.168641
    17  C   -0.176550
    18  C   -0.003429
    19  C    0.148769
    20  C    0.110052
    21  C    0.012659
    22  O   -0.249940
    23  C    0.062171
    24  N   -0.340879
    25  C    0.041154
    26  C   -0.028422
    27  C   -0.023920
    28  C    0.074100
    29  C    0.076085
    30  C    0.036528
    31  C   -0.008328
    32  N   -0.310420
    33  C    0.080039
    34  C   -0.170271
    35  C    0.008639
    36  C    0.082933
    37  C    0.127386
    38  C    0.046385
    39  O   -0.188052
    40  C   -0.005477
    41  C    0.213042
    42  O   -0.256809
    43  O   -0.304850
    44  C    0.157372
    45  H   -0.017122
    46  H   -0.016949
    47  H   -0.042425
    48  H    0.001188
    49  H   -0.003886
    50  H    0.025612
    51  H    0.016543
    52  H    0.016980
    53  H    0.010966
    54  H    0.043800
    55  H    0.018371
    56  H    0.018005
    57  H    0.005834
    58  H    0.027314
    59  H    0.040821
    60  H    0.037180
    61  H    0.037108
    62  H    0.033153
    63  H    0.015723
    64  H    0.009836
    65  H    0.023219
    66  H    0.013267
    67  H    0.004853
    68  H    0.005931
    69  H    0.004147
    70  H    0.010080
    71  H    0.014902
    72  H    0.031125
    73  H    0.047384
    74  H    0.008000
    75  H    0.046251
    76  H    0.035296
    77  H    0.043372
    78  H    0.046013
    79  H    0.054236
    80  Mg   0.837651
    81  C   -0.017041
    82  C   -0.087828
    83  C   -0.042944
    84  C   -0.065344
    85  N   -0.254704
    86  C   -0.050087
    87  C   -0.015104
    88  C   -0.091569
    89  C    0.046083
    90  C    0.113119
    91  C    0.062655
    92  C   -0.077608
    93  H    0.034199
    94  N   -0.424015
    95  C    0.163748
    96  C   -0.173651
    97  C   -0.006115
    98  C    0.152251
    99  C    0.099000
   100  C    0.016735
   101  O   -0.251765
   102  C    0.061074
   103  N   -0.350033
   104  C    0.038542
   105  C   -0.020531
   106  C   -0.033835
   107  C    0.088679
   108  C    0.072024
   109  C    0.034860
   110  C   -0.007459
   111  N   -0.323786
   112  C    0.078081
   113  C   -0.164362
   114  C    0.001651
   115  C    0.095874
   116  C    0.131782
   117  C    0.041409
   118  O   -0.189451
   119  C    0.001078
   120  C    0.210966
   121  O   -0.251405
   122  O   -0.305276
   123  C    0.152296
   124  H   -0.020222
   125  H   -0.013702
   126  H   -0.041936
   127  H   -0.000160
   128  H   -0.005317
   129  H    0.024122
   130  H    0.015445
   131  H    0.016425
   132  H    0.013646
   133  H    0.037463
   134  H    0.020930
   135  H    0.019115
   136  H    0.007891
   137  H    0.027472
   138  H    0.039424
   139  H    0.039141
   140  H    0.036508
   141  H    0.032863
   142  H    0.013614
   143  H    0.011116
   144  H    0.024272
   145  H    0.021375
   146  H    0.004281
   147  H    0.005715
   148  H    0.002289
   149  H    0.011069
   150  H    0.017000
   151  H    0.030212
   152  H    0.045407
   153  H    0.007894
   154  H    0.044391
   155  H    0.035619
   156  H    0.043608
   157  H    0.049446
   158  H    0.053131
 Sum of Mulliken charges =  -0.00000

 Dipole moment (field-independent basis, Debye):
    X=             -3.6213    Y=             -2.2493    Z=              0.3156  Tot=              4.2747
 Quadrupole moment (field-independent basis, Debye-Ang):
   XX=           -530.0093   YY=           -540.2149   ZZ=           -450.0793
   XY=             21.3677   XZ=             56.4446   YZ=            -32.9744

 Normal termination of Gaussian 16 at Thu Aug 19 18:56:41 2021.
