 Gaussian 16, Revision A.03,
 Gaussian 16:  ES64L-G16RevA.03 25-Dec-2016

 -----------------------------------
 #p cam-b3lyp/Def2SVP td=(nstates=5)
 -----------------------------------

 --------------------------------
 TDDFT excited states in gaussian
 --------------------------------
 Symbolic Z-matrix:
 Charge =  0 Multiplicity = 1

                         Standard orientation:
 ---------------------------------------------------------------------
 Center     Atomic      Atomic             Coordinates (Angstroms)
 Number     Number       Type             X           Y           Z
 ---------------------------------------------------------------------
      1         12           0       -4.442906   -0.605817    0.091193
      2          6           0       -4.505914    2.945677    0.532934
      3          6           0       -5.307503   -0.066647   -3.165313
      4          6           0       -4.837357   -3.738034   -0.209211
      5          6           0       -4.705114   -0.893044    3.554488
      6          7           0       -4.827574    1.249753   -1.053157
      7          6           0       -4.759808    2.549396   -0.782036
      8          6           0       -4.909253    3.452180   -2.042996
      9          6           0       -5.704936    2.440546   -2.983998
     10          6           0       -5.225395    1.127921   -2.389878
     11          6           0       -7.219753    2.526202   -2.827496
     12          6           0       -3.525065    3.842395   -2.662261
     13          6           0       -3.565557    4.977299   -3.689737
     14          1           0       -2.452782    5.913353   -3.743444
     15          7           0       -4.511765   -1.739231   -1.525433
     16          6           0       -4.869959   -1.350096   -2.772652
     17          6           0       -4.759696   -2.554900   -3.622929
     18          6           0       -4.491646   -3.717731   -2.731825
     19          6           0       -4.630683   -3.107888   -1.434081
     20          6           0       -4.857325   -2.519151   -5.117232
     21          6           0       -4.172761   -5.153395   -3.006259
     22          8           0       -4.205320   -6.044529   -2.090075
     23          6           0       -3.904048   -5.509701   -4.411208
     24          7           0       -4.950952   -2.109583    1.447000
     25          6           0       -4.996632   -3.392043    1.069917
     26          6           0       -5.100292   -4.306157    2.254648
     27          6           0       -4.870535   -3.389459    3.541749
     28          6           0       -4.749158   -2.016758    2.835187
     29          6           0       -6.425911   -5.066262    2.399517
     30          6           0       -3.747083   -3.817990    4.518803
     31          6           0       -2.399222   -3.663143    3.850678
     32          7           0       -4.404795    0.753203    1.783133
     33          6           0       -4.554501    0.418717    3.136788
     34          6           0       -4.567242    1.683043    3.895329
     35          6           0       -4.439882    2.672427    2.922321
     36          6           0       -4.379476    2.065893    1.635169
     37          6           0       -4.743569    1.809494    5.301513
     38          6           0       -4.365548    4.102099    2.668607
     39          8           0       -4.274952    5.105135    3.377976
     40          6           0       -4.527901    4.342221    1.102782
     41          6           0       -3.444292    5.293716    0.674113
     42          8           0       -2.244055    4.953659    0.708144
     43          8           0       -3.998932    6.357310    0.072712
     44          6           0       -2.976445    7.326873   -0.403336
     45          1           0       -5.804198   -0.032114   -4.136932
     46          1           0       -4.867891   -4.828536   -0.257283
     47          1           0       -4.698707   -0.908159    4.645901
     48          1           0       -5.497481    4.356699   -1.887253
     49          1           0       -5.392660    2.521847   -4.024957
     50          1           0       -7.498538    3.178704   -2.000186
     51          1           0       -7.550702    1.505380   -2.635429
     52          1           0       -7.689974    2.822130   -3.765630
     53          1           0       -3.173525    3.029439   -3.297542
     54          1           0       -2.808171    4.090723   -1.878857
     55          1           0       -4.514331    5.513465   -3.654194
     56          1           0       -3.540566    4.536700   -4.686455
     57          1           0       -5.221977   -1.555907   -5.471823
     58          1           0       -5.636130   -3.226140   -5.402432
     59          1           0       -3.917688   -2.794188   -5.596573
     60          1           0       -4.773111   -5.257154   -5.019072
     61          1           0       -3.607738   -6.558033   -4.404177
     62          1           0       -3.082590   -4.895033   -4.780451
     63          1           0       -4.330825   -5.076436    2.222752
     64          1           0       -5.760959   -3.333710    4.168416
     65          1           0       -6.307603   -6.149406    2.438330
     66          1           0       -7.074435   -4.773022    1.574460
     67          1           0       -7.027003   -4.776777    3.261087
     68          1           0       -3.855135   -4.869362    4.783166
     69          1           0       -3.739056   -3.242390    5.444476
     70          1           0       -2.300043   -4.588995    3.285174
     71          1           0       -1.611174   -3.576709    4.599490
     72          1           0       -2.402367   -2.842048    3.133545
     73          1           0       -4.014791    2.548116    5.635114
     74          1           0       -4.599089    0.854479    5.806167
     75          1           0       -5.777044    2.152804    5.345367
     76          1           0       -5.522815    4.759691    0.951169
     77          1           0       -3.217911    8.292308    0.041481
     78          1           0       -2.967888    7.259004   -1.491328
     79          1           0       -1.961532    7.177783   -0.033116
     80         12           0        4.553546   -0.953836    0.056961
     81          6           0        4.486964    2.634259    0.044625
     82          6           0        3.670644   -0.832709   -3.235520
     83          6           0        4.163891   -4.101422    0.148130
     84          6           0        4.302130   -0.808167    3.529891
     85          7           0        4.159339    0.741499   -1.307843
     86          6           0        4.224899    2.061295   -1.217303
     87          6           0        4.076225    2.806997   -2.570586
     88          6           0        3.269521    1.678484   -3.379639
     89          6           0        3.751695    0.442977   -2.622202
     90          6           0        1.762327    1.781557   -3.215143
     91          6           0        5.462056    3.113396   -3.239624
     92          6           0        5.409025    4.105932   -4.403161
     93          1           0        6.526818    5.028301   -4.582701
     94          7           0        4.481258   -2.282149   -1.415774
     95          6           0        4.123107   -2.057462   -2.697382
     96          6           0        4.215118   -3.359928   -3.375091
     97          6           0        4.497610   -4.402453   -2.351352
     98          6           0        4.368423   -3.621650   -1.137376
     99          6           0        4.118995   -3.510230   -4.865587
    100          6           0        4.816947   -5.863559   -2.448277
    101          8           0        4.791135   -6.628105   -1.419865
    102          6           0        5.069358   -6.391384   -3.797049
    103          7           0        4.061222   -2.269819    1.589324
    104          6           0        4.009193   -3.595691    1.371912
    105          6           0        3.908965   -4.358056    2.671584
    106          6           0        4.149120   -3.275725    3.824172
    107          6           0        4.263037   -2.003105    2.956501
    108          6           0        2.584320   -5.079435    2.919219
    109          6           0        5.278380   -3.576145    4.847492
    110          6           0        6.624645   -3.518442    4.162194
    111          7           0        4.603133    0.601177    1.556126
    112          6           0        4.453478    0.445676    2.951657
    113          6           0        4.443730    1.799842    3.542057
    114          6           0        4.566246    2.656879    2.437982
    115          6           0        4.626354    1.891632    1.242045
    116          6           0        4.284443    2.103954    4.923452
    117          6           0        4.647707    4.035315    2.011406
    118          8           0        4.733632    5.119207    2.587189
    119          6           0        4.472749    4.086850    0.432440
    120          6           0        5.553341    4.971717   -0.125992
    121          8           0        6.748792    4.639454   -0.041684
    122          8           0        4.987937    5.951157   -0.854969
    123          6           0        6.020107    6.848608   -1.438942
    124          1           0        3.175749   -0.912330   -4.203831
    125          1           0        4.133799   -5.189053    0.246258
    126          1           0        4.325884   -0.681564    4.614366
    127          1           0        3.493980    3.719512   -2.524853
    128          1           0        3.585074    1.635880   -4.418859
    129          1           0        1.486885    2.527030   -2.484021
    130          1           0        1.433281    0.800704   -2.897819
    131          1           0        1.288572    1.959272   -4.184844
    132          1           0        5.808384    2.218175   -3.771958
    133          1           0        6.171559    3.450489   -2.509152
    134          1           0        4.455189    4.646051   -4.441058
    135          1           0        5.436323    3.544163   -5.340008
    136          1           0        3.744863   -2.594084   -5.338975
    137          1           0        3.340319   -4.255105   -5.062297
    138          1           0        5.054329   -3.849378   -5.315919
    139          1           0        4.198907   -6.212237   -4.423699
    140          1           0        5.367338   -7.431695   -3.652715
    141          1           0        5.898669   -5.830719   -4.242605
    142          1           0        4.679638   -5.116400    2.735519
    143          1           0        3.257118   -3.147302    4.454784
    144          1           0        2.704704   -6.165220    3.094293
    145          1           0        1.934750   -4.900480    2.072715
    146          1           0        1.995239   -4.691578    3.748528
    147          1           0        5.173360   -4.590404    5.240455
    148          1           0        5.282846   -2.900715    5.696469
    149          1           0        6.716154   -4.512309    3.713921
    150          1           0        7.415985   -3.337954    4.886927
    151          1           0        6.619386   -2.787556    3.345227
    152          1           0        5.006887    2.874401    5.157957
    153          1           0        4.427433    1.221676    5.543852
    154          1           0        3.246064    2.446022    4.929374
    155          1           0        3.475808    4.478049    0.225899
    156          1           0        5.776715    7.866383   -1.118672
    157          1           0        6.010538    6.646942   -2.526592
    158          1           0        7.035521    6.749059   -1.073597
 ---------------------------------------------------------------------

 SCF Done:  E(RCAM-B3LYP) =  -4069.81121064     A.U. after   19 cycles

 Excitation energies and oscillator strengths:

 Excited State   1:      Singlet-A      1.6476 eV  752.50 nm  f=0.0048  <S**2>=0.000
     309 -> 315       -0.11455
     310 -> 316        0.12118
     311 -> 313       -0.47033
     312 -> 314        0.50169
 This state for optimization and/or second-order correction.
 Total Energy, E(TD-HF/TD-DFT) =  -4069.75066130
 Copying the excited state density for this state as the 1-particle RhoCI density.

 Excited State   2:      Singlet-A      1.7044 eV  727.45 nm  f=0.6928  <S**2>=0.000
     309 -> 315        0.13286
     310 -> 316        0.12368
     311 -> 313        0.49905
     312 -> 314        0.46793

 Excited State   3:      Singlet-A      2.1806 eV  568.57 nm  f=0.0127  <S**2>=0.000
     309 -> 313       -0.32930
     310 -> 314        0.55454
     311 -> 315        0.13635
     312 -> 316       -0.23121

 Excited State   4:      Singlet-A      2.1959 eV  564.63 nm  f=0.1619  <S**2>=0.000
     309 -> 313        0.54976
     310 -> 314        0.32469
     311 -> 315       -0.24257
     312 -> 316       -0.14461

 Excited State   5:      Singlet-A      2.3482 eV  528.00 nm  f=0.0000  <S**2>=0.000
     312 -> 313        0.70709

 The electronic state is 1-A.
 Alpha  occ. eigenvalues --  -46.87897 -46.87433 -19.26325 -19.26124 -19.19068
 Alpha  occ. eigenvalues --  -19.18927 -19.18902 -19.18518 -19.18225 -19.17748
 Alpha  occ. eigenvalues --  -14.42558 -14.42275 -14.41548 -14.41136 -14.39503
 Alpha  occ. eigenvalues --  -14.39128 -14.38680 -14.38356 -10.39131 -10.38847
 Alpha  occ. eigenvalues --  -10.35538 -10.35201 -10.34446 -10.33920 -10.31699
 Alpha  occ. eigenvalues --  -10.31580 -10.31511 -10.31073 -10.31023 -10.30808
 Alpha  occ. eigenvalues --  -10.30669 -10.30596 -10.30311 -10.30155 -10.30117
 Alpha  occ. eigenvalues --  -10.30006 -10.29948 -10.29725 -10.29658 -10.29356
 Alpha  occ. eigenvalues --  -10.29225 -10.29165 -10.28893 -10.28752 -10.28547
 Alpha  occ. eigenvalues --  -10.28514 -10.28461 -10.28250 -10.28163 -10.27943
 Alpha  occ. eigenvalues --  -10.27884 -10.27837 -10.27757 -10.27684 -10.27633
 Alpha  occ. eigenvalues --  -10.27599 -10.27531 -10.27501 -10.27462 -10.27350
 Alpha  occ. eigenvalues --  -10.27343 -10.27244 -10.27241 -10.27226 -10.27192
 Alpha  occ. eigenvalues --  -10.26907 -10.26726 -10.26536 -10.26529 -10.26347
 Alpha  occ. eigenvalues --  -10.26301 -10.26272 -10.26120 -10.25996 -10.25908
 Alpha  occ. eigenvalues --  -10.25800 -10.25719 -10.25545 -10.25504 -10.25221
 Alpha  occ. eigenvalues --  -10.24918 -10.24878 -10.24830 -10.24613 -10.24590
 Alpha  occ. eigenvalues --  -10.24459  -3.16639  -3.16183  -1.91521  -1.91108
 Alpha  occ. eigenvalues --   -1.91065  -1.90950  -1.90654  -1.90491  -1.16675
 Alpha  occ. eigenvalues --   -1.16415  -1.08678  -1.08347  -1.07300  -1.06772
 Alpha  occ. eigenvalues --   -1.06710  -1.06689  -1.04689  -1.04268  -1.03860
 Alpha  occ. eigenvalues --   -1.03437  -1.03330  -1.02811  -1.02508  -1.01878
 Alpha  occ. eigenvalues --   -0.92061  -0.91729  -0.89619  -0.89325  -0.89289
 Alpha  occ. eigenvalues --   -0.88951  -0.88383  -0.88026  -0.87956  -0.87788
 Alpha  occ. eigenvalues --   -0.87533  -0.87471  -0.87385  -0.86930  -0.85113
 Alpha  occ. eigenvalues --   -0.84802  -0.84032  -0.83685  -0.83077  -0.82763
 Alpha  occ. eigenvalues --   -0.82758  -0.82456  -0.81661  -0.81372  -0.80689
 Alpha  occ. eigenvalues --   -0.80225  -0.78903  -0.78424  -0.77333  -0.77043
 Alpha  occ. eigenvalues --   -0.76946  -0.76699  -0.76021  -0.75621  -0.74987
 Alpha  occ. eigenvalues --   -0.74603  -0.72872  -0.72469  -0.71768  -0.71362
 Alpha  occ. eigenvalues --   -0.70014  -0.69584  -0.68995  -0.68628  -0.67736
 Alpha  occ. eigenvalues --   -0.67381  -0.67364  -0.67021  -0.65409  -0.65062
 Alpha  occ. eigenvalues --   -0.64945  -0.64720  -0.64552  -0.64443  -0.64367
 Alpha  occ. eigenvalues --   -0.64005  -0.62363  -0.62058  -0.60545  -0.60140
 Alpha  occ. eigenvalues --   -0.59926  -0.59582  -0.59082  -0.58769  -0.58595
 Alpha  occ. eigenvalues --   -0.58197  -0.57655  -0.57397  -0.57281  -0.57017
 Alpha  occ. eigenvalues --   -0.56406  -0.56054  -0.55983  -0.55678  -0.55619
 Alpha  occ. eigenvalues --   -0.55422  -0.55245  -0.55040  -0.54601  -0.54285
 Alpha  occ. eigenvalues --   -0.54030  -0.53717  -0.53398  -0.53337  -0.53019
 Alpha  occ. eigenvalues --   -0.53004  -0.52937  -0.52878  -0.52696  -0.52546
 Alpha  occ. eigenvalues --   -0.52494  -0.52230  -0.51990  -0.51745  -0.51599
 Alpha  occ. eigenvalues --   -0.51467  -0.51286  -0.50971  -0.50700  -0.50316
 Alpha  occ. eigenvalues --   -0.50142  -0.50031  -0.49789  -0.49678  -0.49628
 Alpha  occ. eigenvalues --   -0.49308  -0.49290  -0.49207  -0.48978  -0.48872
 Alpha  occ. eigenvalues --   -0.48678  -0.48553  -0.48524  -0.48335  -0.48176
 Alpha  occ. eigenvalues --   -0.48131  -0.47802  -0.47400  -0.47395  -0.46930
 Alpha  occ. eigenvalues --   -0.46903  -0.46685  -0.46506  -0.46454  -0.46366
 Alpha  occ. eigenvalues --   -0.46244  -0.46065  -0.45898  -0.45856  -0.45581
 Alpha  occ. eigenvalues --   -0.45294  -0.45006  -0.44660  -0.44627  -0.44304
 Alpha  occ. eigenvalues --   -0.44264  -0.44248  -0.44211  -0.44105  -0.43913
 Alpha  occ. eigenvalues --   -0.43884  -0.43721  -0.43569  -0.43499  -0.43341
 Alpha  occ. eigenvalues --   -0.43174  -0.43120  -0.42785  -0.42723  -0.42711
 Alpha  occ. eigenvalues --   -0.42664  -0.42365  -0.42119  -0.41795  -0.41775
 Alpha  occ. eigenvalues --   -0.41664  -0.41421  -0.41268  -0.41241  -0.40997
 Alpha  occ. eigenvalues --   -0.40935  -0.40775  -0.40672  -0.40541  -0.40515
 Alpha  occ. eigenvalues --   -0.40402  -0.40297  -0.40058  -0.39555  -0.39256
 Alpha  occ. eigenvalues --   -0.38575  -0.38164  -0.37901  -0.37482  -0.37422
 Alpha  occ. eigenvalues --   -0.37388  -0.37066  -0.36991  -0.36778  -0.36555
 Alpha  occ. eigenvalues --   -0.36277  -0.36011  -0.34383  -0.34024  -0.33827
 Alpha  occ. eigenvalues --   -0.33626  -0.33280  -0.32948  -0.31431  -0.31132
 Alpha  occ. eigenvalues --   -0.31077  -0.30743  -0.30083  -0.29649  -0.29546
 Alpha  occ. eigenvalues --   -0.29407  -0.29105  -0.28946  -0.24179  -0.23800
 Alpha  occ. eigenvalues --   -0.21228  -0.20890
 Alpha virt. eigenvalues --   -0.08871  -0.08558  -0.01849  -0.01464  -0.00157
 Alpha virt. eigenvalues --    0.00188   0.02123   0.02469   0.02846   0.03496
 Alpha virt. eigenvalues --    0.04593   0.04939   0.05041   0.05410   0.06007

 Mulliken charges:
               1
     1  Mg   0.838658
     2  C   -0.003146
     3  C   -0.095154
     4  C   -0.045369
     5  C   -0.063933
     6  N   -0.256673
     7  C   -0.052843
     8  C   -0.013746
     9  C   -0.086847
    10  C    0.045954
    11  C    0.104799
    12  C    0.053685
    13  C   -0.071441
    14  H    0.035128
    15  N   -0.433151
    16  C    0.168145
    17  C   -0.177899
    18  C   -0.003965
    19  C    0.148865
    20  C    0.110341
    21  C    0.012730
    22  O   -0.248696
    23  C    0.062644
    24  N   -0.341064
    25  C    0.041080
    26  C   -0.028375
    27  C   -0.023987
    28  C    0.074872
    29  C    0.076042
    30  C    0.035101
    31  C   -0.005576
    32  N   -0.310622
    33  C    0.080664
    34  C   -0.169506
    35  C    0.008810
    36  C    0.083222
    37  C    0.127193
    38  C    0.046669
    39  O   -0.187069
    40  C   -0.005593
    41  C    0.213396
    42  O   -0.257137
    43  O   -0.304951
    44  C    0.156960
    45  H   -0.017829
    46  H   -0.016400
    47  H   -0.041387
    48  H    0.001450
    49  H   -0.004825
    50  H    0.025794
    51  H    0.016684
    52  H    0.016625
    53  H    0.009586
    54  H    0.043666
    55  H    0.018885
    56  H    0.017037
    57  H    0.005453
    58  H    0.027158
    59  H    0.037838
    60  H    0.037252
    61  H    0.036233
    62  H    0.029962
    63  H    0.017023
    64  H    0.009743
    65  H    0.023581
    66  H    0.012605
    67  H    0.004850
    68  H    0.006647
    69  H    0.004573
    70  H    0.009956
    71  H    0.016618
    72  H    0.029807
    73  H    0.048270
    74  H    0.008924
    75  H    0.046318
    76  H    0.035310
    77  H    0.043897
    78  H    0.045384
    79  H    0.055184
    80  Mg   0.837801
    81  C   -0.015649
    82  C   -0.088152
    83  C   -0.045285
    84  C   -0.064851
    85  N   -0.254493
    86  C   -0.048492
    87  C   -0.015105
    88  C   -0.090914
    89  C    0.045921
    90  C    0.113356
    91  C    0.062677
    92  C   -0.077235
    93  H    0.034212
    94  N   -0.423370
    95  C    0.162703
    96  C   -0.175556
    97  C   -0.007914
    98  C    0.151654
    99  C    0.099874
   100  C    0.015432
   101  O   -0.253335
   102  C    0.061414
   103  N   -0.349975
   104  C    0.037179
   105  C   -0.019793
   106  C   -0.034685
   107  C    0.089286
   108  C    0.073502
   109  C    0.034794
   110  C   -0.007526
   111  N   -0.324662
   112  C    0.079301
   113  C   -0.161979
   114  C    0.004248
   115  C    0.096098
   116  C    0.130689
   117  C    0.044932
   118  O   -0.186649
   119  C   -0.000389
   120  C    0.210675
   121  O   -0.251807
   122  O   -0.305056
   123  C    0.152296
   124  H   -0.021640
   125  H   -0.015788
   126  H   -0.040702
   127  H    0.000287
   128  H   -0.005899
   129  H    0.028442
   130  H    0.013877
   131  H    0.012648
   132  H    0.013504
   133  H    0.037725
   134  H    0.020211
   135  H    0.018741
   136  H    0.007397
   137  H    0.024497
   138  H    0.039108
   139  H    0.037578
   140  H    0.035991
   141  H    0.033418
   142  H    0.013970
   143  H    0.011610
   144  H    0.024543
   145  H    0.013129
   146  H    0.004574
   147  H    0.005618
   148  H    0.003432
   149  H    0.010758
   150  H    0.017570
   151  H    0.030423
   152  H    0.045627
   153  H    0.007342
   154  H    0.050749
   155  H    0.040626
   156  H    0.043537
   157  H    0.048620
   158  H    0.053209
 Sum of Mulliken charges =  -0.00000

 Dipole moment (field-independent basis, Debye):
    X=             -4.2590    Y=             -1.8825    Z=             -7.2470  Tot=              8.6140
 Quadrupole moment (field-independent basis, Debye-Ang):
   XX=           -518.7548   YY=           -550.3734   ZZ=           -449.0172
   XY=             -7.8752   XZ=             -0.4935   YZ=            -47.5742

 Normal termination of Gaussian 16 at Thu Aug 19 22:08:19 2021.
