 Gaussian 16, Revision A.03,
 Gaussian 16:  ES64L-G16RevA.03 25-Dec-2016

 -----------------------------------
 #p cam-b3lyp/Def2SVP td=(nstates=5)
 -----------------------------------

 --------------------------------
 TDDFT excited states in gaussian
 --------------------------------
 Symbolic Z-matrix:
 Charge =  0 Multiplicity = 1

                         Standard orientation:
 ---------------------------------------------------------------------
 Center     Atomic      Atomic             Coordinates (Angstroms)
 Number     Number       Type             X           Y           Z
 ---------------------------------------------------------------------
      1         12           0        4.189103    1.380901    0.406952
      2          6           0        5.456191   -1.666360   -0.979013
      3          6           0        4.679251    2.803438   -2.655598
      4          6           0        3.505755    4.185102    1.720768
      5          6           0        4.864515    0.055579    3.558618
      6          7           0        4.972442    0.568060   -1.497337
      7          6           0        5.367738   -0.631317   -1.912558
      8          6           0        5.607339   -0.704764   -3.450274
      9          6           0        5.884012    0.839204   -3.735957
     10          6           0        5.103468    1.443417   -2.582008
     11          6           0        7.351265    1.231468   -3.595243
     12          6           0        4.345328   -1.213557   -4.224993
     13          6           0        4.592918   -1.623600   -5.679612
     14          1           0        3.845420   -2.745166   -6.227960
     15          7           0        3.645220    3.087597   -0.426253
     16          6           0        3.916944    3.494955   -1.689389
     17          6           0        3.298308    4.830822   -1.828785
     18          6           0        2.808434    5.247810   -0.485565
     19          6           0        3.330258    4.188009    0.338994
     20          6           0        3.175575    5.548190   -3.138010
     21          6           0        2.007463    6.421521   -0.017612
     22          8           0        1.889723    6.714150    1.221371
     23          6           0        1.429729    7.282400   -1.065540
     24          7           0        4.385290    2.125547    2.347222
     25          6           0        3.958881    3.353741    2.661385
     26          6           0        3.940746    3.562128    4.146708
     27          6           0        4.214832    2.129924    4.797415
     28          6           0        4.435960    1.318364    3.497129
     29          6           0        4.957527    4.573909    4.693029
     30          6           0        3.174287    1.612289    5.821983
     31          6           0        1.863210    1.329099    5.123428
     32          7           0        4.845608   -0.532413    1.193893
     33          6           0        5.082315   -0.854823    2.538026
     34          6           0        5.615072   -2.229414    2.565198
     35          6           0        5.667194   -2.607607    1.225013
     36          6           0        5.221539   -1.527704    0.410462
     37          6           0        6.032746   -2.938507    3.725874
     38          6           0        6.018946   -3.664050    0.290103
     39          8           0        6.363696   -4.841416    0.401683
     40          6           0        6.011615   -3.054265   -1.180928
     41          6           0        5.239765   -3.999383   -2.060876
     42          8           0        4.013574   -4.166314   -1.899765
     43          8           0        6.009373   -4.373081   -3.094604
     44          6           0        5.293318   -5.288564   -4.022672
     45          1           0        5.008061    3.414011   -3.498821
     46          1           0        3.176534    5.096718    2.223767
     47          1           0        5.018362   -0.454273    4.511422
     48          1           0        6.471470   -1.299087   -3.747733
     49          1           0        5.461137    1.159034   -4.688116
     50          1           0        7.946453    0.410778   -3.195066
     51          1           0        7.361516    2.078876   -2.909468
     52          1           0        7.744397    1.606291   -4.540617
     53          1           0        3.659529   -0.380871   -4.381122
     54          1           0        3.873184   -2.040097   -3.692793
     55          1           0        5.657564   -1.736618   -5.886167
     56          1           0        4.277531   -0.803070   -6.324175
     57          1           0        3.772564    5.070549   -3.913901
     58          1           0        3.633350    6.528622   -3.008001
     59          1           0        2.136433    5.665558   -3.445809
     60          1           0        2.231607    7.675927   -1.690582
     61          1           0        0.816831    8.018229   -0.546153
     62          1           0        0.803649    6.672866   -1.717800
     63          1           0        2.969023    3.925301    4.478804
     64          1           0        5.159715    2.101530    5.340613
     65          1           0        4.504640    5.385584    5.262926
     66          1           0        5.533543    4.960108    3.852584
     67          1           0        5.742508    4.143148    5.314051
     68          1           0        2.977257    2.371030    6.578578
     69          1           0        3.491479    0.705229    6.336652
     70          1           0        1.387571    2.308696    5.092002
     71          1           0        1.267293    0.624201    5.704129
     72          1           0        2.021853    1.010691    4.092926
     73          1           0        5.639209   -3.949762    3.623604
     74          1           0        5.666871   -2.461085    4.634613
     75          1           0        7.115840   -2.870264    3.625345
     76          1           0        7.053002   -2.966278   -1.488978
     77          1           0        5.896485   -6.192233   -4.111035
     78          1           0        5.099326   -4.718827   -4.931612
     79          1           0        4.352487   -5.703793   -3.659682
     80         12           0       -4.339637   -1.500550    0.279394
     81          6           0       -5.116255    1.517986   -1.499478
     82          6           0       -4.101138    0.400701    3.101263
     83          6           0       -3.215753   -4.056338    1.786795
     84          6           0       -3.523963   -2.935142   -2.790185
     85          7           0       -4.598054    0.668224    0.628533
     86          6           0       -4.953158    1.707824   -0.111385
     87          6           0       -5.222562    3.007786    0.693019
     88          6           0       -4.329375    2.679560    1.986609
     89          6           0       -4.369042    1.153802    1.930294
     90          6           0       -2.883143    3.125184    1.848204
     91          6           0       -6.736881    3.175598    1.068114
     92          6           0       -7.122120    4.564771    1.581478
     93          1           0       -8.438102    5.094556    1.235107
     94          7           0       -4.218584   -1.896983    2.220208
     95          6           0       -4.153369   -1.004606    3.230495
     96          6           0       -4.056027   -1.800003    4.464198
     97          6           0       -3.903081   -3.231811    4.088355
     98          6           0       -3.748952   -3.112385    2.652370
     99          6           0       -4.190467   -1.198428    5.832947
    100          6           0       -3.884194   -4.497847    4.890224
    101          8           0       -3.500517   -5.610585    4.382837
    102          6           0       -4.238929   -4.378708    6.312002
    103          7           0       -3.292574   -3.174517   -0.371632
    104          6           0       -2.971252   -4.163605    0.480654
    105          6           0       -2.469311   -5.380188   -0.259883
    106          6           0       -2.749617   -5.087441   -1.806913
    107          6           0       -3.308049   -3.651757   -1.695656
    108          6           0       -0.990504   -5.714280   -0.065206
    109          6           0       -3.579922   -6.145320   -2.584180
    110          6           0       -5.001160   -6.165887   -2.069356
    111          7           0       -4.487295   -0.920799   -1.796693
    112          6           0       -4.063019   -1.661732   -2.921458
    113          6           0       -4.266448   -0.806087   -4.108443
    114          6           0       -4.777500    0.391269   -3.585318
    115          6           0       -4.866036    0.296385   -2.170170
    116          6           0       -3.942803   -1.154152   -5.450167
    117          6           0       -5.252219    1.717744   -3.907513
    118          8           0       -5.486570    2.327027   -4.950386
    119          6           0       -5.373922    2.552049   -2.560105
    120          6           0       -6.712034    3.239054   -2.558432
    121          8           0       -7.762937    2.575865   -2.509434
    122          8           0       -6.527963    4.561944   -2.395800
    123          6           0       -7.827189    5.285447   -2.376509
    124          1           0       -3.779097    0.931883    3.997380
    125          1           0       -2.915708   -5.001025    2.246170
    126          1           0       -3.385998   -3.345074   -3.792980
    127          1           0       -4.870833    3.916348    0.219121
    128          1           0       -4.803521    3.040011    2.895796
    129          1           0       -2.665585    3.483996    0.853184
    130          1           0       -2.283666    2.253394    2.075505
    131          1           0       -2.641679    3.865572    2.616224
    132          1           0       -6.952380    2.578070    1.963248
    133          1           0       -7.366026    2.908598    0.241373
    134          1           0       -6.342708    5.309570    1.379633
    135          1           0       -7.181361    4.527620    2.671955
    136          1           0       -4.129698   -0.103648    5.798905
    137          1           0       -3.306271   -1.501930    6.403868
    138          1           0       -5.084782   -1.541204    6.357709
    139          1           0       -3.558226   -3.683067    6.796976
    140          1           0       -4.255578   -5.400670    6.695670
    141          1           0       -5.241183   -3.942308    6.387145
    142          1           0       -3.018020   -6.266180    0.035159
    143          1           0       -1.815894   -5.017589   -2.384077
    144          1           0       -0.821302   -6.737132    0.321091
    145          1           0       -0.559577   -4.979689    0.602025
    146          1           0       -0.372234   -5.608967   -0.955072
    147          1           0       -3.173634   -7.145365   -2.413908
    148          1           0       -3.593036   -5.981326   -3.656531
    149          1           0       -4.935172   -6.811299   -1.188342
    150          1           0       -5.673001   -6.584576   -2.815923
    151          1           0       -5.310179   -5.171414   -1.727049
    152          1           0       -4.772556   -0.830753   -6.064509
    153          1           0       -3.764629   -2.222658   -5.551787
    154          1           0       -3.028587   -0.570633   -5.587931
    155          1           0       -4.548081    3.264206   -2.540022
    156          1           0       -7.775963    6.054874   -3.153084
    157          1           0       -7.961735    5.630145   -1.333997
    158          1           0       -8.710967    4.736768   -2.680386
 ---------------------------------------------------------------------

 SCF Done:  E(RCAM-B3LYP) =  -4069.81225394     A.U. after   19 cycles

 Excitation energies and oscillator strengths:

 Excited State   1:      Singlet-A      1.6569 eV  748.28 nm  f=0.1269  <S**2>=0.000
     309 -> 315        0.10719
     310 -> 316        0.13098
     311 -> 313       -0.43622
     312 -> 314        0.53083
 This state for optimization and/or second-order correction.
 Total Energy, E(TD-HF/TD-DFT) =  -4069.75136338
 Copying the excited state density for this state as the 1-particle RhoCI density.

 Excited State   2:      Singlet-A      1.6907 eV  733.31 nm  f=0.5572  <S**2>=0.000
     309 -> 315       -0.13754
     310 -> 316        0.11257
     311 -> 313        0.52895
     312 -> 314        0.43470

 Excited State   3:      Singlet-A      2.1815 eV  568.34 nm  f=0.0559  <S**2>=0.000
     309 -> 313        0.26372
     310 -> 314        0.58810
     311 -> 315        0.10964
     312 -> 316       -0.24507

 Excited State   4:      Singlet-A      2.1948 eV  564.91 nm  f=0.1315  <S**2>=0.000
     309 -> 313        0.58374
     310 -> 314       -0.26074
     311 -> 315        0.25557
     312 -> 316        0.11524

 Excited State   5:      Singlet-A      2.3448 eV  528.75 nm  f=0.0000  <S**2>=0.000
     312 -> 313        0.70708

 The electronic state is 1-A.
 Alpha  occ. eigenvalues --  -46.87916 -46.87434 -19.26432 -19.26274 -19.19183
 Alpha  occ. eigenvalues --  -19.19065 -19.18959 -19.18517 -19.18278 -19.17924
 Alpha  occ. eigenvalues --  -14.42563 -14.42273 -14.41582 -14.41100 -14.39522
 Alpha  occ. eigenvalues --  -14.39134 -14.38703 -14.38391 -10.39236 -10.38992
 Alpha  occ. eigenvalues --  -10.35589 -10.35197 -10.34500 -10.34103 -10.31833
 Alpha  occ. eigenvalues --  -10.31701 -10.31510 -10.31107 -10.31020 -10.30811
 Alpha  occ. eigenvalues --  -10.30679 -10.30636 -10.30346 -10.30183 -10.30172
 Alpha  occ. eigenvalues --  -10.30065 -10.29859 -10.29747 -10.29616 -10.29369
 Alpha  occ. eigenvalues --  -10.29215 -10.29210 -10.28844 -10.28625 -10.28527
 Alpha  occ. eigenvalues --  -10.28511 -10.28478 -10.28205 -10.28202 -10.27916
 Alpha  occ. eigenvalues --  -10.27901 -10.27833 -10.27811 -10.27698 -10.27694
 Alpha  occ. eigenvalues --  -10.27644 -10.27528 -10.27523 -10.27451 -10.27324
 Alpha  occ. eigenvalues --  -10.27280 -10.27278 -10.27275 -10.27122 -10.26928
 Alpha  occ. eigenvalues --  -10.26919 -10.26800 -10.26530 -10.26521 -10.26440
 Alpha  occ. eigenvalues --  -10.26310 -10.26257 -10.26148 -10.25928 -10.25827
 Alpha  occ. eigenvalues --  -10.25741 -10.25737 -10.25691 -10.25612 -10.25014
 Alpha  occ. eigenvalues --  -10.24941 -10.24925 -10.24692 -10.24651 -10.24466
 Alpha  occ. eigenvalues --  -10.24431  -3.16659  -3.16184  -1.91541  -1.91128
 Alpha  occ. eigenvalues --   -1.91067  -1.90969  -1.90654  -1.90492  -1.16783
 Alpha  occ. eigenvalues --   -1.16562  -1.08738  -1.08543  -1.07365  -1.06851
 Alpha  occ. eigenvalues --   -1.06799  -1.06767  -1.04694  -1.04280  -1.03890
 Alpha  occ. eigenvalues --   -1.03435  -1.03355  -1.02796  -1.02534  -1.01879
 Alpha  occ. eigenvalues --   -0.92091  -0.91799  -0.89692  -0.89284  -0.89227
 Alpha  occ. eigenvalues --   -0.88936  -0.88458  -0.87972  -0.87886  -0.87786
 Alpha  occ. eigenvalues --   -0.87623  -0.87448  -0.87377  -0.86940  -0.85090
 Alpha  occ. eigenvalues --   -0.84789  -0.84129  -0.83543  -0.83099  -0.82767
 Alpha  occ. eigenvalues --   -0.82710  -0.82442  -0.81717  -0.81444  -0.80721
 Alpha  occ. eigenvalues --   -0.80261  -0.78899  -0.78452  -0.77353  -0.77059
 Alpha  occ. eigenvalues --   -0.76932  -0.76666  -0.76036  -0.75648  -0.75056
 Alpha  occ. eigenvalues --   -0.74423  -0.72894  -0.72485  -0.71797  -0.71296
 Alpha  occ. eigenvalues --   -0.70119  -0.69424  -0.68983  -0.68623  -0.67765
 Alpha  occ. eigenvalues --   -0.67386  -0.67324  -0.67021  -0.65399  -0.65079
 Alpha  occ. eigenvalues --   -0.64986  -0.64760  -0.64564  -0.64448  -0.64430
 Alpha  occ. eigenvalues --   -0.63906  -0.62441  -0.62114  -0.60565  -0.60114
 Alpha  occ. eigenvalues --   -0.59905  -0.59593  -0.59117  -0.58760  -0.58633
 Alpha  occ. eigenvalues --   -0.58212  -0.57712  -0.57454  -0.57419  -0.56990
 Alpha  occ. eigenvalues --   -0.56420  -0.56111  -0.56026  -0.55738  -0.55639
 Alpha  occ. eigenvalues --   -0.55510  -0.55290  -0.54986  -0.54692  -0.54224
 Alpha  occ. eigenvalues --   -0.53995  -0.53702  -0.53428  -0.53335  -0.53057
 Alpha  occ. eigenvalues --   -0.53020  -0.52951  -0.52864  -0.52717  -0.52657
 Alpha  occ. eigenvalues --   -0.52488  -0.52114  -0.52016  -0.51743  -0.51718
 Alpha  occ. eigenvalues --   -0.51482  -0.51330  -0.51012  -0.50673  -0.50287
 Alpha  occ. eigenvalues --   -0.50202  -0.50031  -0.49767  -0.49628  -0.49516
 Alpha  occ. eigenvalues --   -0.49329  -0.49294  -0.49198  -0.49028  -0.48905
 Alpha  occ. eigenvalues --   -0.48716  -0.48613  -0.48570  -0.48382  -0.48163
 Alpha  occ. eigenvalues --   -0.48024  -0.47820  -0.47415  -0.47377  -0.46933
 Alpha  occ. eigenvalues --   -0.46870  -0.46661  -0.46488  -0.46473  -0.46329
 Alpha  occ. eigenvalues --   -0.46299  -0.46055  -0.45940  -0.45818  -0.45636
 Alpha  occ. eigenvalues --   -0.45365  -0.44815  -0.44702  -0.44635  -0.44324
 Alpha  occ. eigenvalues --   -0.44297  -0.44260  -0.44198  -0.44134  -0.43932
 Alpha  occ. eigenvalues --   -0.43832  -0.43770  -0.43627  -0.43511  -0.43391
 Alpha  occ. eigenvalues --   -0.43156  -0.43141  -0.42875  -0.42828  -0.42801
 Alpha  occ. eigenvalues --   -0.42665  -0.42260  -0.42175  -0.41830  -0.41722
 Alpha  occ. eigenvalues --   -0.41646  -0.41456  -0.41263  -0.41234  -0.41005
 Alpha  occ. eigenvalues --   -0.40957  -0.40731  -0.40727  -0.40525  -0.40477
 Alpha  occ. eigenvalues --   -0.40334  -0.40164  -0.40049  -0.39673  -0.39108
 Alpha  occ. eigenvalues --   -0.38635  -0.38007  -0.37856  -0.37474  -0.37459
 Alpha  occ. eigenvalues --   -0.37370  -0.37023  -0.36964  -0.36870  -0.36622
 Alpha  occ. eigenvalues --   -0.36344  -0.35938  -0.34407  -0.34031  -0.33927
 Alpha  occ. eigenvalues --   -0.33741  -0.33312  -0.32954  -0.31490  -0.31162
 Alpha  occ. eigenvalues --   -0.31069  -0.30746  -0.30139  -0.29833  -0.29564
 Alpha  occ. eigenvalues --   -0.29431  -0.29138  -0.29030  -0.24202  -0.23813
 Alpha  occ. eigenvalues --   -0.21246  -0.20891
 Alpha virt. eigenvalues --   -0.08891  -0.08587  -0.01879  -0.01441  -0.00176
 Alpha virt. eigenvalues --    0.00161   0.02078   0.02378   0.02825   0.03500
 Alpha virt. eigenvalues --    0.04604   0.04951   0.04963   0.05272   0.06069

 Mulliken charges:
               1
     1  Mg   0.838910
     2  C   -0.003049
     3  C   -0.093200
     4  C   -0.046678
     5  C   -0.063914
     6  N   -0.256751
     7  C   -0.052314
     8  C   -0.014095
     9  C   -0.087148
    10  C    0.046267
    11  C    0.104703
    12  C    0.053354
    13  C   -0.071824
    14  H    0.035287
    15  N   -0.433179
    16  C    0.168412
    17  C   -0.176439
    18  C   -0.004274
    19  C    0.148615
    20  C    0.109821
    21  C    0.011272
    22  O   -0.251010
    23  C    0.062509
    24  N   -0.341005
    25  C    0.041311
    26  C   -0.028059
    27  C   -0.023807
    28  C    0.074374
    29  C    0.076171
    30  C    0.035344
    31  C   -0.004339
    32  N   -0.310534
    33  C    0.080431
    34  C   -0.169251
    35  C    0.008476
    36  C    0.083014
    37  C    0.127284
    38  C    0.046091
    39  O   -0.188160
    40  C   -0.005432
    41  C    0.213330
    42  O   -0.258431
    43  O   -0.304362
    44  C    0.157971
    45  H   -0.016967
    46  H   -0.017603
    47  H   -0.041581
    48  H    0.001049
    49  H   -0.003354
    50  H    0.025485
    51  H    0.016456
    52  H    0.017145
    53  H    0.011955
    54  H    0.043232
    55  H    0.018139
    56  H    0.018871
    57  H    0.006537
    58  H    0.026959
    59  H    0.041197
    60  H    0.038183
    61  H    0.035000
    62  H    0.032313
    63  H    0.014907
    64  H    0.009856
    65  H    0.022737
    66  H    0.013133
    67  H    0.005039
    68  H    0.005643
    69  H    0.005403
    70  H    0.006177
    71  H    0.016501
    72  H    0.030601
    73  H    0.048233
    74  H    0.009026
    75  H    0.046100
    76  H    0.035521
    77  H    0.043399
    78  H    0.046731
    79  H    0.052311
    80  Mg   0.837676
    81  C   -0.017477
    82  C   -0.088437
    83  C   -0.044912
    84  C   -0.063714
    85  N   -0.254842
    86  C   -0.050076
    87  C   -0.015017
    88  C   -0.090437
    89  C    0.045991
    90  C    0.114759
    91  C    0.062558
    92  C   -0.077649
    93  H    0.033892
    94  N   -0.423681
    95  C    0.163538
    96  C   -0.174978
    97  C   -0.007430
    98  C    0.152343
    99  C    0.099615
   100  C    0.015416
   101  O   -0.252156
   102  C    0.061340
   103  N   -0.350183
   104  C    0.039212
   105  C   -0.021126
   106  C   -0.034116
   107  C    0.089248
   108  C    0.070821
   109  C    0.034512
   110  C   -0.007419
   111  N   -0.323869
   112  C    0.078158
   113  C   -0.163755
   114  C    0.001331
   115  C    0.096285
   116  C    0.131814
   117  C    0.041277
   118  O   -0.189935
   119  C    0.001408
   120  C    0.211165
   121  O   -0.250968
   122  O   -0.305998
   123  C    0.152168
   124  H   -0.019822
   125  H   -0.014307
   126  H   -0.040943
   127  H   -0.001349
   128  H   -0.004713
   129  H    0.021664
   130  H    0.014202
   131  H    0.019177
   132  H    0.013791
   133  H    0.037232
   134  H    0.021059
   135  H    0.019628
   136  H    0.008534
   137  H    0.025137
   138  H    0.039467
   139  H    0.037576
   140  H    0.036312
   141  H    0.033544
   142  H    0.013208
   143  H    0.014991
   144  H    0.024472
   145  H    0.015308
   146  H    0.015051
   147  H    0.006708
   148  H    0.002332
   149  H    0.010979
   150  H    0.016751
   151  H    0.029454
   152  H    0.045167
   153  H    0.008526
   154  H    0.045152
   155  H    0.033071
   156  H    0.043001
   157  H    0.049805
   158  H    0.053460
 Sum of Mulliken charges =  -0.00000

 Dipole moment (field-independent basis, Debye):
    X=              3.0276    Y=              4.3444    Z=              1.0413  Tot=              5.3967
 Quadrupole moment (field-independent basis, Debye-Ang):
   XX=           -525.0492   YY=           -526.1168   ZZ=           -469.0217
   XY=             13.1490   XZ=            -45.0476   YZ=             21.1272

 Normal termination of Gaussian 16 at Thu Aug 19 20:06:15 2021.
