 Gaussian 16, Revision A.03,
 Gaussian 16:  ES64L-G16RevA.03 25-Dec-2016

 -----------------------------------
 #p cam-b3lyp/Def2SVP td=(nstates=5)
 -----------------------------------

 --------------------------------
 TDDFT excited states in gaussian
 --------------------------------
 Symbolic Z-matrix:
 Charge =  0 Multiplicity = 1

                         Standard orientation:
 ---------------------------------------------------------------------
 Center     Atomic      Atomic             Coordinates (Angstroms)
 Number     Number       Type             X           Y           Z
 ---------------------------------------------------------------------
      1         12           0        4.217040    1.294617    0.440235
      2          6           0        5.395166   -1.689627   -1.146751
      3          6           0        4.670619    2.883444   -2.545224
      4          6           0        3.616165    4.029784    1.928331
      5          6           0        4.932307   -0.223632    3.494571
      6          7           0        4.944341    0.579585   -1.524558
      7          6           0        5.307392   -0.600667   -2.016869
      8          6           0        5.513271   -0.589039   -3.561166
      9          6           0        5.813962    0.963605   -3.763350
     10          6           0        5.069678    1.513926   -2.559559
     11          6           0        7.291210    1.320180   -3.632601
     12          6           0        4.225636   -1.028849   -4.335952
     13          6           0        4.434675   -1.358166   -5.816900
     14          1           0        3.654131   -2.432155   -6.412422
     15          7           0        3.689223    3.056471   -0.280965
     16          6           0        3.942337    3.531477   -1.524182
     17          6           0        3.347089    4.884257   -1.572638
     18          6           0        2.893667    5.231399   -0.197139
     19          6           0        3.411870    4.116145    0.553227
     20          6           0        3.210989    5.678576   -2.835287
     21          6           0        2.125711    6.390378    0.355259
     22          8           0        2.039664    6.612652    1.611350
     23          6           0        1.543065    7.321073   -0.628292
     24          7           0        4.468288    1.921605    2.415429
     25          6           0        4.072584    3.137059    2.809224
     26          6           0        4.089614    3.259121    4.304132
     27          6           0        4.349279    1.786775    4.864956
     28          6           0        4.527268    1.048207    3.515472
     29          6           0        5.137149    4.218730    4.885367
     30          6           0        3.320514    1.229591    5.880636
     31          6           0        1.989827    1.011437    5.195962
     32          7           0        4.852436   -0.672841    1.100861
     33          6           0        5.110897   -1.077044    2.418621
     34          6           0        5.617196   -2.460390    2.354726
     35          6           0        5.633865   -2.760993    0.994136
     36          6           0        5.192402   -1.627646    0.253240
     37          6           0        6.045169   -3.243207    3.463089
     38          6           0        5.945299   -3.767598   -0.007669
     39          8           0        6.269281   -4.955555    0.028198
     40          6           0        5.919068   -3.073370   -1.440564
     41          6           0        5.110680   -3.951534   -2.356340
     42          8           0        3.885109   -4.105125   -2.178154
     43          8           0        5.851045   -4.278550   -3.426603
     44          6           0        5.098000   -5.125357   -4.389928
     45          1           0        4.993549    3.535856   -3.358867
     46          1           0        3.315388    4.916504    2.490201
     47          1           0        5.096094   -0.790687    4.412763
     48          1           0        6.359230   -1.180760   -3.911371
     49          1           0        5.377564    1.345866   -4.685931
     50          1           0        7.878526    0.466903   -3.293632
     51          1           0        7.332340    2.125998   -2.899485
     52          1           0        7.671700    1.742038   -4.563213
     53          1           0        3.553089   -0.176119   -4.428650
     54          1           0        3.748707   -1.876147   -3.842038
     55          1           0        5.492357   -1.478415   -6.053031
     56          1           0        4.121927   -0.495962   -6.405961
     57          1           0        3.782176    5.235987   -3.650397
     58          1           0        3.690419    6.641281   -2.659063
     59          1           0        2.168118    5.832578   -3.112839
     60          1           0        2.339204    7.735533   -1.247108
     61          1           0        0.955642    8.036560   -0.053955
     62          1           0        0.891700    6.761985   -1.300670
     63          1           0        3.132325    3.620074    4.677945
     64          1           0        5.304593    1.709633    5.384666
     65          1           0        4.712207    5.004067    5.510966
     66          1           0        5.702866    4.642510    4.056111
     67          1           0        5.926408    3.738366    5.463068
     68          1           0        3.154200    1.946578    6.683889
     69          1           0        3.630659    0.288530    6.335021
     70          1           0        1.532829    1.999727    5.231572
     71          1           0        1.392563    0.284999    5.748026
     72          1           0        2.120622    0.750576    4.145566
     73          1           0        5.629930   -4.239462    3.311358
     74          1           0        5.707778   -2.812772    4.405690
     75          1           0        7.127046   -3.189027    3.342829
     76          1           0        6.955295   -2.986668   -1.765891
     77          1           0        5.681446   -6.033229   -4.543529
     78          1           0        4.896171   -4.500342   -5.260000
     79          1           0        4.157055   -5.543721   -4.030854
     80         12           0       -4.367262   -1.417735    0.333877
     81          6           0       -5.048837    1.498007   -1.644245
     82          6           0       -4.137604    0.651905    3.035431
     83          6           0       -3.324047   -3.895749    2.018675
     84          6           0       -3.528966   -3.058412   -2.624357
     85          7           0       -4.585749    0.773427    0.541985
     86          6           0       -4.905880    1.771385   -0.267919
     87          6           0       -5.161637    3.124457    0.448554
     88          6           0       -4.298190    2.860334    1.776544
     89          6           0       -4.369146    1.335159    1.814918
     90          6           0       -2.840661    3.267322    1.637576
     91          6           0       -6.678342    3.345808    0.784126
     92          6           0       -7.042957    4.771935    1.202447
     93          1           0       -8.341234    5.305162    0.799175
     94          7           0       -4.288336   -1.693784    2.297580
     95          6           0       -4.221801   -0.741173    3.251194
     96          6           0       -4.162736   -1.459275    4.533776
     97          6           0       -4.033623   -2.914643    4.251016
     98          6           0       -3.852095   -2.888790    2.813498
     99          6           0       -4.308155   -0.770312    5.859523
    100          6           0       -4.055452   -4.127919    5.130613
    101          8           0       -3.686660   -5.277801    4.700971
    102          6           0       -4.432205   -3.912595    6.535313
    103          7           0       -3.344712   -3.149944   -0.191679
    104          6           0       -3.059238   -4.089754    0.726565
    105          6           0       -2.570380   -5.360276    0.072962
    106          6           0       -2.817526   -5.159756   -1.494291
    107          6           0       -3.347292   -3.709029   -1.483363
    108          6           0       -1.102570   -5.711029    0.315666
    109          6           0       -3.656415   -6.247540   -2.219317
    110          6           0       -5.086488   -6.207252   -1.730806
    111          7           0       -4.466559   -0.966739   -1.776769
    112          6           0       -4.038608   -1.785232   -2.844948
    113          6           0       -4.203247   -1.001954   -4.086637
    114          6           0       -4.697839    0.235902   -3.648961
    115          6           0       -4.812923    0.231912   -2.232542
    116          6           0       -3.863795   -1.440056   -5.397733
    117          6           0       -5.138726    1.548748   -4.062167
    118          8           0       -5.341993    2.095877   -5.145261
    119          6           0       -5.266118    2.468348   -2.772010
    120          6           0       -6.589222    3.180755   -2.838203
    121          8           0       -7.654619    2.543144   -2.767495
    122          8           0       -6.380055    4.507295   -2.755124
    123          6           0       -7.663810    5.256469   -2.805299
    124          1           0       -3.820000    1.231783    3.902470
    125          1           0       -3.052076   -4.815531    2.541668
    126          1           0       -3.382330   -3.533232   -3.596845
    127          1           0       -4.782599    3.994223   -0.074534
    128          1           0       -4.780307    3.286637    2.652443
    129          1           0       -2.598322    3.558480    0.626318
    130          1           0       -2.263801    2.399708    1.930030
    131          1           0       -2.596953    4.049525    2.362212
    132          1           0       -6.921953    2.810144    1.710659
    133          1           0       -7.298557    3.040042   -0.035921
    134          1           0       -6.244578    5.486811    0.969045
    135          1           0       -7.121895    4.804568    2.291811
    136          1           0       -4.223646    0.318734    5.758312
    137          1           0       -3.440625   -1.054993    6.464680
    138          1           0       -5.218490   -1.061451    6.387904
    139          1           0       -3.745461   -3.201630    6.988492
    140          1           0       -4.477146   -4.907887    6.981679
    141          1           0       -5.426164   -3.452342    6.564336
    142          1           0       -3.142743   -6.214804    0.412479
    143          1           0       -1.872660   -5.145030   -2.057176
    144          1           0       -0.961772   -6.710772    0.768191
    145          1           0       -0.667832   -4.944745    0.943630
    146          1           0       -0.466856   -5.674252   -0.567356
    147          1           0       -3.274399   -7.242856   -1.979364
    148          1           0       -3.647436   -6.151025   -3.299874
    149          1           0       -5.049474   -6.797214   -0.810125
    150          1           0       -5.753988   -6.658471   -2.462162
    151          1           0       -5.380287   -5.187240   -1.457109
    152          1           0       -4.675727   -1.139341   -6.046448
    153          1           0       -3.706532   -2.516188   -5.429077
    154          1           0       -2.935178   -0.884768   -5.554598
    155          1           0       -4.425865    3.163668   -2.781048
    156          1           0       -7.582846    5.974395   -3.627319
    157          1           0       -7.809107    5.668609   -1.789044
    158          1           0       -8.553590    4.707595   -3.090740
 ---------------------------------------------------------------------

 SCF Done:  E(RCAM-B3LYP) =  -4069.81231927     A.U. after   19 cycles

 Excitation energies and oscillator strengths:

 Excited State   1:      Singlet-A      1.6596 eV  747.08 nm  f=0.1620  <S**2>=0.000
     309 -> 315       -0.10567
     310 -> 316       -0.13312
     311 -> 313        0.42813
     312 -> 314        0.53710
 This state for optimization and/or second-order correction.
 Total Energy, E(TD-HF/TD-DFT) =  -4069.75133044
 Copying the excited state density for this state as the 1-particle RhoCI density.

 Excited State   2:      Singlet-A      1.6873 eV  734.79 nm  f=0.5183  <S**2>=0.000
     309 -> 315       -0.13841
     310 -> 316        0.10984
     311 -> 313        0.53549
     312 -> 314       -0.42691

 Excited State   3:      Singlet-A      2.1818 eV  568.26 nm  f=0.0657  <S**2>=0.000
     309 -> 313        0.24955
     310 -> 314        0.59393
     311 -> 315        0.10403
     312 -> 316        0.24801

 Excited State   4:      Singlet-A      2.1939 eV  565.12 nm  f=0.1247  <S**2>=0.000
     309 -> 313        0.59003
     310 -> 314       -0.24699
     311 -> 315        0.25751
     312 -> 316       -0.10884

 Excited State   5:      Singlet-A      2.3445 eV  528.83 nm  f=0.0000  <S**2>=0.000
     312 -> 313        0.70707

 The electronic state is 1-A.
 Alpha  occ. eigenvalues --  -46.87917 -46.87437 -19.26431 -19.26288 -19.19183
 Alpha  occ. eigenvalues --  -19.19075 -19.18978 -19.18529 -19.18285 -19.17928
 Alpha  occ. eigenvalues --  -14.42563 -14.42277 -14.41581 -14.41102 -14.39525
 Alpha  occ. eigenvalues --  -14.39138 -14.38704 -14.38392 -10.39236 -10.39002
 Alpha  occ. eigenvalues --  -10.35610 -10.35209 -10.34506 -10.34107 -10.31829
 Alpha  occ. eigenvalues --  -10.31717 -10.31508 -10.31109 -10.31021 -10.30819
 Alpha  occ. eigenvalues --  -10.30680 -10.30639 -10.30345 -10.30186 -10.30171
 Alpha  occ. eigenvalues --  -10.30063 -10.29859 -10.29751 -10.29619 -10.29373
 Alpha  occ. eigenvalues --  -10.29216 -10.29213 -10.28838 -10.28605 -10.28541
 Alpha  occ. eigenvalues --  -10.28527 -10.28482 -10.28210 -10.28196 -10.27924
 Alpha  occ. eigenvalues --  -10.27906 -10.27833 -10.27814 -10.27705 -10.27681
 Alpha  occ. eigenvalues --  -10.27636 -10.27542 -10.27524 -10.27452 -10.27323
 Alpha  occ. eigenvalues --  -10.27282 -10.27281 -10.27280 -10.27111 -10.26936
 Alpha  occ. eigenvalues --  -10.26929 -10.26786 -10.26557 -10.26543 -10.26413
 Alpha  occ. eigenvalues --  -10.26305 -10.26270 -10.26146 -10.25929 -10.25813
 Alpha  occ. eigenvalues --  -10.25750 -10.25729 -10.25686 -10.25606 -10.24973
 Alpha  occ. eigenvalues --  -10.24946 -10.24926 -10.24694 -10.24689 -10.24457
 Alpha  occ. eigenvalues --  -10.24438  -3.16660  -3.16187  -1.91541  -1.91128
 Alpha  occ. eigenvalues --   -1.91069  -1.90970  -1.90657  -1.90495  -1.16782
 Alpha  occ. eigenvalues --   -1.16576  -1.08745  -1.08546  -1.07385  -1.06862
 Alpha  occ. eigenvalues --   -1.06800  -1.06780  -1.04694  -1.04285  -1.03889
 Alpha  occ. eigenvalues --   -1.03438  -1.03357  -1.02798  -1.02535  -1.01882
 Alpha  occ. eigenvalues --   -0.92092  -0.91803  -0.89683  -0.89278  -0.89226
 Alpha  occ. eigenvalues --   -0.88944  -0.88451  -0.87974  -0.87888  -0.87784
 Alpha  occ. eigenvalues --   -0.87621  -0.87452  -0.87389  -0.86945  -0.85086
 Alpha  occ. eigenvalues --   -0.84797  -0.84117  -0.83548  -0.83112  -0.82768
 Alpha  occ. eigenvalues --   -0.82718  -0.82450  -0.81715  -0.81450  -0.80723
 Alpha  occ. eigenvalues --   -0.80267  -0.78907  -0.78454  -0.77348  -0.77053
 Alpha  occ. eigenvalues --   -0.76937  -0.76674  -0.76034  -0.75654  -0.75050
 Alpha  occ. eigenvalues --   -0.74435  -0.72894  -0.72486  -0.71795  -0.71305
 Alpha  occ. eigenvalues --   -0.70102  -0.69423  -0.68982  -0.68631  -0.67768
 Alpha  occ. eigenvalues --   -0.67392  -0.67322  -0.67030  -0.65394  -0.65088
 Alpha  occ. eigenvalues --   -0.64984  -0.64755  -0.64568  -0.64454  -0.64424
 Alpha  occ. eigenvalues --   -0.63907  -0.62439  -0.62121  -0.60572  -0.60119
 Alpha  occ. eigenvalues --   -0.59902  -0.59600  -0.59116  -0.58764  -0.58633
 Alpha  occ. eigenvalues --   -0.58216  -0.57713  -0.57454  -0.57425  -0.56994
 Alpha  occ. eigenvalues --   -0.56424  -0.56110  -0.56028  -0.55747  -0.55645
 Alpha  occ. eigenvalues --   -0.55503  -0.55297  -0.54991  -0.54686  -0.54229
 Alpha  occ. eigenvalues --   -0.53990  -0.53711  -0.53430  -0.53338  -0.53055
 Alpha  occ. eigenvalues --   -0.53025  -0.52957  -0.52873  -0.52724  -0.52641
 Alpha  occ. eigenvalues --   -0.52497  -0.52109  -0.52018  -0.51736  -0.51719
 Alpha  occ. eigenvalues --   -0.51491  -0.51327  -0.51014  -0.50688  -0.50293
 Alpha  occ. eigenvalues --   -0.50194  -0.50041  -0.49775  -0.49631  -0.49523
 Alpha  occ. eigenvalues --   -0.49333  -0.49302  -0.49196  -0.49034  -0.48914
 Alpha  occ. eigenvalues --   -0.48715  -0.48613  -0.48581  -0.48388  -0.48172
 Alpha  occ. eigenvalues --   -0.48032  -0.47820  -0.47418  -0.47383  -0.46928
 Alpha  occ. eigenvalues --   -0.46876  -0.46657  -0.46488  -0.46477  -0.46335
 Alpha  occ. eigenvalues --   -0.46297  -0.46057  -0.45938  -0.45822  -0.45643
 Alpha  occ. eigenvalues --   -0.45359  -0.44830  -0.44701  -0.44638  -0.44331
 Alpha  occ. eigenvalues --   -0.44293  -0.44267  -0.44195  -0.44139  -0.43940
 Alpha  occ. eigenvalues --   -0.43836  -0.43778  -0.43625  -0.43507  -0.43398
 Alpha  occ. eigenvalues --   -0.43154  -0.43150  -0.42864  -0.42824  -0.42810
 Alpha  occ. eigenvalues --   -0.42670  -0.42263  -0.42165  -0.41831  -0.41724
 Alpha  occ. eigenvalues --   -0.41640  -0.41462  -0.41261  -0.41241  -0.40997
 Alpha  occ. eigenvalues --   -0.40969  -0.40736  -0.40723  -0.40537  -0.40484
 Alpha  occ. eigenvalues --   -0.40324  -0.40168  -0.40062  -0.39652  -0.39103
 Alpha  occ. eigenvalues --   -0.38626  -0.38014  -0.37848  -0.37469  -0.37468
 Alpha  occ. eigenvalues --   -0.37367  -0.37028  -0.36966  -0.36867  -0.36633
 Alpha  occ. eigenvalues --   -0.36339  -0.35943  -0.34407  -0.34034  -0.33928
 Alpha  occ. eigenvalues --   -0.33750  -0.33313  -0.32956  -0.31508  -0.31163
 Alpha  occ. eigenvalues --   -0.31081  -0.30751  -0.30145  -0.29837  -0.29571
 Alpha  occ. eigenvalues --   -0.29436  -0.29141  -0.29032  -0.24203  -0.23815
 Alpha  occ. eigenvalues --   -0.21247  -0.20894
 Alpha virt. eigenvalues --   -0.08894  -0.08589  -0.01881  -0.01444  -0.00186
 Alpha virt. eigenvalues --    0.00154   0.02074   0.02376   0.02826   0.03497
 Alpha virt. eigenvalues --    0.04608   0.04950   0.04959   0.05262   0.06082

 Mulliken charges:
               1
     1  Mg   0.838905
     2  C   -0.003037
     3  C   -0.093150
     4  C   -0.046726
     5  C   -0.063823
     6  N   -0.256781
     7  C   -0.052230
     8  C   -0.014135
     9  C   -0.087131
    10  C    0.046274
    11  C    0.104694
    12  C    0.053299
    13  C   -0.071938
    14  H    0.035533
    15  N   -0.433131
    16  C    0.168346
    17  C   -0.176564
    18  C   -0.004446
    19  C    0.148637
    20  C    0.109862
    21  C    0.011165
    22  O   -0.251048
    23  C    0.062629
    24  N   -0.341040
    25  C    0.041360
    26  C   -0.028025
    27  C   -0.023845
    28  C    0.074470
    29  C    0.076175
    30  C    0.035291
    31  C   -0.004276
    32  N   -0.310549
    33  C    0.080502
    34  C   -0.169265
    35  C    0.008384
    36  C    0.083007
    37  C    0.127304
    38  C    0.045969
    39  O   -0.188255
    40  C   -0.005364
    41  C    0.213276
    42  O   -0.258466
    43  O   -0.304363
    44  C    0.158001
    45  H   -0.016973
    46  H   -0.017648
    47  H   -0.041422
    48  H    0.001041
    49  H   -0.003262
    50  H    0.025469
    51  H    0.016415
    52  H    0.017163
    53  H    0.012074
    54  H    0.043302
    55  H    0.018053
    56  H    0.019016
    57  H    0.006675
    58  H    0.026919
    59  H    0.040836
    60  H    0.038303
    61  H    0.034768
    62  H    0.031797
    63  H    0.014933
    64  H    0.009845
    65  H    0.022708
    66  H    0.013061
    67  H    0.005062
    68  H    0.005614
    69  H    0.005544
    70  H    0.006011
    71  H    0.017271
    72  H    0.030420
    73  H    0.048105
    74  H    0.009250
    75  H    0.046118
    76  H    0.035540
    77  H    0.043334
    78  H    0.046859
    79  H    0.052281
    80  Mg   0.837663
    81  C   -0.017481
    82  C   -0.088442
    83  C   -0.045143
    84  C   -0.063197
    85  N   -0.254827
    86  C   -0.050067
    87  C   -0.014993
    88  C   -0.090378
    89  C    0.045873
    90  C    0.114543
    91  C    0.062572
    92  C   -0.077592
    93  H    0.033928
    94  N   -0.423612
    95  C    0.163405
    96  C   -0.175012
    97  C   -0.007641
    98  C    0.152348
    99  C    0.099653
   100  C    0.015259
   101  O   -0.252395
   102  C    0.061371
   103  N   -0.350150
   104  C    0.039124
   105  C   -0.021083
   106  C   -0.034522
   107  C    0.089310
   108  C    0.070785
   109  C    0.034496
   110  C   -0.007424
   111  N   -0.323890
   112  C    0.078155
   113  C   -0.163562
   114  C    0.001376
   115  C    0.096317
   116  C    0.131837
   117  C    0.041366
   118  O   -0.189897
   119  C    0.001378
   120  C    0.211192
   121  O   -0.250917
   122  O   -0.306100
   123  C    0.152150
   124  H   -0.019621
   125  H   -0.014591
   126  H   -0.040601
   127  H   -0.001791
   128  H   -0.004562
   129  H    0.020672
   130  H    0.014466
   131  H    0.019919
   132  H    0.013886
   133  H    0.037258
   134  H    0.020738
   135  H    0.019758
   136  H    0.008709
   137  H    0.025072
   138  H    0.039427
   139  H    0.037486
   140  H    0.036217
   141  H    0.033651
   142  H    0.013236
   143  H    0.016173
   144  H    0.024301
   145  H    0.014012
   146  H    0.015633
   147  H    0.006838
   148  H    0.002553
   149  H    0.010882
   150  H    0.016783
   151  H    0.029365
   152  H    0.045113
   153  H    0.008657
   154  H    0.045441
   155  H    0.032940
   156  H    0.042964
   157  H    0.049731
   158  H    0.053530
 Sum of Mulliken charges =  -0.00000

 Dipole moment (field-independent basis, Debye):
    X=              2.9772    Y=              4.6764    Z=              1.1471  Tot=              5.6611
 Quadrupole moment (field-independent basis, Debye-Ang):
   XX=           -523.9712   YY=           -521.6903   ZZ=           -474.4235
   XY=             11.1718   XZ=            -41.9966   YZ=             17.3267

 Normal termination of Gaussian 16 at Thu Aug 19 20:08:25 2021.
