 Gaussian 16, Revision A.03,
 Gaussian 16:  ES64L-G16RevA.03 25-Dec-2016

 -----------------------------------
 #p cam-b3lyp/Def2SVP td=(nstates=5)
 -----------------------------------

 --------------------------------
 TDDFT excited states in gaussian
 --------------------------------
 Symbolic Z-matrix:
 Charge =  0 Multiplicity = 1

                         Standard orientation:
 ---------------------------------------------------------------------
 Center     Atomic      Atomic             Coordinates (Angstroms)
 Number     Number       Type             X           Y           Z
 ---------------------------------------------------------------------
      1         12           0       -4.091582   -1.649652    0.254530
      2          6           0       -5.624646    1.541687   -0.272050
      3          6           0       -4.822214   -2.371229   -2.999478
      4          6           0       -3.156735   -4.627021    0.818408
      5          6           0       -4.506295   -1.119729    3.674012
      6          7           0       -5.096730   -0.480438   -1.333947
      7          6           0       -5.584299    0.752989   -1.423993
      8          6           0       -5.979561    1.156607   -2.875969
      9          6           0       -6.214798   -0.297435   -3.486233
     10          6           0       -5.296735   -1.094245   -2.576190
     11          6           0       -7.641797   -0.807430   -3.312794
     12          6           0       -4.825163    1.909796   -3.618803
     13          6           0       -5.234955    2.621182   -4.911612
     14          1           0       -4.596464    3.884631   -5.248324
     15          7           0       -3.558763   -3.083685   -0.995470
     16          6           0       -3.937197   -3.211589   -2.289965
     17          6           0       -3.277076   -4.437359   -2.788371
     18          6           0       -2.637292   -5.114271   -1.626235
     19          6           0       -3.120409   -4.305476   -0.536360
     20          6           0       -3.254307   -4.830037   -4.233721
     21          6           0       -1.742346   -6.307889   -1.514530
     22          8           0       -1.488396   -6.864940   -0.392131
     23          6           0       -1.234809   -6.869115   -2.779629
     24          7           0       -4.059500   -2.825456    1.979086
     25          6           0       -3.549841   -4.061956    1.961831
     26          6           0       -3.373982   -4.599483    3.351103
     27          6           0       -3.644730   -3.373065    4.337181
     28          6           0       -4.030555   -2.304672    3.284591
     29          6           0       -4.285204   -5.773574    3.734762
     30          6           0       -2.530842   -3.033197    5.359024
     31          6           0       -1.310064   -2.513248    4.633454
     32          7           0       -4.750125   -0.011797    1.517383
     33          6           0       -4.865204   -0.018371    2.915019
     34          6           0       -5.452904    1.276108    3.306173
     35          6           0       -5.655543    1.943553    2.099815
     36          6           0       -5.246246    1.107926    1.021625
     37          6           0       -5.783341    1.674882    4.631399
     38          6           0       -6.145495    3.158589    1.469345
     39          8           0       -6.529138    4.254720    1.880206
     40          6           0       -6.258386    2.899462   -0.097797
     41          6           0       -5.621052    4.068107   -0.798784
     42          8           0       -4.393494    4.274876   -0.710955
     43          8           0       -6.506010    4.614411   -1.646689
     44          6           0       -5.927639    5.761463   -2.396298
     45          1           0       -5.206381   -2.795439   -3.929210
     46          1           0       -2.738804   -5.605036    1.065912
     47          1           0       -4.586464   -0.850093    4.728679
     48          1           0       -6.894579    1.744410   -2.951167
     49          1           0       -5.875563   -0.364779   -4.519726
     50          1           0       -8.229709   -0.139790   -2.683083
     51          1           0       -7.545856   -1.786850   -2.843725
     52          1           0       -8.110558   -0.983666   -4.281288
     53          1           0       -4.122235    1.181243   -4.022738
     54          1           0       -4.339202    2.623757   -2.952899
     55          1           0       -6.318879    2.707427   -4.992721
     56          1           0       -4.949622    1.990529   -5.753669
     57          1           0       -3.946487   -4.229679   -4.822790
     58          1           0       -3.652918   -5.842496   -4.294912
     59          1           0       -2.247001   -4.805768   -4.649749
     60          1           0       -2.076986   -7.163042   -3.406442
     61          1           0       -0.541048   -7.661267   -2.500271
     62          1           0       -0.704734   -6.087761   -3.325023
     63          1           0       -2.358787   -4.963385    3.504013
     64          1           0       -4.530851   -3.530858    4.952457
     65          1           0       -3.742081   -6.661438    4.059445
     66          1           0       -4.924749   -5.996699    2.881247
     67          1           0       -5.022411   -5.547396    4.504689
     68          1           0       -2.225704   -3.928786    5.899170
     69          1           0       -2.834796   -2.289172    6.095426
     70          1           0       -0.797053   -3.426683    4.334643
     71          1           0       -0.690835   -1.920301    5.307383
     72          1           0       -1.584954   -1.981038    3.722589
     73          1           0       -5.447171    2.706772    4.732206
     74          1           0       -5.307605    1.029397    5.369388
     75          1           0       -6.866969    1.559760    4.612644
     76          1           0       -7.320446    2.814881   -0.325827
     77          1           0       -6.576035    6.619800   -2.220016
     78          1           0       -5.800526    5.426354   -3.425837
     79          1           0       -4.974523    6.144978   -2.030476
     80         12           0        4.244697    1.745352    0.057427
     81          6           0        5.340810   -1.544014   -0.868688
     82          6           0        3.858056    0.560237    3.232429
     83          6           0        2.852755    4.495988    0.808348
     84          6           0        3.630586    2.340937   -3.321008
     85          7           0        4.588454   -0.251947    0.943372
     86          6           0        5.064527   -1.408665    0.507823
     87          6           0        5.331092   -2.455272    1.622779
     88          6           0        4.309012   -1.895267    2.727594
     89          6           0        4.270446   -0.428466    2.303721
     90          6           0        2.907409   -2.467538    2.595779
     91          6           0        6.812574   -2.415385    2.138183
     92          6           0        7.225294   -3.609186    3.002038
     93          1           0        8.593910   -4.106762    2.893529
     94          7           0        3.928756    2.583409    1.828421
     95          6           0        3.821918    1.955652    3.018281
     96          6           0        3.571207    3.012986    4.009923
     97          6           0        3.374861    4.298202    3.285792
     98          6           0        3.356804    3.828345    1.915028
     99          6           0        3.614959    2.767225    5.490165
    100          6           0        3.215271    5.714014    3.750796
    101          8           0        2.818619    6.641712    2.960306
    102          6           0        3.447086    5.964443    5.180847
    103          7           0        3.170645    3.132730   -1.057880
    104          6           0        2.720847    4.269881   -0.498865
    105          6           0        2.221836    5.233664   -1.548859
    106          6           0        2.655204    4.601857   -2.952629
    107          6           0        3.278731    3.279948   -2.453475
    108          6           0        0.715543    5.493419   -1.551290
    109          6           0        3.493022    5.502486   -3.901109
    110          6           0        4.859143    5.751189   -3.303423
    111          7           0        4.609204    0.699497   -1.797674
    112          6           0        4.247770    1.116815   -3.097398
    113          6           0        4.603057    0.020204   -4.021320
    114          6           0        5.129573   -0.976181   -3.185570
    115          6           0        5.085600   -0.539945   -1.833805
    116          6           0        4.382524    0.012854   -5.427529
    117          6           0        5.702765   -2.302049   -3.138353
    118          8           0        6.062482   -3.123423   -3.980781
    119          6           0        5.748433   -2.779185   -1.622889
    120          6           0        7.116418   -3.344253   -1.354852
    121          8           0        8.121034   -2.612133   -1.391772
    122          8           0        6.990794   -4.600023   -0.888340
    123          6           0        8.320513   -5.199135   -0.597239
    124          1           0        3.486375    0.235828    4.204792
    125          1           0        2.461762    5.497954    0.999848
    126          1           0        3.560970    2.488226   -4.400883
    127          1           0        5.073258   -3.474287    1.360302
    128          1           0        4.718664   -1.991943    3.729690
    129          1           0        2.799786   -3.068657    1.705147
    130          1           0        2.243416   -1.613861    2.558569
    131          1           0        2.638737   -3.019094    3.501283
    132          1           0        6.914117   -1.607120    2.873814
    133          1           0        7.497832   -2.307301    1.320038
    134          1           0        6.508818   -4.436581    2.931104
    135          1           0        7.184437   -3.308525    4.051784
    136          1           0        3.617172    1.694570    5.719942
    137          1           0        2.667942    3.131472    5.902897
    138          1           0        4.438640    3.291007    5.979936
    139          1           0        2.764529    5.355926    5.769316
    140          1           0        3.373621    7.046757    5.303656
    141          1           0        4.460830    5.634520    5.433969
    142          1           0        2.692835    6.202823   -1.439300
    143          1           0        1.782178    4.326891   -3.562589
    144          1           0        0.456960    6.563368   -1.439873
    145          1           0        0.267162    4.909305   -0.758642
    146          1           0        0.186189    5.132992   -2.431671
    147          1           0        3.019274    6.481137   -4.010499
    148          1           0        3.611119    5.088741   -4.897024
    149          1           0        4.679412    6.581457   -2.613906
    150          1           0        5.571426    6.028441   -4.077915
    151          1           0        5.189917    4.893028   -2.706925
    152          1           0        5.280381   -0.385074   -5.881411
    153          1           0        4.156276    1.009887   -5.799710
    154          1           0        3.517459   -0.653138   -5.485813
    155          1           0        4.964115   -3.525463   -1.490618
    156          1           0        8.381073   -6.133282   -1.164149
    157          1           0        8.379624   -5.274021    0.504867
    158          1           0        9.196782   -4.674558   -0.959760
 ---------------------------------------------------------------------

 SCF Done:  E(RCAM-B3LYP) =  -4069.81185537     A.U. after   19 cycles

 Excitation energies and oscillator strengths:

 Excited State   1:      Singlet-A      1.6496 eV  751.61 nm  f=0.0274  <S**2>=0.000
     309 -> 315        0.11075
     310 -> 316        0.12591
     311 -> 313        0.45439
     312 -> 314        0.51607
 This state for optimization and/or second-order correction.
 Total Energy, E(TD-HF/TD-DFT) =  -4069.75123455
 Copying the excited state density for this state as the 1-particle RhoCI density.

 Excited State   2:      Singlet-A      1.7018 eV  728.54 nm  f=0.6693  <S**2>=0.000
     309 -> 315        0.13598
     310 -> 316       -0.11935
     311 -> 313        0.51353
     312 -> 314       -0.45216

 Excited State   3:      Singlet-A      2.1811 eV  568.44 nm  f=0.0232  <S**2>=0.000
     309 -> 313        0.30405
     310 -> 314        0.56914
     311 -> 315       -0.12572
     312 -> 316       -0.23644

 Excited State   4:      Singlet-A      2.1972 eV  564.29 nm  f=0.1532  <S**2>=0.000
     309 -> 313        0.56372
     310 -> 314       -0.29979
     311 -> 315       -0.24900
     312 -> 316        0.13369

 Excited State   5:      Singlet-A      2.3498 eV  527.63 nm  f=0.0000  <S**2>=0.000
     312 -> 313        0.70709

 The electronic state is 1-A.
 Alpha  occ. eigenvalues --  -46.87907 -46.87436 -19.26375 -19.26206 -19.19115
 Alpha  occ. eigenvalues --  -19.19014 -19.18875 -19.18464 -19.18247 -19.17894
 Alpha  occ. eigenvalues --  -14.42558 -14.42274 -14.41577 -14.41116 -14.39505
 Alpha  occ. eigenvalues --  -14.39126 -14.38693 -14.38391 -10.39174 -10.38940
 Alpha  occ. eigenvalues --  -10.35501 -10.35139 -10.34470 -10.34072 -10.31772
 Alpha  occ. eigenvalues --  -10.31631 -10.31512 -10.31115 -10.31004 -10.30794
 Alpha  occ. eigenvalues --  -10.30675 -10.30620 -10.30340 -10.30179 -10.30174
 Alpha  occ. eigenvalues --  -10.30061 -10.29882 -10.29727 -10.29638 -10.29354
 Alpha  occ. eigenvalues --  -10.29206 -10.29204 -10.28850 -10.28662 -10.28510
 Alpha  occ. eigenvalues --  -10.28498 -10.28457 -10.28211 -10.28188 -10.27932
 Alpha  occ. eigenvalues --  -10.27884 -10.27830 -10.27800 -10.27716 -10.27670
 Alpha  occ. eigenvalues --  -10.27648 -10.27509 -10.27506 -10.27457 -10.27287
 Alpha  occ. eigenvalues --  -10.27264 -10.27260 -10.27248 -10.27226 -10.26997
 Alpha  occ. eigenvalues --  -10.26878 -10.26824 -10.26516 -10.26506 -10.26379
 Alpha  occ. eigenvalues --  -10.26317 -10.26178 -10.26152 -10.25954 -10.25921
 Alpha  occ. eigenvalues --  -10.25776 -10.25769 -10.25717 -10.25607 -10.25116
 Alpha  occ. eigenvalues --  -10.24924 -10.24910 -10.24773 -10.24679 -10.24534
 Alpha  occ. eigenvalues --  -10.24427  -3.16650  -3.16186  -1.91531  -1.91118
 Alpha  occ. eigenvalues --   -1.91068  -1.90960  -1.90656  -1.90494  -1.16724
 Alpha  occ. eigenvalues --   -1.16499  -1.08705  -1.08510  -1.07277  -1.06799
 Alpha  occ. eigenvalues --   -1.06735  -1.06709  -1.04686  -1.04277  -1.03882
 Alpha  occ. eigenvalues --   -1.03435  -1.03342  -1.02805  -1.02523  -1.01884
 Alpha  occ. eigenvalues --   -0.92074  -0.91784  -0.89706  -0.89291  -0.89257
 Alpha  occ. eigenvalues --   -0.88942  -0.88466  -0.87972  -0.87934  -0.87785
 Alpha  occ. eigenvalues --   -0.87628  -0.87459  -0.87336  -0.86909  -0.85090
 Alpha  occ. eigenvalues --   -0.84787  -0.84147  -0.83585  -0.83048  -0.82739
 Alpha  occ. eigenvalues --   -0.82686  -0.82436  -0.81692  -0.81419  -0.80697
 Alpha  occ. eigenvalues --   -0.80243  -0.78876  -0.78437  -0.77357  -0.77060
 Alpha  occ. eigenvalues --   -0.76936  -0.76671  -0.76026  -0.75641  -0.75055
 Alpha  occ. eigenvalues --   -0.74469  -0.72891  -0.72491  -0.71789  -0.71313
 Alpha  occ. eigenvalues --   -0.70153  -0.69490  -0.68975  -0.68619  -0.67742
 Alpha  occ. eigenvalues --   -0.67381  -0.67312  -0.67000  -0.65400  -0.65070
 Alpha  occ. eigenvalues --   -0.64975  -0.64754  -0.64560  -0.64446  -0.64433
 Alpha  occ. eigenvalues --   -0.63947  -0.62410  -0.62093  -0.60536  -0.60103
 Alpha  occ. eigenvalues --   -0.59904  -0.59591  -0.59109  -0.58763  -0.58619
 Alpha  occ. eigenvalues --   -0.58208  -0.57682  -0.57436  -0.57386  -0.56997
 Alpha  occ. eigenvalues --   -0.56404  -0.56078  -0.56017  -0.55707  -0.55610
 Alpha  occ. eigenvalues --   -0.55503  -0.55256  -0.55003  -0.54676  -0.54248
 Alpha  occ. eigenvalues --   -0.53998  -0.53705  -0.53415  -0.53300  -0.53044
 Alpha  occ. eigenvalues --   -0.53014  -0.52937  -0.52827  -0.52703  -0.52677
 Alpha  occ. eigenvalues --   -0.52450  -0.52176  -0.52020  -0.51757  -0.51702
 Alpha  occ. eigenvalues --   -0.51461  -0.51325  -0.51011  -0.50622  -0.50251
 Alpha  occ. eigenvalues --   -0.50212  -0.49992  -0.49756  -0.49598  -0.49559
 Alpha  occ. eigenvalues --   -0.49304  -0.49274  -0.49193  -0.49011  -0.48901
 Alpha  occ. eigenvalues --   -0.48706  -0.48597  -0.48513  -0.48368  -0.48129
 Alpha  occ. eigenvalues --   -0.48062  -0.47804  -0.47395  -0.47375  -0.46939
 Alpha  occ. eigenvalues --   -0.46871  -0.46656  -0.46489  -0.46479  -0.46338
 Alpha  occ. eigenvalues --   -0.46290  -0.46056  -0.45931  -0.45844  -0.45635
 Alpha  occ. eigenvalues --   -0.45367  -0.44848  -0.44695  -0.44611  -0.44319
 Alpha  occ. eigenvalues --   -0.44298  -0.44262  -0.44187  -0.44096  -0.43922
 Alpha  occ. eigenvalues --   -0.43844  -0.43738  -0.43608  -0.43508  -0.43368
 Alpha  occ. eigenvalues --   -0.43153  -0.43151  -0.42895  -0.42783  -0.42759
 Alpha  occ. eigenvalues --   -0.42678  -0.42295  -0.42185  -0.41815  -0.41744
 Alpha  occ. eigenvalues --   -0.41649  -0.41457  -0.41256  -0.41240  -0.41022
 Alpha  occ. eigenvalues --   -0.40892  -0.40741  -0.40736  -0.40503  -0.40471
 Alpha  occ. eigenvalues --   -0.40340  -0.40213  -0.40024  -0.39712  -0.39172
 Alpha  occ. eigenvalues --   -0.38646  -0.38055  -0.37865  -0.37482  -0.37453
 Alpha  occ. eigenvalues --   -0.37367  -0.37027  -0.36986  -0.36835  -0.36588
 Alpha  occ. eigenvalues --   -0.36325  -0.35963  -0.34398  -0.34033  -0.33867
 Alpha  occ. eigenvalues --   -0.33700  -0.33297  -0.32956  -0.31410  -0.31146
 Alpha  occ. eigenvalues --   -0.31019  -0.30742  -0.30108  -0.29802  -0.29535
 Alpha  occ. eigenvalues --   -0.29415  -0.29118  -0.29019  -0.24193  -0.23812
 Alpha  occ. eigenvalues --   -0.21238  -0.20894
 Alpha virt. eigenvalues --   -0.08873  -0.08577  -0.01865  -0.01443  -0.00134
 Alpha virt. eigenvalues --    0.00191   0.02100   0.02387   0.02822   0.03496
 Alpha virt. eigenvalues --    0.04600   0.04943   0.05003   0.05321   0.06050

 Mulliken charges:
               1
     1  Mg   0.838766
     2  C   -0.002830
     3  C   -0.093631
     4  C   -0.046417
     5  C   -0.064418
     6  N   -0.256658
     7  C   -0.052630
     8  C   -0.013975
     9  C   -0.087080
    10  C    0.046269
    11  C    0.104716
    12  C    0.053483
    13  C   -0.071602
    14  H    0.034973
    15  N   -0.433278
    16  C    0.168571
    17  C   -0.176390
    18  C   -0.003585
    19  C    0.148701
    20  C    0.109932
    21  C    0.012221
    22  O   -0.250410
    23  C    0.062170
    24  N   -0.340891
    25  C    0.041223
    26  C   -0.028312
    27  C   -0.023754
    28  C    0.074131
    29  C    0.076114
    30  C    0.035735
    31  C   -0.006315
    32  N   -0.310485
    33  C    0.080147
    34  C   -0.169875
    35  C    0.008721
    36  C    0.082968
    37  C    0.127306
    38  C    0.046416
    39  O   -0.187938
    40  C   -0.005530
    41  C    0.213234
    42  O   -0.257332
    43  O   -0.304679
    44  C    0.157552
    45  H   -0.017063
    46  H   -0.017182
    47  H   -0.042245
    48  H    0.001150
    49  H   -0.003771
    50  H    0.025583
    51  H    0.016546
    52  H    0.017020
    53  H    0.011271
    54  H    0.043421
    55  H    0.018379
    56  H    0.018255
    57  H    0.005951
    58  H    0.027225
    59  H    0.041249
    60  H    0.037431
    61  H    0.036486
    62  H    0.033485
    63  H    0.015373
    64  H    0.009855
    65  H    0.023034
    66  H    0.013278
    67  H    0.004899
    68  H    0.005816
    69  H    0.004658
    70  H    0.008687
    71  H    0.014371
    72  H    0.031079
    73  H    0.047842
    74  H    0.008170
    75  H    0.046182
    76  H    0.035356
    77  H    0.043460
    78  H    0.046131
    79  H    0.053534
    80  Mg   0.837594
    81  C   -0.017217
    82  C   -0.088078
    83  C   -0.043516
    84  C   -0.065075
    85  N   -0.254771
    86  C   -0.050030
    87  C   -0.015121
    88  C   -0.091230
    89  C    0.046122
    90  C    0.113549
    91  C    0.062615
    92  C   -0.077689
    93  H    0.034089
    94  N   -0.423891
    95  C    0.163769
    96  C   -0.174210
    97  C   -0.006427
    98  C    0.152252
    99  C    0.099258
   100  C    0.016317
   101  O   -0.251619
   102  C    0.061164
   103  N   -0.350109
   104  C    0.038930
   105  C   -0.020802
   106  C   -0.033681
   107  C    0.088811
   108  C    0.072135
   109  C    0.034783
   110  C   -0.007445
   111  N   -0.323782
   112  C    0.078114
   113  C   -0.164245
   114  C    0.001489
   115  C    0.095947
   116  C    0.131774
   117  C    0.041178
   118  O   -0.189744
   119  C    0.001255
   120  C    0.210989
   121  O   -0.251302
   122  O   -0.305396
   123  C    0.152293
   124  H   -0.020289
   125  H   -0.013607
   126  H   -0.041768
   127  H   -0.000043
   128  H   -0.005175
   129  H    0.024454
   130  H    0.014928
   131  H    0.016468
   132  H    0.013605
   133  H    0.037376
   134  H    0.021237
   135  H    0.019166
   136  H    0.007914
   137  H    0.026591
   138  H    0.039482
   139  H    0.038536
   140  H    0.036560
   141  H    0.033037
   142  H    0.013434
   143  H    0.011620
   144  H    0.024527
   145  H    0.021162
   146  H    0.006386
   147  H    0.005941
   148  H    0.002176
   149  H    0.011111
   150  H    0.016891
   151  H    0.029991
   152  H    0.045339
   153  H    0.008070
   154  H    0.044467
   155  H    0.034874
   156  H    0.043435
   157  H    0.049639
   158  H    0.053165
 Sum of Mulliken charges =  -0.00000

 Dipole moment (field-independent basis, Debye):
    X=             -3.4035    Y=             -2.8621    Z=              0.5316  Tot=              4.4786
 Quadrupole moment (field-independent basis, Debye-Ang):
   XX=           -529.0788   YY=           -538.1347   ZZ=           -453.1202
   XY=             19.8642   XZ=             54.6258   YZ=            -31.2674

 Normal termination of Gaussian 16 at Thu Aug 19 19:31:42 2021.
