 Gaussian 16, Revision A.03,
 Gaussian 16:  ES64L-G16RevA.03 25-Dec-2016

 --------------------------------------------------------
 #p PBE1PBE/Def2SVP td=(nstates=5) density=(transition=1)
 --------------------------------------------------------

 --------------------------------
 TDDFT excited states in gaussian
 --------------------------------
 Symbolic Z-matrix:
 Charge =  0 Multiplicity = 1

                         Standard orientation:
 ---------------------------------------------------------------------
 Center     Atomic      Atomic             Coordinates (Angstroms)
 Number     Number       Type             X           Y           Z
 ---------------------------------------------------------------------
      1         12           0       18.072264   -0.639803    0.006077
      2          6           0       15.956251    1.958076    0.485904
      3          6           0       20.783331    1.494743    0.404291
      4          6           0       20.188434   -3.237294   -0.480061
      5          6           0       15.399470   -2.656499   -0.872646
      6          7           0       18.262002    1.399455    0.494933
      7          6           0       17.279890    2.326966    0.623642
      8          6           0       17.797422    3.645908    1.135455
      9          6           0       19.342956    3.564422    0.838484
     10          6           0       19.479467    2.026942    0.586931
     11          6           0       19.995528    4.488812   -0.272558
     12          6           0       17.550085    3.810684    2.702437
     13          6           0       17.503698    5.302879    3.145198
     14          1           0       18.250900    6.402964    2.372768
     15          7           0       20.221198   -0.873537   -0.119740
     16          6           0       21.148187    0.179326    0.097896
     17          6           0       22.481870   -0.332227   -0.001602
     18          6           0       22.342463   -1.738294   -0.281773
     19          6           0       20.855462   -1.980643   -0.282721
     20          6           0       23.715929    0.462487    0.245897
     21          6           0       23.422747   -2.792243   -0.497550
     22          8           0       23.224361   -3.990563   -0.854557
     23          6           0       24.881072   -2.415207   -0.299223
     24          7           0       17.849486   -2.628571   -0.652912
     25          6           0       18.861607   -3.587994   -0.595530
     26          6           0       18.365739   -5.060029   -0.687714
     27          6           0       16.761796   -4.778742   -0.765323
     28          6           0       16.628748   -3.300165   -0.736922
     29          6           0       18.958497   -5.710370   -1.944352
     30          6           0       15.956789   -5.495549    0.278266
     31          6           0       14.867992   -6.358363   -0.292726
     32          7           0       16.144318   -0.481696   -0.291268
     33          6           0       15.123338   -1.364415   -0.620929
     34          6           0       13.878641   -0.689459   -0.631520
     35          6           0       14.118920    0.656581   -0.245395
     36          6           0       15.495073    0.723621    0.058324
     37          6           0       12.529626   -1.222900   -0.927350
     38          6           0       13.527814    1.969814   -0.109578
     39          8           0       12.423903    2.440701   -0.302209
     40          6           0       14.748584    2.839746    0.455636
     41          6           0       14.792657    4.203389   -0.134049
     42          8           0       14.633332    4.491676   -1.292635
     43          8           0       15.000336    5.168714    0.774921
     44          6           0       15.063941    6.545783    0.207780
     45          1           0       21.549685    2.272134    0.371575
     46          1           0       20.881329   -4.031751   -0.764705
     47          1           0       14.494645   -3.248026   -1.026578
     48          1           0       17.455079    4.488743    0.535248
     49          1           0       19.878456    3.738873    1.771156
     50          1           0       19.218360    5.167258   -0.624634
     51          1           0       20.455124    4.000724   -1.130539
     52          1           0       20.818858    5.016041    0.209747
     53          1           0       18.363280    3.247848    3.161063
     54          1           0       16.596359    3.333856    2.928918
     55          1           0       17.878949    5.249962    4.167364
     56          1           0       16.448880    5.550504    3.261142
     57          1           0       23.999809    0.585307    1.291138
     58          1           0       23.540849    1.421533   -0.240011
     59          1           0       24.566997    0.129133   -0.347212
     60          1           0       25.198565   -1.954195   -1.234389
     61          1           0       25.399056   -3.365279   -0.170566
     62          1           0       25.051982   -1.714054    0.517837
     63          1           0       18.775115   -5.568959    0.185009
     64          1           0       16.396430   -5.137423   -1.728181
     65          1           0       19.484982   -5.040415   -2.624433
     66          1           0       18.188889   -6.314175   -2.424624
     67          1           0       19.744435   -6.376978   -1.588162
     68          1           0       15.421953   -4.821383    0.947388
     69          1           0       16.540411   -6.122783    0.952227
     70          1           0       14.855654   -7.364629    0.125078
     71          1           0       14.972792   -6.467815   -1.371815
     72          1           0       13.960704   -5.772023   -0.144406
     73          1           0       12.485520   -2.044339   -1.643087
     74          1           0       12.083149   -0.438218   -1.538793
     75          1           0       12.017325   -1.476572    0.000773
     76          1           0       14.370518    2.937962    1.473657
     77          1           0       14.073741    6.939030   -0.026705
     78          1           0       15.788778    6.619831   -0.603089
     79          1           0       15.465824    7.208736    0.974386
     80         12           0      -18.232559   -0.573931    0.103607
     81          6           0      -17.596948    2.781663   -0.533930
     82          6           0      -17.200570   -0.037967    3.331746
     83          6           0      -18.607177   -3.955305    0.687447
     84          6           0      -18.723171   -1.175036   -3.294709
     85          7           0      -17.581910    1.202108    1.264450
     86          6           0      -17.498511    2.478490    0.851990
     87          6           0      -17.212614    3.505768    1.972076
     88          6           0      -16.848325    2.540513    3.180149
     89          6           0      -17.186968    1.098074    2.566982
     90          6           0      -15.345833    2.763396    3.578659
     91          6           0      -18.563171    4.365055    2.181531
     92          6           0      -18.422291    5.913603    2.099362
     93          1           0      -16.959473    6.436856    2.336241
     94          7           0      -17.892065   -1.870545    1.722095
     95          6           0      -17.540570   -1.414480    3.009401
     96          6           0      -17.667375   -2.514199    3.941852
     97          6           0      -18.017177   -3.653031    3.205361
     98          6           0      -18.273701   -3.181701    1.794115
     99          6           0      -17.139762   -2.403429    5.379395
    100          6           0      -18.169507   -5.111111    3.713978
    101          8           0      -18.490381   -6.086244    3.009164
    102          6           0      -17.986704   -5.377701    5.218021
    103          7           0      -18.534960   -2.296896   -1.182833
    104          6           0      -18.712497   -3.601666   -0.629948
    105          6           0      -18.810421   -4.652387   -1.755654
    106          6           0      -19.131238   -3.709002   -3.007084
    107          6           0      -18.820294   -2.293221   -2.454557
    108          6           0      -17.532990   -5.474834   -1.794172
    109          6           0      -20.653904   -3.815835   -3.440815
    110          6           0      -21.881855   -3.630749   -2.485583
    111          7           0      -18.107829    0.502218   -1.586195
    112          6           0      -18.313940    0.145582   -2.922406
    113          6           0      -18.151390    1.301526   -3.743080
    114          6           0      -17.917895    2.351384   -2.873285
    115          6           0      -17.791857    1.819108   -1.566327
    116          6           0      -18.168749    1.366075   -5.256652
    117          6           0      -17.700881    3.742264   -2.810150
    118          8           0      -17.574967    4.493115   -3.724401
    119          6           0      -17.366465    4.051899   -1.292341
    120          6           0      -15.925119    4.479598   -1.264369
    121          8           0      -15.018950    3.784763   -0.854302
    122          8           0      -15.860826    5.706060   -1.796043
    123          6           0      -14.534480    6.056292   -2.241881
    124          1           0      -16.952147    0.137598    4.380287
    125          1           0      -18.485426   -5.029303    0.838547
    126          1           0      -18.862748   -1.348867   -4.364196
    127          1           0      -16.416022    4.217371    1.755753
    128          1           0      -17.472902    2.659036    4.065861
    129          1           0      -14.778265    1.852577    3.770859
    130          1           0      -15.502668    3.349871    4.483507
    131          1           0      -14.919396    3.430618    2.829994
    132          1           0      -19.027176    4.011958    3.102228
    133          1           0      -19.253886    4.052179    1.398126
    134          1           0      -19.098746    6.223044    2.895339
    135          1           0      -18.766742    6.358640    1.166345
    136          1           0      -16.417197   -3.208395    5.516035
    137          1           0      -17.952558   -2.605979    6.078141
    138          1           0      -16.708547   -1.415974    5.541032
    139          1           0      -16.919074   -5.292091    5.424539
    140          1           0      -18.227278   -6.431370    5.358474
    141          1           0      -18.731821   -4.816007    5.780873
    142          1           0      -19.718806   -5.211704   -1.529930
    143          1           0      -18.577955   -4.053020   -3.880197
    144          1           0      -17.045260   -5.554262   -0.822483
    145          1           0      -16.819226   -5.041735   -2.494562
    146          1           0      -17.746431   -6.507305   -2.070077
    147          1           0      -20.779855   -4.761663   -3.967831
    148          1           0      -20.762813   -2.970488   -4.120295
    149          1           0      -22.116605   -4.598202   -2.041477
    150          1           0      -22.697303   -3.295978   -3.127803
    151          1           0      -21.801605   -2.830928   -1.748719
    152          1           0      -19.117500    1.027603   -5.673467
    153          1           0      -17.377912    0.677400   -5.553281
    154          1           0      -18.123414    2.367095   -5.687898
    155          1           0      -17.921831    4.851849   -0.802368
    156          1           0      -14.519384    6.731674   -3.096972
    157          1           0      -13.756583    5.303995   -2.371597
    158          1           0      -13.969497    6.633258   -1.509437
 ---------------------------------------------------------------------

 SCF Done:  E(RPBE1PBE) =  -4067.38222290     A.U. after   17 cycles

 Excitation energies and oscillator strengths:

 Excited State   1:      Singlet-A      1.8022 eV  687.94 nm  f=0.3717  <S**2>=0.000
     309 -> 315       -0.16351
     311 -> 313        0.69743
     311 <- 313       -0.11963
 This state for optimization and/or second-order correction.
 Total Energy, E(TD-HF/TD-DFT) =  -4067.31599172
 Copying the excited state density for this state as the 1-particle RhoCI density.

 Excited State   2:      Singlet-A      1.8517 eV  669.58 nm  f=0.0000  <S**2>=0.000
     312 -> 313        0.70710

 Excited State   3:      Singlet-A      1.8556 eV  668.16 nm  f=0.3747  <S**2>=0.000
     310 -> 316       -0.16968
     312 -> 314        0.69321
     312 <- 314       -0.10777

 Excited State   4:      Singlet-A      2.0045 eV  618.52 nm  f=0.0000  <S**2>=0.000
     311 -> 314        0.70711

 Excited State   5:      Singlet-A      2.2176 eV  559.08 nm  f=0.1165  <S**2>=0.000
     309 -> 313        0.65141
     311 -> 315        0.25932

 The electronic state is 1-A.
 Alpha  occ. eigenvalues --  -46.91438 -46.90558 -19.26650 -19.25771 -19.20136
 Alpha  occ. eigenvalues --  -19.19427 -19.19310 -19.18971 -19.18964 -19.18717
 Alpha  occ. eigenvalues --  -14.42282 -14.41674 -14.41293 -14.40900 -14.39281
 Alpha  occ. eigenvalues --  -14.39126 -14.38610 -14.38488 -10.36168 -10.35573
 Alpha  occ. eigenvalues --  -10.32408 -10.32332 -10.32259 -10.31703 -10.29271
 Alpha  occ. eigenvalues --  -10.29152 -10.29110 -10.28664 -10.28453 -10.28450
 Alpha  occ. eigenvalues --  -10.28237 -10.28198 -10.28174 -10.27724 -10.27702
 Alpha  occ. eigenvalues --  -10.27637 -10.27587 -10.27552 -10.27529 -10.27338
 Alpha  occ. eigenvalues --  -10.26866 -10.26671 -10.26510 -10.26340 -10.26319
 Alpha  occ. eigenvalues --  -10.26299 -10.26231 -10.26078 -10.25998 -10.25861
 Alpha  occ. eigenvalues --  -10.25630 -10.25577 -10.25549 -10.25498 -10.25483
 Alpha  occ. eigenvalues --  -10.25476 -10.25457 -10.25356 -10.25350 -10.25296
 Alpha  occ. eigenvalues --  -10.25220 -10.25211 -10.25065 -10.24885 -10.24691
 Alpha  occ. eigenvalues --  -10.24678 -10.24562 -10.24300 -10.24249 -10.24227
 Alpha  occ. eigenvalues --  -10.24119 -10.23642 -10.23473 -10.23297 -10.23262
 Alpha  occ. eigenvalues --  -10.23218 -10.23164 -10.23097 -10.22998 -10.22987
 Alpha  occ. eigenvalues --  -10.22978 -10.22977 -10.22885 -10.22747 -10.22554
 Alpha  occ. eigenvalues --  -10.22101  -3.13618  -3.12987  -1.86460  -1.85970
 Alpha  occ. eigenvalues --   -1.85864  -1.85821  -1.85342  -1.85258  -1.12796
 Alpha  occ. eigenvalues --   -1.12073  -1.06542  -1.04867  -1.03738  -1.03170
 Alpha  occ. eigenvalues --   -1.02080  -1.02071  -0.99092  -0.98646  -0.98228
 Alpha  occ. eigenvalues --   -0.97854  -0.97342  -0.97252  -0.96039  -0.95952
 Alpha  occ. eigenvalues --   -0.87724  -0.86975  -0.84011  -0.83092  -0.82899
 Alpha  occ. eigenvalues --   -0.82827  -0.82307  -0.82016  -0.81993  -0.81521
 Alpha  occ. eigenvalues --   -0.81286  -0.80775  -0.80706  -0.80333  -0.78650
 Alpha  occ. eigenvalues --   -0.78147  -0.78072  -0.77589  -0.76750  -0.76498
 Alpha  occ. eigenvalues --   -0.75877  -0.75443  -0.75383  -0.75153  -0.74748
 Alpha  occ. eigenvalues --   -0.74160  -0.72597  -0.72101  -0.72020  -0.71637
 Alpha  occ. eigenvalues --   -0.71342  -0.70972  -0.70833  -0.70058  -0.69583
 Alpha  occ. eigenvalues --   -0.69310  -0.67331  -0.67310  -0.66286  -0.65602
 Alpha  occ. eigenvalues --   -0.63496  -0.63196  -0.63043  -0.63028  -0.62570
 Alpha  occ. eigenvalues --   -0.62277  -0.61102  -0.60828  -0.60267  -0.60220
 Alpha  occ. eigenvalues --   -0.59783  -0.59312  -0.59030  -0.58981  -0.58669
 Alpha  occ. eigenvalues --   -0.58352  -0.56891  -0.56872  -0.54870  -0.54436
 Alpha  occ. eigenvalues --   -0.54406  -0.53885  -0.53537  -0.53502  -0.52992
 Alpha  occ. eigenvalues --   -0.52710  -0.52553  -0.52530  -0.52304  -0.51788
 Alpha  occ. eigenvalues --   -0.50675  -0.50648  -0.50263  -0.49862  -0.49735
 Alpha  occ. eigenvalues --   -0.49572  -0.49466  -0.48990  -0.48509  -0.48460
 Alpha  occ. eigenvalues --   -0.47954  -0.47761  -0.47720  -0.47601  -0.47467
 Alpha  occ. eigenvalues --   -0.47086  -0.46978  -0.46888  -0.46767  -0.46664
 Alpha  occ. eigenvalues --   -0.46595  -0.46480  -0.46338  -0.46167  -0.45883
 Alpha  occ. eigenvalues --   -0.45734  -0.45525  -0.45045  -0.44973  -0.44641
 Alpha  occ. eigenvalues --   -0.44417  -0.44392  -0.44365  -0.44230  -0.44014
 Alpha  occ. eigenvalues --   -0.43782  -0.43577  -0.43490  -0.43459  -0.43241
 Alpha  occ. eigenvalues --   -0.43069  -0.42929  -0.42843  -0.42683  -0.42562
 Alpha  occ. eigenvalues --   -0.42408  -0.42368  -0.42135  -0.41994  -0.41823
 Alpha  occ. eigenvalues --   -0.41649  -0.41389  -0.41327  -0.41307  -0.41041
 Alpha  occ. eigenvalues --   -0.40989  -0.40894  -0.40671  -0.40380  -0.40221
 Alpha  occ. eigenvalues --   -0.39974  -0.39731  -0.39706  -0.39625  -0.39550
 Alpha  occ. eigenvalues --   -0.39464  -0.39352  -0.39198  -0.38904  -0.38854
 Alpha  occ. eigenvalues --   -0.38697  -0.38426  -0.38390  -0.38341  -0.38109
 Alpha  occ. eigenvalues --   -0.38108  -0.37985  -0.37839  -0.37714  -0.37446
 Alpha  occ. eigenvalues --   -0.37231  -0.37211  -0.37136  -0.36834  -0.36795
 Alpha  occ. eigenvalues --   -0.36771  -0.36591  -0.36266  -0.36176  -0.35905
 Alpha  occ. eigenvalues --   -0.35732  -0.35663  -0.35604  -0.35330  -0.35281
 Alpha  occ. eigenvalues --   -0.35259  -0.35136  -0.34955  -0.34455  -0.34050
 Alpha  occ. eigenvalues --   -0.33231  -0.32978  -0.32643  -0.32635  -0.32429
 Alpha  occ. eigenvalues --   -0.32231  -0.32043  -0.32041  -0.31889  -0.31590
 Alpha  occ. eigenvalues --   -0.31499  -0.31162  -0.29820  -0.29564  -0.29391
 Alpha  occ. eigenvalues --   -0.29143  -0.28416  -0.28219  -0.27093  -0.26993
 Alpha  occ. eigenvalues --   -0.26099  -0.25934  -0.25543  -0.25515  -0.25428
 Alpha  occ. eigenvalues --   -0.25427  -0.25188  -0.25126  -0.21189  -0.20640
 Alpha  occ. eigenvalues --   -0.18696  -0.18567
 Alpha virt. eigenvalues --   -0.11396  -0.10963  -0.05126  -0.04879  -0.04081
 Alpha virt. eigenvalues --   -0.03589  -0.02128  -0.01872  -0.00288   0.00121
 Alpha virt. eigenvalues --    0.00590   0.00847   0.01202   0.01256   0.01659

 Mulliken charges:
               1
     1  Mg  12.004244
     2  C    5.978510
     3  C    5.999517
     4  C    6.030839
     5  C    6.015464
     6  N    6.985646
     7  C    6.031718
     8  C    5.988183
     9  C    6.009569
    10  C    5.968570
    11  C    6.004446
    12  C    5.997431
    13  C    5.999933
    14  H    1.005862
    15  N    7.003489
    16  C    5.961981
    17  C    5.986286
    18  C    5.978870
    19  C    5.970034
    20  C    6.003555
    21  C    5.986479
    22  O    7.962573
    23  C    6.004859
    24  N    7.019712
    25  C    5.967215
    26  C    6.009367
    27  C    5.988557
    28  C    6.018065
    29  C    5.999824
    30  C    5.993727
    31  C    5.999746
    32  N    6.997271
    33  C    6.019455
    34  C    6.034876
    35  C    6.000736
    36  C    6.029309
    37  C    5.997066
    38  C    6.013775
    39  O    8.023461
    40  C    6.003503
    41  C    6.003276
    42  O    8.002090
    43  O    8.001993
    44  C    5.998593
    45  H    0.985269
    46  H    1.001383
    47  H    1.014919
    48  H    0.999185
    49  H    0.996503
    50  H    0.985136
    51  H    1.000533
    52  H    0.996768
    53  H    1.011075
    54  H    0.992811
    55  H    1.002260
    56  H    0.995677
    57  H    0.981808
    58  H    0.987198
    59  H    0.986260
    60  H    0.989901
    61  H    0.985671
    62  H    0.993040
    63  H    1.003689
    64  H    1.004135
    65  H    1.004916
    66  H    0.992572
    67  H    1.005122
    68  H    0.998224
    69  H    1.012418
    70  H    1.007106
    71  H    1.003889
    72  H    0.995989
    73  H    1.016612
    74  H    1.015389
    75  H    1.021219
    76  H    1.003557
    77  H    1.000415
    78  H    1.004961
    79  H    1.004710
    80  Mg  12.000001
    81  C    6.000035
    82  C    5.999953
    83  C    6.000040
    84  C    6.000066
    85  N    6.999988
    86  C    5.999983
    87  C    5.999987
    88  C    6.000024
    89  C    5.999977
    90  C    5.999990
    91  C    5.999984
    92  C    6.000014
    93  H    0.999895
    94  N    6.999995
    95  C    5.999967
    96  C    6.000019
    97  C    5.999980
    98  C    6.000003
    99  C    6.000012
   100  C    5.999982
   101  O    8.000028
   102  C    6.000003
   103  N    6.999998
   104  C    6.000003
   105  C    6.000010
   106  C    5.999966
   107  C    5.999985
   108  C    6.000007
   109  C    5.999984
   110  C    5.999974
   111  N    7.000008
   112  C    5.999964
   113  C    6.000036
   114  C    5.999969
   115  C    5.999948
   116  C    5.999986
   117  C    6.000045
   118  O    8.000005
   119  C    5.999999
   120  C    5.999978
   121  O    7.999901
   122  O    8.000044
   123  C    6.000087
   124  H    0.999989
   125  H    1.000014
   126  H    1.000033
   127  H    0.999943
   128  H    1.000058
   129  H    0.999890
   130  H    1.000025
   131  H    0.999911
   132  H    1.000059
   133  H    1.000052
   134  H    1.000083
   135  H    1.000041
   136  H    0.999922
   137  H    1.000076
   138  H    0.999953
   139  H    0.999918
   140  H    1.000050
   141  H    1.000074
   142  H    1.000077
   143  H    0.999979
   144  H    0.999941
   145  H    0.999913
   146  H    1.000039
   147  H    1.000049
   148  H    1.000026
   149  H    1.000048
   150  H    1.000091
   151  H    1.000001
   152  H    1.000094
   153  H    0.999929
   154  H    1.000021
   155  H    1.000061
   156  H    1.000022
   157  H    0.999854
   158  H    0.999937
 Sum of Mulliken charges = 624.00000

 Dipole moment (field-independent basis, Debye):
    X=            -10.4087    Y=             -0.3262    Z=             -0.5570  Tot=             10.4287
 Quadrupole moment (field-independent basis, Debye-Ang):
   XX=           -380.5357   YY=              3.2171   ZZ=              0.6567
   XY=              2.0839   XZ=             -6.2348   YZ=              0.2831

 Normal termination of Gaussian 16 at Fri Oct 15 02:28:23 2021.
