 Gaussian 16, Revision A.03,
 Gaussian 16:  ES64L-G16RevA.03 25-Dec-2016

 ---------------------------------------------------------
 #p PBE1PBE/Def2SVP td=(nstates=5, root=1) density=current
 ---------------------------------------------------------

 --------------------------------
 TDDFT excited states in gaussian
 --------------------------------
 Symbolic Z-matrix:
 Charge =  0 Multiplicity = 1

                         Standard orientation:
 ---------------------------------------------------------------------
 Center     Atomic      Atomic             Coordinates (Angstroms)
 Number     Number       Type             X           Y           Z
 ---------------------------------------------------------------------
      1         12           0       -0.920383    0.042895    0.177975
      2          6           0        2.791825    0.211858    0.244848
      3          6           0       -0.433397   -3.278433   -0.216410
      4          6           0       -4.072715    0.052749   -0.154184
      5          6           0       -0.834378    3.579602   -0.219802
      6          7           0        0.964775   -1.318523   -0.014897
      7          6           0        2.300370   -1.044215    0.226167
      8          6           0        3.188547   -2.283812    0.382901
      9          6           0        2.218715   -3.345403   -0.221910
     10          6           0        0.809315   -2.638321   -0.170559
     11          6           0        2.555927   -3.801702   -1.606463
     12          6           0        3.735834   -2.595648    1.816129
     13          6           0        5.055860   -3.282148    1.930012
     14          1           0        5.168797   -4.294451    3.065487
     15          7           0       -2.151544   -1.449913   -0.103896
     16          6           0       -1.786892   -2.809891   -0.189369
     17          6           0       -2.993687   -3.585419   -0.181206
     18          6           0       -4.048395   -2.588391   -0.001777
     19          6           0       -3.431840   -1.313308   -0.078273
     20          6           0       -3.058914   -5.157504   -0.169312
     21          6           0       -5.499690   -2.894255    0.209193
     22          8           0       -6.365641   -1.989659    0.294273
     23          6           0       -6.023617   -4.272724    0.385035
     24          7           0       -2.282271    1.528870   -0.298645
     25          6           0       -3.593629    1.290501   -0.365494
     26          6           0       -4.458745    2.568988   -0.606552
     27          6           0       -3.408763    3.653805   -0.160821
     28          6           0       -2.058766    2.893465   -0.269998
     29          6           0       -4.860176    2.737042   -2.107355
     30          6           0       -3.640244    4.139497    1.331570
     31          6           0       -5.029894    4.662685    1.751741
     32          7           0        0.623546    1.604118    0.081612
     33          6           0        0.461045    2.981447   -0.014776
     34          6           0        1.755361    3.621372   -0.045750
     35          6           0        2.686251    2.583753    0.091336
     36          6           0        1.969346    1.355791    0.079784
     37          6           0        2.029393    5.087704   -0.056370
     38          6           0        4.110783    2.296613    0.196987
     39          8           0        5.115804    2.992516    0.257038
     40          6           0        4.160782    0.693597    0.395069
     41          6           0        5.118152    0.208975   -0.584369
     42          8           0        5.025674    0.288288   -1.819455
     43          8           0        6.317599    0.054151    0.049566
     44          6           0        7.459774   -0.355151   -0.703009
     45          1           0       -0.207888   -4.346785   -0.192330
     46          1           0       -5.157600    0.102624   -0.266523
     47          1           0       -0.873438    4.665833   -0.328424
     48          1           0        4.036177   -2.156584   -0.290813
     49          1           0        2.100904   -4.187648    0.459242
     50          1           0        1.828094   -3.344743   -2.276977
     51          1           0        2.415104   -4.879830   -1.681977
     52          1           0        3.548811   -3.559666   -1.985033
     53          1           0        3.020164   -3.270259    2.285175
     54          1           0        3.715486   -1.663117    2.379469
     55          1           0        5.751737   -2.463608    2.112890
     56          1           0        5.428937   -3.635655    0.968692
     57          1           0       -3.336759   -5.609240    0.782508
     58          1           0       -2.135071   -5.596294   -0.545293
     59          1           0       -3.825522   -5.341982   -0.922919
     60          1           0       -6.035757   -4.759940   -0.590275
     61          1           0       -7.038198   -4.153631    0.766197
     62          1           0       -5.398523   -4.746147    1.141424
     63          1           0       -5.335774    2.457908    0.031977
     64          1           0       -3.340854    4.535174   -0.797813
     65          1           0       -5.940376    2.596460   -2.153476
     66          1           0       -4.336593    2.095459   -2.815367
     67          1           0       -4.618520    3.786922   -2.279033
     68          1           0       -2.979671    4.984586    1.523927
     69          1           0       -3.284737    3.330031    1.968881
     70          1           0       -5.333017    4.009591    2.569946
     71          1           0       -5.657878    4.473639    0.880638
     72          1           0       -5.003297    5.697515    2.092763
     73          1           0        1.068722    5.541647    0.187917
     74          1           0        2.325552    5.329957   -1.076970
     75          1           0        2.844355    5.393279    0.599777
     76          1           0        4.489658    0.462026    1.407978
     77          1           0        7.211680   -0.535573   -1.749185
     78          1           0        7.760362   -1.306210   -0.263248
     79          1           0        8.299256    0.321006   -0.547583
 ---------------------------------------------------------------------

 SCF Done:  E(RPBE1PBE) =  -2033.68549763     A.U. after   16 cycles

 Excitation energies and oscillator strengths:

 Excited State   1:      Singlet-A      1.8203 eV  681.11 nm  f=0.3640  <S**2>=0.000
     155 ->158        -0.15141
     156 ->157         0.70054
     156 <-157        -0.12602
 This state for optimization and/or second-order correction.
 Total Energy, E(TD-HF/TD-DFT) =  -2033.61860144
 Copying the excited state density for this state as the 1-particle RhoCI density.

 Excited State   2:      Singlet-A      2.1897 eV  566.23 nm  f=0.2005  <S**2>=0.000
     155 ->157         0.67308
     156 ->158         0.20145

 Excited State   3:      Singlet-A      2.6640 eV  465.41 nm  f=0.0002  <S**2>=0.000
     154 ->157         0.68758
     154 ->159         0.11242
     154 ->160        -0.10075

 Excited State   4:      Singlet-A      2.8742 eV  431.37 nm  f=0.0068  <S**2>=0.000
     151 ->157         0.12149
     153 ->157         0.68695

 Excited State   5:      Singlet-A      2.9811 eV  415.91 nm  f=0.0017  <S**2>=0.000
     151 ->157         0.57448
     151 ->159        -0.13151
     152 ->157         0.36720

 The electronic state is 1-A.
 Alpha  occ. eigenvalues --  -46.92333 -19.25378 -19.20038 -19.19552 -19.17798
 Alpha  occ. eigenvalues --  -14.41672 -14.41090 -14.39411 -14.39218 -10.36037
 Alpha  occ. eigenvalues --  -10.33050 -10.31232 -10.29122 -10.28574 -10.28443
 Alpha  occ. eigenvalues --  -10.28377 -10.28321 -10.28283 -10.27996 -10.27654
 Alpha  occ. eigenvalues --  -10.26860 -10.26717 -10.26394 -10.26065 -10.26028
 Alpha  occ. eigenvalues --  -10.26015 -10.25771 -10.25735 -10.25509 -10.25460
 Alpha  occ. eigenvalues --  -10.25251 -10.25127 -10.25033 -10.24595 -10.24574
 Alpha  occ. eigenvalues --  -10.24053 -10.23584 -10.23490 -10.23471 -10.23186
 Alpha  occ. eigenvalues --  -10.23154 -10.23084 -10.22874  -3.14570  -1.87379
 Alpha  occ. eigenvalues --   -1.86941  -1.86816  -1.11223  -1.04892  -1.02283
 Alpha  occ. eigenvalues --   -1.01714  -0.99672  -0.98606  -0.98351  -0.97169
 Alpha  occ. eigenvalues --   -0.87978  -0.83753  -0.83135  -0.82381  -0.81808
 Alpha  occ. eigenvalues --   -0.81165  -0.80546  -0.78992  -0.78312  -0.77423
 Alpha  occ. eigenvalues --   -0.76373  -0.75477  -0.75109  -0.72901  -0.71750
 Alpha  occ. eigenvalues --   -0.71610  -0.70554  -0.69833  -0.67772  -0.65370
 Alpha  occ. eigenvalues --   -0.63654  -0.63044  -0.62563  -0.61416  -0.60095
 Alpha  occ. eigenvalues --   -0.59596  -0.59506  -0.58981  -0.56583  -0.55413
 Alpha  occ. eigenvalues --   -0.54354  -0.53976  -0.53321  -0.52902  -0.52365
 Alpha  occ. eigenvalues --   -0.50405  -0.50147  -0.49427  -0.49212  -0.48741
 Alpha  occ. eigenvalues --   -0.48244  -0.47848  -0.47314  -0.47050  -0.47018
 Alpha  occ. eigenvalues --   -0.46459  -0.46021  -0.45774  -0.45535  -0.44899
 Alpha  occ. eigenvalues --   -0.44552  -0.44407  -0.44357  -0.44040  -0.43864
 Alpha  occ. eigenvalues --   -0.43448  -0.42993  -0.42808  -0.42519  -0.42291
 Alpha  occ. eigenvalues --   -0.41955  -0.41262  -0.41055  -0.40892  -0.40728
 Alpha  occ. eigenvalues --   -0.40095  -0.39926  -0.39638  -0.39529  -0.39263
 Alpha  occ. eigenvalues --   -0.38793  -0.38496  -0.38147  -0.37883  -0.37644
 Alpha  occ. eigenvalues --   -0.37520  -0.37041  -0.36856  -0.36383  -0.36138
 Alpha  occ. eigenvalues --   -0.35707  -0.35525  -0.34700  -0.34369  -0.34222
 Alpha  occ. eigenvalues --   -0.33558  -0.33113  -0.32770  -0.32248  -0.31499
 Alpha  occ. eigenvalues --   -0.30682  -0.29837  -0.29090  -0.28667  -0.27217
 Alpha  occ. eigenvalues --   -0.26273  -0.25749  -0.25500  -0.24720  -0.21242
 Alpha  occ. eigenvalues --   -0.19308
 Alpha virt. eigenvalues --   -0.12000  -0.04427  -0.03931  -0.02238  -0.01025
 Alpha virt. eigenvalues --   -0.00469   0.00932   0.01521   0.03255   0.04125
 Alpha virt. eigenvalues --    0.04658   0.05685   0.06027   0.06534   0.06694

 Mulliken charges:
               1
     1  Mg   0.983631
     2  C   -0.028385
     3  C   -0.058322
     4  C   -0.033655
     5  C   -0.061670
     6  N   -0.345739
     7  C    0.008797
     8  C   -0.112473
     9  C   -0.136093
    10  C    0.014367
    11  C    0.042733
    12  C    0.031735
    13  C   -0.134102
    14  H    0.060893
    15  N   -0.528968
    16  C    0.205199
    17  C   -0.176232
    18  C   -0.091357
    19  C    0.166044
    20  C    0.056186
    21  C    0.010879
    22  O   -0.280840
    23  C   -0.002284
    24  N   -0.429211
    25  C    0.066746
    26  C   -0.137161
    27  C   -0.136459
    28  C    0.108868
    29  C    0.045499
    30  C   -0.044330
    31  C   -0.049827
    32  N   -0.434997
    33  C    0.129837
    34  C   -0.205353
    35  C   -0.045450
    36  C    0.157521
    37  C    0.076409
    38  C    0.165139
    39  O   -0.209455
    40  C   -0.098781
    41  C    0.267177
    42  O   -0.276345
    43  O   -0.352853
    44  C    0.118906
    45  H   -0.000822
    46  H    0.017830
    47  H    0.011054
    48  H    0.057005
    49  H    0.037920
    50  H    0.051626
    51  H    0.040294
    52  H    0.054098
    53  H    0.039779
    54  H    0.042226
    55  H    0.055268
    56  H    0.049202
    57  H    0.071660
    58  H    0.044079
    59  H    0.051262
    60  H    0.067723
    61  H    0.055608
    62  H    0.052006
    63  H    0.057875
    64  H    0.036801
    65  H    0.052286
    66  H    0.065546
    67  H    0.035563
    68  H    0.034615
    69  H    0.044116
    70  H    0.049312
    71  H    0.045503
    72  H    0.053670
    73  H    0.036719
    74  H    0.064760
    75  H    0.068632
    76  H    0.079223
    77  H    0.068799
    78  H    0.037233
    79  H    0.065305
 Sum of Mulliken charges =  -0.00000

 Dipole moment (field-independent basis, Debye):
    X=             -0.8968    Y=             -2.7237    Z=              1.8311  Tot=              3.4023
 Quadrupole moment (field-independent basis, Debye-Ang):
   XX=           -277.8603   YY=           -223.7033   ZZ=           -258.7335
   XY=            -28.8059   XZ=              5.4833   YZ=              0.8706

 Normal termination of Gaussian 16 at Wed Oct 13 12:33:31 2021.
