 Gaussian 16, Revision A.03,
 Gaussian 16:  ES64L-G16RevA.03 25-Dec-2016

 --------------------------------------------------------
 #p PBE1PBE/Def2SVP td=(nstates=5) density=(transition=1)
 --------------------------------------------------------

 --------------------------------
 TDDFT excited states in gaussian
 --------------------------------
 Symbolic Z-matrix:
 Charge =  0 Multiplicity = 1

                         Standard orientation:
 ---------------------------------------------------------------------
 Center     Atomic      Atomic             Coordinates (Angstroms)
 Number     Number       Type             X           Y           Z
 ---------------------------------------------------------------------
      1         12           0       24.588698   -0.434234    0.167497
      2          6           0       23.369707    2.722492    0.732228
      3          6           0       24.874024    0.339824   -3.160694
      4          6           0       25.716021   -3.657123   -0.441010
      5          6           0       23.866041   -1.303132    3.445170
      6          7           0       24.121651    1.336620   -1.129002
      7          6           0       23.713042    2.530861   -0.607225
      8          6           0       23.597879    3.540826   -1.643797
      9          6           0       23.857025    2.810955   -2.952290
     10          6           0       24.289892    1.372118   -2.428703
     11          6           0       22.708106    2.739373   -4.016619
     12          6           0       24.565474    4.746318   -1.388690
     13          6           0       24.077713    6.162252   -1.852576
     14          1           0       23.106156    6.215778   -3.047920
     15          7           0       25.314571   -1.450301   -1.570228
     16          6           0       25.356099   -0.919181   -2.847962
     17          6           0       25.896804   -1.937731   -3.770825
     18          6           0       26.159664   -3.134896   -2.974901
     19          6           0       25.756881   -2.783893   -1.601917
     20          6           0       26.081493   -1.738638   -5.266341
     21          6           0       26.830064   -4.411869   -3.425139
     22          8           0       27.047900   -5.306416   -2.589211
     23          6           0       27.229428   -4.710036   -4.821800
     24          7           0       24.700111   -2.259153    1.304058
     25          6           0       25.242945   -3.387193    0.837143
     26          6           0       25.382977   -4.429930    1.958666
     27          6           0       25.022991   -3.615683    3.318129
     28          6           0       24.572308   -2.269181    2.649857
     29          6           0       24.489162   -5.679278    1.688124
     30          6           0       26.211392   -3.377841    4.289697
     31          6           0       26.139884   -4.131564    5.626175
     32          7           0       23.715520    0.463946    1.790798
     33          6           0       23.464642   -0.011994    3.079818
     34          6           0       22.839172    1.047924    3.901465
     35          6           0       22.785905    2.115296    2.974264
     36          6           0       23.315540    1.710371    1.719846
     37          6           0       22.458849    1.000758    5.298832
     38          6           0       22.466315    3.552719    2.852497
     39          8           0       22.083438    4.357347    3.659789
     40          6           0       22.796833    3.977908    1.377489
     41          6           0       21.599342    4.604216    0.794802
     42          8           0       20.610016    3.913193    0.502825
     43          8           0       21.733273    5.924182    0.489977
     44          6           0       20.675711    6.578040   -0.274345
     45          1           0       24.953640    0.618530   -4.213525
     46          1           0       26.038621   -4.677361   -0.660062
     47          1           0       23.775980   -1.581840    4.497056
     48          1           0       22.571641    3.909724   -1.637571
     49          1           0       24.780105    3.153271   -3.421544
     50          1           0       21.743518    3.222028   -3.856080
     51          1           0       22.505111    1.687750   -4.217576
     52          1           0       23.012334    3.078021   -5.007312
     53          1           0       25.551134    4.515782   -1.793131
     54          1           0       24.855072    4.746295   -0.338033
     55          1           0       24.935042    6.791222   -2.093996
     56          1           0       23.471242    6.668855   -1.102395
     57          1           0       25.898528   -0.715126   -5.591706
     58          1           0       25.377813   -2.348858   -5.833227
     59          1           0       27.133486   -1.845874   -5.530144
     60          1           0       27.760367   -5.661022   -4.791465
     61          1           0       27.860611   -3.940709   -5.268519
     62          1           0       26.345719   -4.706372   -5.460108
     63          1           0       26.445324   -4.658829    2.044072
     64          1           0       24.172155   -4.043509    3.848242
     65          1           0       25.021448   -6.624947    1.791370
     66          1           0       24.087530   -5.656646    0.674702
     67          1           0       23.660986   -5.565238    2.387972
     68          1           0       26.350701   -2.329550    4.551202
     69          1           0       27.165735   -3.649211    3.837846
     70          1           0       25.567696   -5.049937    5.494169
     71          1           0       25.612357   -3.499143    6.339524
     72          1           0       27.165682   -4.241206    5.975634
     73          1           0       22.345122    1.991035    5.739318
     74          1           0       23.158881    0.439648    5.917562
     75          1           0       21.430228    0.643144    5.347455
     76          1           0       23.615866    4.678075    1.545436
     77          1           0       19.725055    6.658661    0.253479
     78          1           0       20.566072    6.122299   -1.258363
     79          1           0       20.952121    7.615739   -0.460452
     80         12           0      -23.627881   -0.773868    0.158773
     81          6           0      -25.479673    2.146429    0.617966
     82          6           0      -21.856369    0.720460   -2.229868
     83          6           0      -22.898424   -3.879589   -1.069024
     84          6           0      -25.543239   -2.309388    2.630584
     85          7           0      -23.557122    1.287977   -0.600315
     86          6           0      -24.377166    2.273206   -0.255290
     87          6           0      -23.896864    3.601538   -0.944195
     88          6           0      -22.816384    3.086912   -1.925239
     89          6           0      -22.732769    1.598037   -1.602518
     90          6           0      -23.232851    3.198527   -3.475282
     91          6           0      -23.317370    4.710794    0.046294
     92          6           0      -23.770100    6.083951   -0.314792
     93          1           0      -22.743607    7.196154   -0.464982
     94          7           0      -22.507336   -1.462928   -1.418175
     95          6           0      -21.817428   -0.674119   -2.300220
     96          6           0      -20.886545   -1.522036   -3.057870
     97          6           0      -21.202525   -2.864784   -2.709011
     98          6           0      -22.288617   -2.762006   -1.720253
     99          6           0      -19.885862   -0.957968   -4.116406
    100          6           0      -20.610465   -4.185981   -3.285818
    101          8           0      -20.942639   -5.307285   -2.918136
    102          6           0      -19.560417   -4.080435   -4.326257
    103          7           0      -24.145308   -2.742985    0.652811
    104          6           0      -23.786030   -3.909813   -0.028482
    105          6           0      -24.584634   -5.110680    0.542544
    106          6           0      -24.873093   -4.662601    2.042159
    107          6           0      -24.831901   -3.138644    1.735611
    108          6           0      -25.818211   -5.481761   -0.308296
    109          6           0      -23.853812   -5.038345    3.079884
    110          6           0      -22.574383   -4.268867    3.223347
    111          7           0      -25.054254   -0.217514    1.544978
    112          6           0      -25.780957   -0.938213    2.464295
    113          6           0      -26.735311   -0.097173    3.190388
    114          6           0      -26.736459    1.150991    2.419042
    115          6           0      -25.690901    0.988887    1.428681
    116          6           0      -27.639106   -0.522649    4.230661
    117          6           0      -27.358146    2.459614    2.256788
    118          8           0      -28.275892    2.972283    2.778845
    119          6           0      -26.489217    3.192809    1.107214
    120          6           0      -27.313498    3.847940    0.027899
    121          8           0      -27.648051    3.318169   -1.027606
    122          8           0      -27.543046    5.175098    0.389300
    123          6           0      -28.310066    6.014727   -0.548680
    124          1           0      -21.068303    1.077465   -2.896709
    125          1           0      -22.635827   -4.836637   -1.525438
    126          1           0      -26.037884   -2.825783    3.455440
    127          1           0      -24.679815    4.055686   -1.552028
    128          1           0      -21.846736    3.582692   -1.879940
    129          1           0      -22.856307    4.157200   -3.832596
    130          1           0      -24.304681    3.229964   -3.669263
    131          1           0      -22.734093    2.391472   -4.013219
    132          1           0      -22.227300    4.721922    0.046025
    133          1           0      -23.549255    4.566029    1.101554
    134          1           0      -24.357399    6.383195    0.552899
    135          1           0      -24.419584    6.196487   -1.182445
    136          1           0      -20.423845   -0.969501   -5.063905
    137          1           0      -18.951578   -1.519842   -4.126005
    138          1           0      -19.724110    0.118178   -4.045839
    139          1           0      -19.619752   -3.342999   -5.126583
    140          1           0      -19.449730   -5.038974   -4.832655
    141          1           0      -18.581027   -4.091045   -3.847091
    142          1           0      -23.853268   -5.918365    0.547723
    143          1           0      -25.841141   -5.012732    2.400032
    144          1           0      -26.774624   -5.528714    0.212480
    145          1           0      -25.656147   -6.338610   -0.962628
    146          1           0      -25.993065   -4.712618   -1.060383
    147          1           0      -23.501786   -6.066832    3.009647
    148          1           0      -24.341512   -4.987087    4.053449
    149          1           0      -22.819442   -3.562671    4.016451
    150          1           0      -22.273780   -3.677798    2.357982
    151          1           0      -21.777447   -4.949961    3.523594
    152          1           0      -27.711692    0.318498    4.920322
    153          1           0      -27.167626   -1.362642    4.740174
    154          1           0      -28.619066   -0.746000    3.810043
    155          1           0      -25.920015    3.982734    1.597263
    156          1           0      -29.234193    5.479681   -0.769010
    157          1           0      -27.772760    6.136426   -1.488841
    158          1           0      -28.578510    7.032417   -0.264745
 ---------------------------------------------------------------------

 SCF Done:  E(RPBE1PBE) =  -4067.42369379     A.U. after   16 cycles

 Excitation energies and oscillator strengths:

 Excited State   1:      Singlet-A      1.8399 eV  673.85 nm  f=0.3632  <S**2>=0.000
     309 -> 316       -0.17100
     312 -> 313        0.69452
     312 <- 313       -0.11329
 This state for optimization and/or second-order correction.
 Total Energy, E(TD-HF/TD-DFT) =  -4067.35607708
 Copying the excited state density for this state as the 1-particle RhoCI density.

 Excited State   2:      Singlet-A      1.8897 eV  656.10 nm  f=0.3738  <S**2>=0.000
     310 -> 315       -0.18008
     311 -> 314        0.68960
     311 <- 314       -0.10437

 Excited State   3:      Singlet-A      1.9895 eV  623.21 nm  f=0.0000  <S**2>=0.000
     311 -> 313        0.70711

 Excited State   4:      Singlet-A      2.0024 eV  619.18 nm  f=0.0000  <S**2>=0.000
     312 -> 314        0.70711

 Excited State   5:      Singlet-A      2.2567 eV  549.41 nm  f=0.0877  <S**2>=0.000
     310 -> 314        0.64117
     311 -> 315        0.28274

 The electronic state is 1-A.
 Alpha  occ. eigenvalues --  -46.92297 -46.91330 -19.26599 -19.25613 -19.20225
 Alpha  occ. eigenvalues --  -19.19756 -19.19546 -19.19455 -19.19279 -19.18580
 Alpha  occ. eigenvalues --  -14.41622 -14.41333 -14.41239 -14.41018 -14.39201
 Alpha  occ. eigenvalues --  -14.38921 -14.38915 -14.38903 -10.36609 -10.36572
 Alpha  occ. eigenvalues --  -10.32827 -10.32526 -10.32067 -10.32041 -10.29550
 Alpha  occ. eigenvalues --  -10.29006 -10.28960 -10.28759 -10.28387 -10.28344
 Alpha  occ. eigenvalues --  -10.28343 -10.28287 -10.28140 -10.27844 -10.27821
 Alpha  occ. eigenvalues --  -10.27724 -10.27692 -10.27646 -10.27350 -10.27219
 Alpha  occ. eigenvalues --  -10.27122 -10.26834 -10.26825 -10.26574 -10.26394
 Alpha  occ. eigenvalues --  -10.26230 -10.26096 -10.26084 -10.26083 -10.25961
 Alpha  occ. eigenvalues --  -10.25937 -10.25817 -10.25739 -10.25733 -10.25660
 Alpha  occ. eigenvalues --  -10.25624 -10.25512 -10.25382 -10.25265 -10.25238
 Alpha  occ. eigenvalues --  -10.25102 -10.25034 -10.25011 -10.24909 -10.24792
 Alpha  occ. eigenvalues --  -10.24642 -10.24455 -10.24308 -10.24136 -10.23785
 Alpha  occ. eigenvalues --  -10.23720 -10.23714 -10.23684 -10.23555 -10.23515
 Alpha  occ. eigenvalues --  -10.23457 -10.23430 -10.23355 -10.23161 -10.23140
 Alpha  occ. eigenvalues --  -10.23098 -10.23036 -10.23030 -10.23025 -10.22815
 Alpha  occ. eigenvalues --  -10.21947  -3.14304  -3.13607  -1.87167  -1.86661
 Alpha  occ. eigenvalues --   -1.86534  -1.86452  -1.85958  -1.85859  -1.11209
 Alpha  occ. eigenvalues --   -1.09821  -1.07619  -1.05730  -1.04938  -1.03614
 Alpha  occ. eigenvalues --   -1.02193  -1.01925  -0.99788  -0.99759  -0.98737
 Alpha  occ. eigenvalues --   -0.98209  -0.98076  -0.97570  -0.96792  -0.95615
 Alpha  occ. eigenvalues --   -0.86856  -0.86132  -0.83439  -0.83313  -0.82847
 Alpha  occ. eigenvalues --   -0.82597  -0.82363  -0.82034  -0.81529  -0.81428
 Alpha  occ. eigenvalues --   -0.81235  -0.81093  -0.80599  -0.80477  -0.78449
 Alpha  occ. eigenvalues --   -0.78269  -0.77850  -0.77849  -0.76812  -0.76600
 Alpha  occ. eigenvalues --   -0.76063  -0.76015  -0.75537  -0.75276  -0.74919
 Alpha  occ. eigenvalues --   -0.74712  -0.72774  -0.72569  -0.71874  -0.71632
 Alpha  occ. eigenvalues --   -0.71552  -0.71034  -0.70565  -0.70094  -0.69262
 Alpha  occ. eigenvalues --   -0.69222  -0.67083  -0.66680  -0.65999  -0.65914
 Alpha  occ. eigenvalues --   -0.63588  -0.63569  -0.62930  -0.62761  -0.62487
 Alpha  occ. eigenvalues --   -0.62095  -0.61381  -0.61141  -0.60279  -0.60121
 Alpha  occ. eigenvalues --   -0.59869  -0.59626  -0.59171  -0.58901  -0.58793
 Alpha  occ. eigenvalues --   -0.58547  -0.57334  -0.56356  -0.54746  -0.54413
 Alpha  occ. eigenvalues --   -0.54131  -0.54091  -0.53797  -0.53440  -0.53239
 Alpha  occ. eigenvalues --   -0.52925  -0.52752  -0.52301  -0.51884  -0.51617
 Alpha  occ. eigenvalues --   -0.50706  -0.50434  -0.50338  -0.50064  -0.49933
 Alpha  occ. eigenvalues --   -0.49816  -0.49320  -0.49291  -0.48593  -0.48539
 Alpha  occ. eigenvalues --   -0.48172  -0.48081  -0.47916  -0.47629  -0.47469
 Alpha  occ. eigenvalues --   -0.47384  -0.47052  -0.46954  -0.46720  -0.46624
 Alpha  occ. eigenvalues --   -0.46269  -0.46228  -0.46156  -0.46132  -0.45877
 Alpha  occ. eigenvalues --   -0.45838  -0.45749  -0.45745  -0.44980  -0.44882
 Alpha  occ. eigenvalues --   -0.44743  -0.44619  -0.44539  -0.44434  -0.44157
 Alpha  occ. eigenvalues --   -0.44132  -0.43945  -0.43822  -0.43570  -0.43269
 Alpha  occ. eigenvalues --   -0.43162  -0.43070  -0.42975  -0.42783  -0.42649
 Alpha  occ. eigenvalues --   -0.42609  -0.42439  -0.42137  -0.41877  -0.41790
 Alpha  occ. eigenvalues --   -0.41647  -0.41397  -0.41376  -0.41320  -0.40995
 Alpha  occ. eigenvalues --   -0.40972  -0.40789  -0.40669  -0.40474  -0.40433
 Alpha  occ. eigenvalues --   -0.40291  -0.40219  -0.39934  -0.39799  -0.39762
 Alpha  occ. eigenvalues --   -0.39687  -0.39464  -0.39338  -0.39154  -0.39148
 Alpha  occ. eigenvalues --   -0.38948  -0.38618  -0.38572  -0.38442  -0.38334
 Alpha  occ. eigenvalues --   -0.38175  -0.38084  -0.38000  -0.37849  -0.37690
 Alpha  occ. eigenvalues --   -0.37538  -0.37505  -0.36995  -0.36743  -0.36623
 Alpha  occ. eigenvalues --   -0.36404  -0.36363  -0.36312  -0.36176  -0.36010
 Alpha  occ. eigenvalues --   -0.36000  -0.35777  -0.35561  -0.35393  -0.35285
 Alpha  occ. eigenvalues --   -0.35164  -0.34879  -0.34531  -0.34035  -0.33613
 Alpha  occ. eigenvalues --   -0.33176  -0.32990  -0.32684  -0.32496  -0.32211
 Alpha  occ. eigenvalues --   -0.31925  -0.31742  -0.31679  -0.31618  -0.31435
 Alpha  occ. eigenvalues --   -0.31095  -0.30933  -0.29517  -0.29278  -0.29239
 Alpha  occ. eigenvalues --   -0.28935  -0.28513  -0.28357  -0.26792  -0.26709
 Alpha  occ. eigenvalues --   -0.26211  -0.26020  -0.25817  -0.25688  -0.25664
 Alpha  occ. eigenvalues --   -0.25565  -0.25144  -0.25141  -0.20902  -0.20829
 Alpha  occ. eigenvalues --   -0.18515  -0.18430
 Alpha virt. eigenvalues --   -0.10932  -0.10799  -0.05228  -0.04900  -0.03830
 Alpha virt. eigenvalues --   -0.03664  -0.01926  -0.01838  -0.00252  -0.00154
 Alpha virt. eigenvalues --    0.00160   0.00331   0.01301   0.01417   0.01927

 Mulliken charges:
               1
     1  Mg  11.999995
     2  C    6.000016
     3  C    6.000056
     4  C    5.999976
     5  C    5.999937
     6  N    7.000017
     7  C    5.999977
     8  C    6.000025
     9  C    5.999976
    10  C    6.000000
    11  C    5.999995
    12  C    6.000009
    13  C    5.999997
    14  H    1.000035
    15  N    7.000004
    16  C    6.000002
    17  C    6.000063
    18  C    5.999986
    19  C    6.000027
    20  C    6.000028
    21  C    6.000060
    22  O    8.000021
    23  C    6.000005
    24  N    6.999982
    25  C    6.000011
    26  C    5.999980
    27  C    6.000019
    28  C    6.000002
    29  C    5.999992
    30  C    6.000015
    31  C    5.999997
    32  N    7.000017
    33  C    5.999991
    34  C    5.999939
    35  C    6.000051
    36  C    5.999989
    37  C    5.999988
    38  C    5.999928
    39  O    7.999947
    40  C    6.000006
    41  C    5.999994
    42  O    8.000030
    43  O    7.999984
    44  C    5.999996
    45  H    1.000040
    46  H    0.999999
    47  H    0.999956
    48  H    1.000028
    49  H    0.999992
    50  H    1.000057
    51  H    1.000022
    52  H    1.000014
    53  H    0.999966
    54  H    0.999988
    55  H    0.999969
    56  H    1.000003
    57  H    1.000025
    58  H    1.000060
    59  H    1.000004
    60  H    1.000005
    61  H    0.999986
    62  H    1.000034
    63  H    0.999971
    64  H    1.000003
    65  H    0.999988
    66  H    1.000018
    67  H    1.000030
    68  H    0.999987
    69  H    0.999962
    70  H    1.000002
    71  H    0.999998
    72  H    0.999961
    73  H    0.999956
    74  H    0.999943
    75  H    0.999986
    76  H    0.999970
    77  H    1.000019
    78  H    1.000016
    79  H    0.999978
    80  Mg  12.001672
    81  C    5.976129
    82  C    5.995432
    83  C    6.028620
    84  C    6.006990
    85  N    6.988300
    86  C    6.033376
    87  C    5.990331
    88  C    6.008037
    89  C    5.973977
    90  C    6.006265
    91  C    5.998341
    92  C    5.999963
    93  H    1.005201
    94  N    7.004416
    95  C    5.967113
    96  C    5.977773
    97  C    5.988864
    98  C    5.960502
    99  C    6.001433
   100  C    5.986286
   101  O    7.972162
   102  C    6.009631
   103  N    7.017899
   104  C    5.963969
   105  C    6.004056
   106  C    5.991931
   107  C    6.020789
   108  C    5.998890
   109  C    5.994498
   110  C    5.996857
   111  N    6.998072
   112  C    6.023620
   113  C    6.035999
   114  C    6.003412
   115  C    6.027228
   116  C    5.995263
   117  C    6.014919
   118  O    8.023854
   119  C    6.004205
   120  C    6.002767
   121  O    8.008711
   122  O    8.000162
   123  C    5.997970
   124  H    0.988556
   125  H    0.996161
   126  H    1.014293
   127  H    1.000208
   128  H    0.995659
   129  H    0.990228
   130  H    0.988089
   131  H    1.007024
   132  H    1.007068
   133  H    0.993231
   134  H    0.995459
   135  H    1.001030
   136  H    0.982719
   137  H    0.985198
   138  H    0.983802
   139  H    0.994364
   140  H    0.986003
   141  H    0.989210
   142  H    1.003631
   143  H    1.001910
   144  H    0.989422
   145  H    1.003002
   146  H    1.001569
   147  H    1.011542
   148  H    0.998603
   149  H    0.993556
   150  H    1.011971
   151  H    1.007244
   152  H    1.017953
   153  H    1.015509
   154  H    1.023431
   155  H    1.006213
   156  H    1.000793
   157  H    1.006101
   158  H    1.003367
 Sum of Mulliken charges = 624.00000

 Dipole moment (field-independent basis, Debye):
    X=             -6.7862    Y=              2.2388    Z=              7.2825  Tot=             10.2030
 Quadrupole moment (field-independent basis, Debye-Ang):
   XX=            325.0531   YY=             -2.9631   ZZ=             -0.6389
   XY=            -49.9583   XZ=           -173.4886   YZ=             -8.4797

 Normal termination of Gaussian 16 at Fri Oct 15 01:17:54 2021.
