 Gaussian 16, Revision A.03,
 Gaussian 16:  ES64L-G16RevA.03 25-Dec-2016

 --------------------------------------------------------
 #p PBE1PBE/Def2SVP td=(nstates=5) density=(transition=1)
 --------------------------------------------------------

 --------------------------------
 TDDFT excited states in gaussian
 --------------------------------
 Symbolic Z-matrix:
 Charge =  0 Multiplicity = 1

                         Standard orientation:
 ---------------------------------------------------------------------
 Center     Atomic      Atomic             Coordinates (Angstroms)
 Number     Number       Type             X           Y           Z
 ---------------------------------------------------------------------
      1         12           0      -29.201438    0.367304   -0.643995
      2          6           0      -29.051434   -2.271423    1.632569
      3          6           0      -28.155644    2.468035    1.716115
      4          6           0      -30.632920    2.899366   -2.439718
      5          6           0      -30.341804   -1.862013   -3.065974
      6          7           0      -28.498661    0.087952    1.420101
      7          6           0      -28.516941   -1.051268    2.101301
      8          6           0      -27.815098   -0.826910    3.489403
      9          6           0      -27.646712    0.711002    3.523973
     10          6           0      -28.147109    1.147762    2.150388
     11          6           0      -28.579374    1.447580    4.608467
     12          6           0      -26.420221   -1.579730    3.676245
     13          6           0      -26.275189   -2.173389    5.035451
     14          1           0      -25.023791   -1.883903    5.849970
     15          7           0      -29.340099    2.400587   -0.391562
     16          6           0      -28.814459    3.102797    0.660484
     17          6           0      -28.822898    4.532414    0.320390
     18          6           0      -29.550811    4.644262   -0.897046
     19          6           0      -29.914720    3.264048   -1.258129
     20          6           0      -28.239743    5.637017    1.258377
     21          6           0      -29.966164    5.933096   -1.668533
     22          8           0      -30.593892    5.932793   -2.721533
     23          6           0      -29.553785    7.241449   -1.107811
     24          7           0      -30.318062    0.509525   -2.410957
     25          6           0      -30.884581    1.661471   -2.964855
     26          6           0      -31.821901    1.266936   -4.136048
     27          6           0      -31.189406   -0.099973   -4.650188
     28          6           0      -30.569389   -0.484196   -3.276847
     29          6           0      -33.311994    1.221334   -3.734938
     30          6           0      -30.136927   -0.011322   -5.718560
     31          6           0      -28.726685    0.376680   -5.386464
     32          7           0      -29.442767   -1.674399   -0.841089
     33          6           0      -29.948594   -2.452007   -1.857017
     34          6           0      -29.975010   -3.872249   -1.499857
     35          6           0      -29.717153   -3.859378   -0.055477
     36          6           0      -29.413165   -2.479314    0.265927
     37          6           0      -30.425925   -4.960364   -2.332158
     38          6           0      -29.647458   -4.665439    1.157256
     39          8           0      -29.888255   -5.793325    1.375254
     40          6           0      -29.124931   -3.649926    2.301734
     41          6           0      -29.913120   -3.702328    3.586090
     42          8           0      -30.873561   -2.987721    3.857320
     43          8           0      -29.308139   -4.623683    4.440345
     44          6           0      -29.904492   -4.809899    5.775557
     45          1           0      -27.666067    3.261214    2.285640
     46          1           0      -31.078394    3.755534   -2.951324
     47          1           0      -30.612933   -2.514523   -3.898106
     48          1           0      -28.464212   -1.088930    4.325298
     49          1           0      -26.646393    1.082938    3.745545
     50          1           0      -27.989838    1.534193    5.521407
     51          1           0      -29.473143    0.898979    4.904526
     52          1           0      -28.807093    2.444652    4.229696
     53          1           0      -25.575596   -0.906593    3.528354
     54          1           0      -26.214684   -2.373722    2.958169
     55          1           0      -26.214092   -3.241709    4.829748
     56          1           0      -27.094263   -2.040060    5.741606
     57          1           0      -29.065782    5.943355    1.899571
     58          1           0      -27.789712    6.451062    0.689620
     59          1           0      -27.576670    5.255467    2.035544
     60          1           0      -29.594374    7.443920   -0.037665
     61          1           0      -30.138384    8.037364   -1.568517
     62          1           0      -28.599085    7.532754   -1.546681
     63          1           0      -31.637897    2.044246   -4.877134
     64          1           0      -31.946828   -0.800384   -5.001641
     65          1           0      -33.847417    0.296336   -3.949034
     66          1           0      -33.872433    2.107404   -4.033924
     67          1           0      -33.405887    1.306823   -2.652503
     68          1           0      -30.381679    0.670054   -6.532478
     69          1           0      -30.070850   -0.988641   -6.196879
     70          1           0      -28.241808   -0.593266   -5.277470
     71          1           0      -28.587093    0.905626   -4.443431
     72          1           0      -28.305875    0.945537   -6.216203
     73          1           0      -29.788844   -5.808199   -2.079701
     74          1           0      -30.241069   -4.670057   -3.366099
     75          1           0      -31.466455   -5.196817   -2.111898
     76          1           0      -28.103379   -3.944221    2.542447
     77          1           0      -30.963350   -5.020191    5.622499
     78          1           0      -29.836358   -3.894041    6.362048
     79          1           0      -29.508839   -5.578418    6.439794
     80         12           0       29.915999   -0.633127    0.286272
     81          6           0       28.162052    2.496739    0.243639
     82          6           0       27.152513   -1.886959   -1.598118
     83          6           0       31.704069   -3.297654   -0.709701
     84          6           0       32.683568    1.014956    1.435486
     85          7           0       27.955149    0.246146   -0.574208
     86          6           0       27.450779    1.507224   -0.444698
     87          6           0       26.056851    1.654185   -1.148900
     88          6           0       25.650503    0.115561   -1.344636
     89          6           0       27.020133   -0.536323   -1.240895
     90          6           0       24.721973   -0.433060   -0.285624
     91          6           0       26.088021    2.559675   -2.369041
     92          6           0       24.934010    3.582874   -2.531349
     93          1           0       23.715677    3.296313   -3.527042
     94          7           0       29.463843   -2.466107   -0.930974
     95          6           0       28.224921   -2.792495   -1.520966
     96          6           0       28.328856   -4.126146   -2.125679
     97          6           0       29.675564   -4.569372   -1.819606
     98          6           0       30.359333   -3.441957   -1.223347
     99          6           0       27.292592   -4.834506   -2.914226
    100          6           0       30.212872   -5.953467   -2.084282
    101          8           0       29.434415   -6.809538   -2.439775
    102          6           0       31.661639   -6.352504   -1.923352
    103          7           0       31.873540   -0.964766    0.267694
    104          6           0       32.343390   -2.234579   -0.055729
    105          6           0       33.855552   -2.235644    0.180195
    106          6           0       34.106197   -0.951342    1.052368
    107          6           0       32.783175   -0.270348    0.950714
    108          6           0       34.521869   -3.549624    0.730897
    109          6           0       35.330237   -0.051376    0.700159
    110          6           0       36.315417    0.246758    1.782981
    111          7           0       30.355349    1.282610    0.867279
    112          6           0       31.517732    1.814857    1.397351
    113          6           0       31.278618    3.172041    1.925112
    114          6           0       29.958617    3.473348    1.409401
    115          6           0       29.493619    2.309879    0.788780
    116          6           0       32.183172    4.084479    2.710854
    117          6           0       28.919567    4.544212    1.368979
    118          8           0       28.958549    5.682353    1.740959
    119          6           0       27.798396    3.959081    0.516349
    120          6           0       26.526888    4.052594    1.305811
    121          8           0       26.417584    3.394830    2.318251
    122          8           0       25.491514    4.851068    0.733553
    123          6           0       24.155084    4.787523    1.399288
    124          1           0       26.305066   -2.323733   -2.130881
    125          1           0       32.416733   -4.092213   -0.937025
    126          1           0       33.531705    1.439916    1.975796
    127          1           0       25.290847    2.009823   -0.460396
    128          1           0       25.289889   -0.075539   -2.355279
    129          1           0       25.315599   -0.689429    0.591561
    130          1           0       24.198009   -1.280197   -0.728039
    131          1           0       23.945269    0.215677    0.120645
    132          1           0       26.021487    1.899298   -3.233115
    133          1           0       27.089724    2.982898   -2.443235
    134          1           0       25.452816    4.484596   -2.857563
    135          1           0       24.441032    3.831120   -1.591350
    136          1           0       26.806735   -5.524525   -2.225021
    137          1           0       27.779684   -5.478769   -3.646252
    138          1           0       26.527380   -4.271295   -3.449746
    139          1           0       31.909052   -7.358025   -2.263101
    140          1           0       31.857392   -6.305372   -0.852040
    141          1           0       32.440389   -5.718059   -2.344964
    142          1           0       34.232118   -2.184438   -0.841821
    143          1           0       34.110011   -1.251058    2.099920
    144          1           0       33.777182   -4.187596    1.207611
    145          1           0       35.350139   -3.307131    1.396432
    146          1           0       34.994625   -4.099838   -0.082360
    147          1           0       34.965039    0.895265    0.302046
    148          1           0       35.815780   -0.500354   -0.166209
    149          1           0       36.193628    1.282415    2.099592
    150          1           0       37.328108    0.134795    1.395891
    151          1           0       36.263314   -0.352256    2.691882
    152          1           0       31.607622    4.835594    3.251455
    153          1           0       32.858844    4.543575    1.988647
    154          1           0       32.818879    3.460718    3.339527
    155          1           0       27.812948    4.479369   -0.441470
    156          1           0       24.169279    5.418338    2.288255
    157          1           0       23.942829    3.777711    1.749827
    158          1           0       23.365132    5.086920    0.710763
 ---------------------------------------------------------------------

 SCF Done:  E(RPBE1PBE) =  -4067.38476618     A.U. after   16 cycles

 Excitation energies and oscillator strengths:

 Excited State   1:      Singlet-A      1.8362 eV  675.21 nm  f=0.3564  <S**2>=0.000
     309 -> 315        0.16411
     311 -> 313        0.69624
     311 <- 313       -0.11945
 This state for optimization and/or second-order correction.
 Total Energy, E(TD-HF/TD-DFT) =  -4067.31728626
 Copying the excited state density for this state as the 1-particle RhoCI density.

 Excited State   2:      Singlet-A      1.8399 eV  673.85 nm  f=0.3896  <S**2>=0.000
     310 -> 316       -0.17100
     312 -> 314        0.69404
     312 <- 314       -0.11321

 Excited State   3:      Singlet-A      1.8534 eV  668.94 nm  f=0.0000  <S**2>=0.000
     312 -> 313        0.70711

 Excited State   4:      Singlet-A      2.0746 eV  597.63 nm  f=0.0000  <S**2>=0.000
     311 -> 314        0.70711

 Excited State   5:      Singlet-A      2.2360 eV  554.48 nm  f=0.1176  <S**2>=0.000
     308 -> 313        0.10042
     309 -> 313        0.64817
     311 -> 315       -0.25666

 The electronic state is 1-A.
 Alpha  occ. eigenvalues --  -46.92742 -46.91340 -19.25867 -19.25622 -19.20867
 Alpha  occ. eigenvalues --  -19.20234 -19.19838 -19.19766 -19.19466 -19.18242
 Alpha  occ. eigenvalues --  -14.42132 -14.41633 -14.41363 -14.41029 -14.39008
 Alpha  occ. eigenvalues --  -14.38932 -14.38914 -14.38829 -10.37187 -10.36618
 Alpha  occ. eigenvalues --  -10.32838 -10.32536 -10.32481 -10.31694 -10.29464
 Alpha  occ. eigenvalues --  -10.29132 -10.29028 -10.29017 -10.28968 -10.28491
 Alpha  occ. eigenvalues --  -10.28397 -10.28298 -10.28191 -10.27950 -10.27926
 Alpha  occ. eigenvalues --  -10.27831 -10.27657 -10.27360 -10.27286 -10.27230
 Alpha  occ. eigenvalues --  -10.27133 -10.26794 -10.26712 -10.26585 -10.26396
 Alpha  occ. eigenvalues --  -10.26373 -10.26358 -10.26250 -10.26240 -10.26095
 Alpha  occ. eigenvalues --  -10.25971 -10.25947 -10.25928 -10.25773 -10.25749
 Alpha  occ. eigenvalues --  -10.25744 -10.25579 -10.25522 -10.25464 -10.25393
 Alpha  occ. eigenvalues --  -10.25045 -10.24920 -10.24789 -10.24724 -10.24476
 Alpha  occ. eigenvalues --  -10.24465 -10.24337 -10.24319 -10.24230 -10.24075
 Alpha  occ. eigenvalues --  -10.24043 -10.23939 -10.23796 -10.23731 -10.23514
 Alpha  occ. eigenvalues --  -10.23467 -10.23440 -10.23234 -10.23222 -10.23185
 Alpha  occ. eigenvalues --  -10.23172 -10.23151 -10.23108 -10.23035 -10.22836
 Alpha  occ. eigenvalues --  -10.21959  -3.14888  -3.13618  -1.87674  -1.87269
 Alpha  occ. eigenvalues --   -1.87117  -1.86463  -1.85969  -1.85869  -1.10023
 Alpha  occ. eigenvalues --   -1.09831  -1.07629  -1.06410  -1.05007  -1.04949
 Alpha  occ. eigenvalues --   -1.02646  -1.02202  -0.99798  -0.99244  -0.98220
 Alpha  occ. eigenvalues --   -0.98200  -0.97581  -0.97381  -0.96803  -0.96204
 Alpha  occ. eigenvalues --   -0.87040  -0.86142  -0.83732  -0.83324  -0.83149
 Alpha  occ. eigenvalues --   -0.82857  -0.82792  -0.82373  -0.81909  -0.81439
 Alpha  occ. eigenvalues --   -0.81246  -0.80610  -0.80556  -0.79966  -0.78768
 Alpha  occ. eigenvalues --   -0.78460  -0.78281  -0.77860  -0.76823  -0.76774
 Alpha  occ. eigenvalues --   -0.76074  -0.76032  -0.75287  -0.74854  -0.74722
 Alpha  occ. eigenvalues --   -0.74522  -0.72579  -0.72502  -0.71800  -0.71562
 Alpha  occ. eigenvalues --   -0.71102  -0.71044  -0.70605  -0.70104  -0.69609
 Alpha  occ. eigenvalues --   -0.69232  -0.67112  -0.66691  -0.66234  -0.65925
 Alpha  occ. eigenvalues --   -0.63919  -0.63599  -0.63316  -0.62941  -0.62354
 Alpha  occ. eigenvalues --   -0.62105  -0.61152  -0.61144  -0.60407  -0.60131
 Alpha  occ. eigenvalues --   -0.59525  -0.59182  -0.59146  -0.58847  -0.58804
 Alpha  occ. eigenvalues --   -0.58558  -0.56880  -0.56366  -0.54757  -0.54360
 Alpha  occ. eigenvalues --   -0.54102  -0.53995  -0.53799  -0.53480  -0.53451
 Alpha  occ. eigenvalues --   -0.53006  -0.52762  -0.52311  -0.52250  -0.51627
 Alpha  occ. eigenvalues --   -0.51118  -0.50445  -0.50204  -0.50075  -0.50061
 Alpha  occ. eigenvalues --   -0.49826  -0.49330  -0.48806  -0.48603  -0.48449
 Alpha  occ. eigenvalues --   -0.48182  -0.47926  -0.47909  -0.47735  -0.47494
 Alpha  occ. eigenvalues --   -0.47479  -0.47062  -0.46895  -0.46731  -0.46340
 Alpha  occ. eigenvalues --   -0.46259  -0.46238  -0.46167  -0.45901  -0.45887
 Alpha  occ. eigenvalues --   -0.45755  -0.45576  -0.45477  -0.45088  -0.44991
 Alpha  occ. eigenvalues --   -0.44753  -0.44629  -0.44497  -0.44444  -0.44317
 Alpha  occ. eigenvalues --   -0.44168  -0.44142  -0.43940  -0.43833  -0.43794
 Alpha  occ. eigenvalues --   -0.43328  -0.43280  -0.43279  -0.42985  -0.42829
 Alpha  occ. eigenvalues --   -0.42659  -0.42449  -0.42391  -0.41847  -0.41673
 Alpha  occ. eigenvalues --   -0.41658  -0.41407  -0.41330  -0.41117  -0.41036
 Alpha  occ. eigenvalues --   -0.41006  -0.40881  -0.40825  -0.40799  -0.40699
 Alpha  occ. eigenvalues --   -0.40617  -0.40443  -0.40229  -0.39962  -0.39809
 Alpha  occ. eigenvalues --   -0.39697  -0.39666  -0.39474  -0.39391  -0.39158
 Alpha  occ. eigenvalues --   -0.38959  -0.38613  -0.38582  -0.38449  -0.38269
 Alpha  occ. eigenvalues --   -0.38186  -0.38131  -0.38095  -0.37802  -0.37701
 Alpha  occ. eigenvalues --   -0.37516  -0.37507  -0.37436  -0.37187  -0.36816
 Alpha  occ. eigenvalues --   -0.36753  -0.36415  -0.36402  -0.36321  -0.36187
 Alpha  occ. eigenvalues --   -0.36035  -0.36020  -0.35661  -0.35535  -0.35404
 Alpha  occ. eigenvalues --   -0.35217  -0.35174  -0.34241  -0.34046  -0.33624
 Alpha  occ. eigenvalues --   -0.33454  -0.33001  -0.32695  -0.32694  -0.32354
 Alpha  occ. eigenvalues --   -0.32049  -0.31936  -0.31628  -0.31572  -0.31444
 Alpha  occ. eigenvalues --   -0.30944  -0.30862  -0.29795  -0.29566  -0.29528
 Alpha  occ. eigenvalues --   -0.29248  -0.28838  -0.28367  -0.26857  -0.26803
 Alpha  occ. eigenvalues --   -0.26354  -0.26221  -0.26030  -0.25674  -0.25329
 Alpha  occ. eigenvalues --   -0.25243  -0.25154  -0.24410  -0.21212  -0.20912
 Alpha  occ. eigenvalues --   -0.18789  -0.18441
 Alpha virt. eigenvalues --   -0.11406  -0.10943  -0.05032  -0.04911  -0.03840
 Alpha virt. eigenvalues --   -0.03555  -0.01969  -0.01937  -0.01558  -0.00219
 Alpha virt. eigenvalues --   -0.00165   0.00149   0.00230   0.01239   0.01407

 Mulliken charges:
               1
     1  Mg  12.000058
     2  C    5.999133
     3  C    5.999821
     4  C    6.001049
     5  C    6.000286
     6  N    6.999575
     7  C    6.001191
     8  C    5.999662
     9  C    6.000303
    10  C    5.999069
    11  C    6.000229
    12  C    5.999935
    13  C    6.000003
    14  H    1.000195
    15  N    7.000172
    16  C    5.998756
    17  C    5.999195
    18  C    5.999544
    19  C    5.998560
    20  C    6.000029
    21  C    5.999519
    22  O    7.998962
    23  C    6.000353
    24  N    7.000677
    25  C    5.998703
    26  C    6.000143
    27  C    5.999704
    28  C    6.000731
    29  C    5.999954
    30  C    5.999798
    31  C    5.999885
    32  N    6.999949
    33  C    6.000881
    34  C    6.001339
    35  C    6.000172
    36  C    6.000966
    37  C    5.999838
    38  C    6.000498
    39  O    8.000908
    40  C    6.000161
    41  C    6.000096
    42  O    8.000315
    43  O    8.000005
    44  C    5.999935
    45  H    0.999576
    46  H    0.999850
    47  H    1.000523
    48  H    1.000004
    49  H    0.999836
    50  H    0.999637
    51  H    0.999560
    52  H    1.000243
    53  H    1.000264
    54  H    0.999771
    55  H    0.999845
    56  H    1.000026
    57  H    0.999359
    58  H    0.999454
    59  H    0.999414
    60  H    0.999785
    61  H    0.999481
    62  H    0.999606
    63  H    1.000128
    64  H    1.000070
    65  H    0.999615
    66  H    1.000097
    67  H    1.000051
    68  H    1.000417
    69  H    0.999960
    70  H    0.999777
    71  H    1.000429
    72  H    1.000266
    73  H    1.000668
    74  H    1.000572
    75  H    1.000849
    76  H    1.000240
    77  H    1.000027
    78  H    1.000212
    79  H    1.000128
    80  Mg  11.999731
    81  C    5.977613
    82  C    5.999304
    83  C    6.032464
    84  C    5.999578
    85  N    6.985258
    86  C    6.028751
    87  C    5.991218
    88  C    6.007957
    89  C    5.974178
    90  C    6.005834
    91  C    5.995882
    92  C    5.999633
    93  H    1.007199
    94  N    7.003425
    95  C    5.962722
    96  C    5.975966
    97  C    5.993156
    98  C    5.961020
    99  C    6.004857
   100  C    5.988885
   101  O    7.982487
   102  C    6.002213
   103  N    7.009633
   104  C    5.962822
   105  C    6.008498
   106  C    5.989081
   107  C    6.029349
   108  C    6.000505
   109  C    5.995833
   110  C    5.998776
   111  N    6.999958
   112  C    6.031426
   113  C    6.032407
   114  C    6.001710
   115  C    6.030483
   116  C    6.000211
   117  C    6.017727
   118  O    8.024809
   119  C    6.000240
   120  C    6.005001
   121  O    8.002642
   122  O    8.001993
   123  C    5.998319
   124  H    0.987425
   125  H    0.996451
   126  H    1.013139
   127  H    1.000877
   128  H    0.999067
   129  H    0.994863
   130  H    1.001216
   131  H    0.984517
   132  H    1.010062
   133  H    0.994201
   134  H    0.997028
   135  H    0.997542
   136  H    0.980909
   137  H    0.985100
   138  H    0.981828
   139  H    0.988716
   140  H    0.989857
   141  H    0.988819
   142  H    1.000145
   143  H    1.003984
   144  H    1.003249
   145  H    0.992196
   146  H    1.003382
   147  H    0.996580
   148  H    1.011464
   149  H    0.996297
   150  H    1.006308
   151  H    1.004241
   152  H    1.015032
   153  H    1.020217
   154  H    1.015764
   155  H    1.007782
   156  H    1.000704
   157  H    1.005524
   158  H    1.004755
 Sum of Mulliken charges = 624.00000

 Dipole moment (field-independent basis, Debye):
    X=              3.1078    Y=              8.5606    Z=              4.4065  Tot=             10.1173
 Quadrupole moment (field-independent basis, Debye-Ang):
   XX=            192.0704   YY=             -9.3916   ZZ=             -0.4831
   XY=            274.7020   XZ=            135.4846   YZ=             -3.6477

 Normal termination of Gaussian 16 at Thu Oct 14 04:00:34 2021.
