 Gaussian 16, Revision A.03,
 Gaussian 16:  ES64L-G16RevA.03 25-Dec-2016

 --------------------------------------------------------
 #p PBE1PBE/Def2SVP td=(nstates=5) density=(transition=1)
 --------------------------------------------------------

 --------------------------------
 TDDFT excited states in gaussian
 --------------------------------
 Symbolic Z-matrix:
 Charge =  0 Multiplicity = 1

                         Standard orientation:
 ---------------------------------------------------------------------
 Center     Atomic      Atomic             Coordinates (Angstroms)
 Number     Number       Type             X           Y           Z
 ---------------------------------------------------------------------
      1         12           0      -10.836602    0.597153    0.176903
      2          6           0       -9.105881   -2.218418   -0.975678
      3          6           0      -10.574765   -0.814223    3.323351
      4          6           0      -12.166278    3.394511    1.421393
      5          6           0      -10.239704    2.187753   -2.878271
      6          7           0       -9.690803   -1.337679    1.088766
      7          6           0       -9.180396   -2.363700    0.381208
      8          6           0       -8.679248   -3.499737    1.240217
      9          6           0       -9.459300   -3.094021    2.548439
     10          6           0       -9.913697   -1.647598    2.381941
     11          6           0      -10.717515   -3.987595    2.713410
     12          6           0       -7.146674   -3.564472    1.242460
     13          6           0       -6.323397   -2.260526    1.291653
     14          1           0       -5.206272   -2.216192    2.327486
     15          7           0      -11.311983    1.200827    2.072778
     16          6           0      -11.231821    0.419446    3.194890
     17          6           0      -12.104632    0.985721    4.231547
     18          6           0      -12.475504    2.314491    3.778024
     19          6           0      -11.989696    2.326359    2.364419
     20          6           0      -12.219722    0.372360    5.679389
     21          6           0      -13.192025    3.396462    4.589815
     22          8           0      -13.632334    3.152058    5.678462
     23          6           0      -13.390900    4.765476    4.006099
     24          7           0      -10.946973    2.618432   -0.615435
     25          6           0      -11.662361    3.627534    0.055591
     26          6           0      -11.805985    4.957509   -0.798709
     27          6           0      -11.216685    4.485122   -2.212275
     28          6           0      -10.802449    2.972860   -1.908298
     29          6           0      -13.227647    5.705009   -0.907943
     30          6           0      -10.036430    5.353968   -2.845589
     31          6           0      -10.138487    5.361800   -4.450435
     32          7           0       -9.918711    0.121000   -1.639194
     33          6           0       -9.838608    0.840160   -2.814348
     34          6           0       -9.237994    0.003875   -3.846416
     35          6           0       -8.969902   -1.251758   -3.242705
     36          6           0       -9.335761   -1.102532   -1.856336
     37          6           0       -9.108805    0.337707   -5.309545
     38          6           0       -8.374468   -2.622499   -3.362484
     39          8           0       -7.778687   -3.138957   -4.281406
     40          6           0       -8.513798   -3.262400   -1.916104
     41          6           0       -9.391900   -4.474208   -2.066168
     42          8           0       -9.001820   -5.569913   -2.541634
     43          8           0      -10.621660   -4.234313   -1.470426
     44          6           0      -11.469763   -5.371169   -1.335182
     45          1           0      -10.574989   -1.298831    4.302014
     46          1           0      -12.763864    4.278855    1.653201
     47          1           0      -10.242077    2.626551   -3.878352
     48          1           0       -9.106709   -4.454940    0.935897
     49          1           0       -8.926535   -3.146259    3.496964
     50          1           0      -11.471204   -3.354845    3.182739
     51          1           0      -10.469093   -4.903668    3.247454
     52          1           0      -11.270823   -4.295807    1.825748
     53          1           0       -6.872069   -4.003220    0.283688
     54          1           0       -6.837863   -4.221076    2.055943
     55          1           0       -6.986943   -1.434771    1.547244
     56          1           0       -5.837626   -2.131723    0.324849
     57          1           0      -11.378443    0.584936    6.339616
     58          1           0      -12.351431   -0.707321    5.607588
     59          1           0      -13.115161    0.635879    6.241104
     60          1           0      -13.772831    5.472080    4.743666
     61          1           0      -14.065641    4.773237    3.149849
     62          1           0      -12.363017    5.075419    3.815842
     63          1           0      -11.094380    5.586501   -0.265158
     64          1           0      -12.003104    4.430902   -2.964522
     65          1           0      -13.274381    6.422698   -0.089724
     66          1           0      -14.055935    4.999273   -0.851283
     67          1           0      -13.284206    6.195408   -1.879966
     68          1           0       -9.068312    4.883786   -2.673397
     69          1           0      -10.015931    6.357963   -2.420987
     70          1           0       -9.250878    4.916910   -4.900422
     71          1           0      -10.225678    6.389422   -4.802053
     72          1           0      -10.910930    4.765108   -4.934382
     73          1           0       -8.513857    1.245617   -5.402781
     74          1           0      -10.097029    0.524881   -5.730188
     75          1           0       -8.588303   -0.439804   -5.868460
     76          1           0       -7.515271   -3.643797   -1.703768
     77          1           0      -12.359211   -5.089654   -0.771972
     78          1           0      -10.922940   -6.227453   -0.940006
     79          1           0      -11.906858   -5.671184   -2.287531
     80         12           0       10.892770    0.468235    0.350351
     81          6           0        8.100557   -1.593195   -0.547993
     82          6           0       10.848435    1.719293   -2.862813
     83          6           0       13.783406    1.842216    1.007316
     84          6           0       10.851190   -1.105033    3.437993
     85          7           0        9.750101   -0.119057   -1.633253
     86          6           0        8.617583   -0.887460   -1.642002
     87          6           0        7.857534   -0.673843   -2.978449
     88          6           0        8.772663    0.354572   -3.765985
     89          6           0        9.905223    0.696171   -2.730329
     90          6           0        9.411084   -0.120628   -5.138500
     91          6           0        6.404144   -0.148581   -2.835034
     92          6           0        5.349957   -0.788499   -3.666450
     93          1           0        5.656560   -1.635842   -4.959970
     94          7           0       12.208798    1.651083   -0.782981
     95          6           0       11.974511    2.188822   -2.048266
     96          6           0       13.151188    2.981466   -2.453535
     97          6           0       13.961349    3.107179   -1.260283
     98          6           0       13.342895    2.181361   -0.283118
     99          6           0       13.383027    3.589415   -3.803670
    100          6           0       15.228091    3.948499   -0.976760
    101          8           0       15.668143    4.219170    0.160511
    102          6           0       15.868481    4.620862   -2.123888
    103          7           0       12.109940    0.318899    1.926218
    104          6           0       13.325039    0.967800    1.911520
    105          6           0       13.997457    0.931462    3.311866
    106          6           0       12.834587    0.279165    4.183151
    107          6           0       11.848217   -0.193835    3.129455
    108          6           0       15.388328    0.189003    3.455049
    109          6           0       12.152693    1.173163    5.206690
    110          6           0       12.361329    0.776989    6.683371
    111          7           0        9.628850   -0.893508    1.358823
    112          6           0        9.763653   -1.459834    2.604311
    113          6           0        8.706027   -2.455940    2.819889
    114          6           0        8.015850   -2.475919    1.620877
    115          6           0        8.605354   -1.519734    0.764086
    116          6           0        8.456462   -3.323304    4.009304
    117          6           0        6.901569   -3.094326    0.997456
    118          8           0        6.017468   -3.885826    1.432677
    119          6           0        6.903540   -2.581557   -0.380163
    120          6           0        6.875877   -3.724053   -1.359112
    121          8           0        7.771804   -4.468006   -1.570021
    122          8           0        5.713021   -3.735652   -2.010341
    123          6           0        5.338550   -4.891028   -2.752891
    124          1           0       10.914007    2.158456   -3.860617
    125          1           0       14.716856    2.269054    1.382412
    126          1           0       10.894534   -1.649606    4.382656
    127          1           0        7.836099   -1.649047   -3.466291
    128          1           0        8.214970    1.268919   -3.966350
    129          1           0        9.047043   -1.075465   -5.516758
    130          1           0       10.473028   -0.283591   -4.948914
    131          1           0        9.310454    0.658054   -5.895170
    132          1           0        6.309273    0.908730   -3.085151
    133          1           0        6.015030   -0.256470   -1.822995
    134          1           0        4.698273   -0.021912   -4.086772
    135          1           0        4.758538   -1.421196   -3.005200
    136          1           0       14.349447    3.261951   -4.186329
    137          1           0       13.413710    4.668204   -3.650752
    138          1           0       12.520870    3.455182   -4.457763
    139          1           0       16.220797    3.844537   -2.803146
    140          1           0       16.751581    5.109982   -1.713510
    141          1           0       15.240156    5.406972   -2.541740
    142          1           0       14.102938    1.975701    3.607769
    143          1           0       13.278746   -0.559876    4.718627
    144          1           0       15.702500   -0.207398    2.490175
    145          1           0       15.397694   -0.553163    4.254220
    146          1           0       16.110369    0.927833    3.803107
    147          1           0       11.100498    1.399771    5.033963
    148          1           0       12.618380    2.154373    5.120922
    149          1           0       11.485947    0.807423    7.331816
    150          1           0       12.940597    1.579873    7.140153
    151          1           0       12.808363   -0.202540    6.847572
    152          1           0        8.958859   -2.959907    4.906223
    153          1           0        8.934600   -4.292874    3.870714
    154          1           0        7.378717   -3.479068    4.055687
    155          1           0        5.993681   -1.989817   -0.477179
    156          1           0        5.055381   -5.645330   -2.017408
    157          1           0        6.198545   -5.319560   -3.267762
    158          1           0        4.464784   -4.693973   -3.374588
 ---------------------------------------------------------------------

 SCF Done:  E(RPBE1PBE) =  -4067.36696915     A.U. after   16 cycles

 Excitation energies and oscillator strengths:

 Excited State   1:      Singlet-A      1.8641 eV  665.12 nm  f=0.4055  <S**2>=0.000
     310 -> 316        0.17322
     312 -> 313        0.69401
     312 <- 313       -0.11107
 This state for optimization and/or second-order correction.
 Total Energy, E(TD-HF/TD-DFT) =  -4067.29846504
 Copying the excited state density for this state as the 1-particle RhoCI density.

 Excited State   2:      Singlet-A      1.8968 eV  653.65 nm  f=0.3405  <S**2>=0.000
     309 -> 315       -0.18756
     311 -> 314        0.68730

 Excited State   3:      Singlet-A      1.9301 eV  642.36 nm  f=0.0000  <S**2>=0.000
     312 -> 314        0.70710

 Excited State   4:      Singlet-A      1.9333 eV  641.32 nm  f=0.0000  <S**2>=0.000
     311 -> 313        0.70709

 Excited State   5:      Singlet-A      2.2040 eV  562.53 nm  f=0.1236  <S**2>=0.000
     310 -> 313        0.66046
     312 -> 316       -0.24050

 The electronic state is 1-A.
 Alpha  occ. eigenvalues --  -46.93784 -46.92227 -19.26680 -19.25389 -19.20266
 Alpha  occ. eigenvalues --  -19.19878 -19.19606 -19.19106 -19.18931 -19.18926
 Alpha  occ. eigenvalues --  -14.41858 -14.41451 -14.41186 -14.41083 -14.40053
 Alpha  occ. eigenvalues --  -14.39266 -14.39219 -14.39140 -10.37008 -10.35784
 Alpha  occ. eigenvalues --  -10.33075 -10.32319 -10.32235 -10.31482 -10.30485
 Alpha  occ. eigenvalues --  -10.29297 -10.29174 -10.29169 -10.28798 -10.28724
 Alpha  occ. eigenvalues --  -10.28474 -10.28465 -10.28444 -10.28352 -10.28178
 Alpha  occ. eigenvalues --  -10.28046 -10.27881 -10.27713 -10.27509 -10.27502
 Alpha  occ. eigenvalues --  -10.27402 -10.27184 -10.27044 -10.26878 -10.26668
 Alpha  occ. eigenvalues --  -10.26636 -10.26213 -10.26209 -10.26119 -10.26040
 Alpha  occ. eigenvalues --  -10.26014 -10.26010 -10.25992 -10.25966 -10.25756
 Alpha  occ. eigenvalues --  -10.25690 -10.25660 -10.25575 -10.25552 -10.25520
 Alpha  occ. eigenvalues --  -10.25457 -10.25358 -10.25271 -10.25215 -10.25209
 Alpha  occ. eigenvalues --  -10.25039 -10.24933 -10.24539 -10.24439 -10.24216
 Alpha  occ. eigenvalues --  -10.24179 -10.23938 -10.23858 -10.23822 -10.23811
 Alpha  occ. eigenvalues --  -10.23753 -10.23612 -10.23593 -10.23533 -10.23456
 Alpha  occ. eigenvalues --  -10.23378 -10.23350 -10.22956 -10.22847 -10.22814
 Alpha  occ. eigenvalues --  -10.22513  -3.15730  -3.14384  -1.88531  -1.88123
 Alpha  occ. eigenvalues --   -1.87942  -1.87207  -1.86773  -1.86606  -1.13172
 Alpha  occ. eigenvalues --   -1.11213  -1.06139  -1.05522  -1.04294  -1.03158
 Alpha  occ. eigenvalues --   -1.02445  -1.01846  -0.99326  -0.99264  -0.98430
 Alpha  occ. eigenvalues --   -0.98288  -0.97681  -0.97161  -0.96629  -0.96455
 Alpha  occ. eigenvalues --   -0.87690  -0.86878  -0.83402  -0.83246  -0.82647
 Alpha  occ. eigenvalues --   -0.82611  -0.82586  -0.82013  -0.81814  -0.81694
 Alpha  occ. eigenvalues --   -0.81223  -0.80550  -0.80489  -0.79807  -0.79089
 Alpha  occ. eigenvalues --   -0.78744  -0.77717  -0.77665  -0.76856  -0.76783
 Alpha  occ. eigenvalues --   -0.76277  -0.76071  -0.75933  -0.75140  -0.74775
 Alpha  occ. eigenvalues --   -0.74728  -0.72607  -0.71912  -0.71839  -0.71596
 Alpha  occ. eigenvalues --   -0.71367  -0.70913  -0.70708  -0.70517  -0.69646
 Alpha  occ. eigenvalues --   -0.69531  -0.67465  -0.67305  -0.66463  -0.65890
 Alpha  occ. eigenvalues --   -0.64249  -0.63760  -0.63656  -0.63319  -0.62745
 Alpha  occ. eigenvalues --   -0.61768  -0.61536  -0.60682  -0.60347  -0.60293
 Alpha  occ. eigenvalues --   -0.59422  -0.59362  -0.59304  -0.59146  -0.59137
 Alpha  occ. eigenvalues --   -0.58872  -0.58290  -0.57397  -0.54651  -0.54560
 Alpha  occ. eigenvalues --   -0.54404  -0.53870  -0.53831  -0.53450  -0.53389
 Alpha  occ. eigenvalues --   -0.52815  -0.52721  -0.52293  -0.52283  -0.51902
 Alpha  occ. eigenvalues --   -0.50767  -0.50764  -0.50660  -0.50611  -0.50056
 Alpha  occ. eigenvalues --   -0.49613  -0.49554  -0.49387  -0.48827  -0.48337
 Alpha  occ. eigenvalues --   -0.48249  -0.47880  -0.47791  -0.47658  -0.47546
 Alpha  occ. eigenvalues --   -0.47492  -0.47309  -0.47247  -0.46873  -0.46513
 Alpha  occ. eigenvalues --   -0.46167  -0.46138  -0.46050  -0.46028  -0.45835
 Alpha  occ. eigenvalues --   -0.45744  -0.45743  -0.45334  -0.45163  -0.44686
 Alpha  occ. eigenvalues --   -0.44609  -0.44545  -0.44540  -0.44324  -0.44284
 Alpha  occ. eigenvalues --   -0.44120  -0.43801  -0.43611  -0.43592  -0.43369
 Alpha  occ. eigenvalues --   -0.43322  -0.43178  -0.43052  -0.42909  -0.42844
 Alpha  occ. eigenvalues --   -0.42334  -0.42202  -0.42033  -0.41953  -0.41906
 Alpha  occ. eigenvalues --   -0.41583  -0.41468  -0.41423  -0.41341  -0.41076
 Alpha  occ. eigenvalues --   -0.40856  -0.40793  -0.40770  -0.40537  -0.40498
 Alpha  occ. eigenvalues --   -0.40355  -0.40239  -0.40116  -0.39978  -0.39943
 Alpha  occ. eigenvalues --   -0.39604  -0.39466  -0.39177  -0.39026  -0.39007
 Alpha  occ. eigenvalues --   -0.38801  -0.38659  -0.38423  -0.38373  -0.38251
 Alpha  occ. eigenvalues --   -0.38161  -0.37986  -0.37932  -0.37792  -0.37621
 Alpha  occ. eigenvalues --   -0.37541  -0.37327  -0.37187  -0.37030  -0.36844
 Alpha  occ. eigenvalues --   -0.36753  -0.36631  -0.36477  -0.36439  -0.36211
 Alpha  occ. eigenvalues --   -0.36147  -0.36050  -0.35743  -0.35244  -0.35120
 Alpha  occ. eigenvalues --   -0.34878  -0.34833  -0.34567  -0.34199  -0.33862
 Alpha  occ. eigenvalues --   -0.33822  -0.33139  -0.33129  -0.32794  -0.32244
 Alpha  occ. eigenvalues --   -0.32170  -0.31910  -0.31709  -0.31357  -0.31234
 Alpha  occ. eigenvalues --   -0.31109  -0.30824  -0.29783  -0.29439  -0.29382
 Alpha  occ. eigenvalues --   -0.29157  -0.28694  -0.28411  -0.27013  -0.26915
 Alpha  occ. eigenvalues --   -0.26177  -0.26062  -0.26038  -0.25937  -0.25757
 Alpha  occ. eigenvalues --   -0.25615  -0.25443  -0.25250  -0.20973  -0.20929
 Alpha  occ. eigenvalues --   -0.19026  -0.18854
 Alpha virt. eigenvalues --   -0.11296  -0.11155  -0.05532  -0.04968  -0.04275
 Alpha virt. eigenvalues --   -0.04123  -0.02392  -0.02313  -0.01973  -0.00439
 Alpha virt. eigenvalues --   -0.00113   0.01152   0.01318   0.01749   0.01851

 Mulliken charges:
               1
     1  Mg  11.999977
     2  C    6.000079
     3  C    6.000467
     4  C    5.999721
     5  C    5.999562
     6  N    7.000125
     7  C    6.000481
     8  C    5.999792
     9  C    6.000080
    10  C    5.999872
    11  C    6.000012
    12  C    5.999893
    13  C    5.999352
    14  H    1.001739
    15  N    7.000090
    16  C    5.999604
    17  C    5.999845
    18  C    5.999691
    19  C    5.999859
    20  C    6.000017
    21  C    5.999845
    22  O    7.999663
    23  C    6.000088
    24  N    6.999840
    25  C    5.999746
    26  C    6.000130
    27  C    5.999918
    28  C    6.000304
    29  C    6.000004
    30  C    6.000076
    31  C    6.000056
    32  N    6.999973
    33  C    6.000398
    34  C    6.000151
    35  C    6.000142
    36  C    6.000289
    37  C    6.000030
    38  C    6.000204
    39  O    8.000393
    40  C    6.000085
    41  C    5.999950
    42  O    8.000249
    43  O    7.999914
    44  C    6.000033
    45  H    1.000204
    46  H    0.999637
    47  H    0.999688
    48  H    1.000054
    49  H    1.000408
    50  H    0.999850
    51  H    1.000176
    52  H    0.999744
    53  H    1.000160
    54  H    1.000584
    55  H    0.999591
    56  H    1.000115
    57  H    1.000021
    58  H    0.999867
    59  H    0.999727
    60  H    0.999644
    61  H    0.999772
    62  H    0.999972
    63  H    0.999887
    64  H    0.999786
    65  H    0.999880
    66  H    0.999911
    67  H    0.999632
    68  H    1.000096
    69  H    0.999826
    70  H    0.999906
    71  H    0.999675
    72  H    0.999918
    73  H    0.999977
    74  H    0.999870
    75  H    1.000059
    76  H    1.000646
    77  H    0.999923
    78  H    1.000230
    79  H    0.999826
    80  Mg  11.999860
    81  C    6.019631
    82  C    5.996725
    83  C    5.972768
    84  C    6.003288
    85  N    7.006241
    86  C    5.971157
    87  C    6.009557
    88  C    5.994182
    89  C    6.024905
    90  C    5.997838
    91  C    6.002204
    92  C    6.000969
    93  H    0.995053
    94  N    6.996350
    95  C    6.039595
    96  C    6.019697
    97  C    6.013479
    98  C    6.033091
    99  C    5.997403
   100  C    6.014922
   101  O    8.029453
   102  C    5.992676
   103  N    6.992784
   104  C    6.036080
   105  C    5.988023
   106  C    6.008251
   107  C    5.972242
   108  C    6.000907
   109  C    6.008285
   110  C    6.001270
   111  N    7.002234
   112  C    5.969318
   113  C    5.965492
   114  C    6.000706
   115  C    5.970002
   116  C    6.002420
   117  C    5.982720
   118  O    7.970074
   119  C    6.005172
   120  C    5.994558
   121  O    7.995062
   122  O    7.998289
   123  C    6.001330
   124  H    1.009980
   125  H    1.004915
   126  H    0.987981
   127  H    1.000541
   128  H    1.001390
   129  H    1.011491
   130  H    0.996073
   131  H    1.000824
   132  H    0.991658
   133  H    1.007029
   134  H    0.996623
   135  H    1.004929
   136  H    1.017092
   137  H    1.017404
   138  H    1.016430
   139  H    1.007536
   140  H    1.014358
   141  H    1.007122
   142  H    0.999013
   143  H    0.998231
   144  H    0.996987
   145  H    1.009132
   146  H    0.999074
   147  H    1.001727
   148  H    0.986686
   149  H    1.000253
   150  H    0.993653
   151  H    0.999420
   152  H    0.982262
   153  H    0.978169
   154  H    0.985423
   155  H    0.990155
   156  H    1.000031
   157  H    0.995317
   158  H    0.994822
 Sum of Mulliken charges = 624.00000

 Dipole moment (field-independent basis, Debye):
    X=              6.3372    Y=              6.6213    Z=             -5.5442  Tot=             10.7116
 Quadrupole moment (field-independent basis, Debye-Ang):
   XX=            134.1637   YY=              2.7068   ZZ=             -3.9682
   XY=             76.6128   XZ=            -59.9946   YZ=             -1.5946

 Normal termination of Gaussian 16 at Fri Oct 15 00:13:11 2021.
