 Gaussian 16, Revision A.03,
 Gaussian 16:  ES64L-G16RevA.03 25-Dec-2016

 --------------------------------------------------------
 #p PBE1PBE/Def2SVP td=(nstates=5) density=(transition=1)
 --------------------------------------------------------

 --------------------------------
 TDDFT excited states in gaussian
 --------------------------------
 Symbolic Z-matrix:
 Charge =  0 Multiplicity = 1

                         Standard orientation:
 ---------------------------------------------------------------------
 Center     Atomic      Atomic             Coordinates (Angstroms)
 Number     Number       Type             X           Y           Z
 ---------------------------------------------------------------------
      1         12           0       24.034781   -0.857809    0.144895
      2          6           0       25.451563    2.198049   -0.435106
      3          6           0       22.644956    0.233569    2.969711
      4          6           0       22.963806   -3.897413    0.631059
      5          6           0       26.046287   -2.054233   -2.543035
      6          7           0       24.183129    0.992266    1.269746
      7          6           0       24.591490    2.149859    0.692481
      8          6           0       24.060515    3.356142    1.417478
      9          6           0       23.395648    2.674545    2.680082
     10          6           0       23.472042    1.199647    2.349905
     11          6           0       24.027874    3.070452    4.035999
     12          6           0       23.098294    4.331396    0.500744
     13          6           0       23.348009    5.846976    0.530830
     14          1           0       24.056180    6.421347    1.797909
     15          7           0       22.859492   -1.639592    1.448217
     16          6           0       22.354804   -1.080306    2.578787
     17          6           0       21.634179   -2.017956    3.405068
     18          6           0       21.545308   -3.148377    2.650221
     19          6           0       22.577108   -2.958623    1.583815
     20          6           0       21.224362   -1.549977    4.789487
     21          6           0       20.756430   -4.441743    2.935693
     22          8           0       20.787259   -5.423702    2.231047
     23          6           0       19.957608   -4.398374    4.204781
     24          7           0       24.610255   -2.736565   -0.746492
     25          6           0       23.882193   -3.815591   -0.407094
     26          6           0       24.230843   -5.012613   -1.297225
     27          6           0       24.972055   -4.345243   -2.505112
     28          6           0       25.263476   -2.955955   -1.901619
     29          6           0       25.040246   -6.219698   -0.657272
     30          6           0       24.138569   -4.176586   -3.831001
     31          6           0       22.850501   -3.398488   -3.891714
     32          7           0       25.412219   -0.149369   -1.315264
     33          6           0       26.226718   -0.738076   -2.287972
     34          6           0       27.063122    0.258669   -2.968636
     35          6           0       26.782043    1.443807   -2.272447
     36          6           0       25.782895    1.108601   -1.305212
     37          6           0       27.958035    0.068227   -4.166296
     38          6           0       27.076497    2.798374   -2.155487
     39          8           0       27.870039    3.532227   -2.723684
     40          6           0       26.073070    3.397655   -1.136392
     41          6           0       26.949400    4.221153   -0.272106
     42          8           0       27.657276    3.793812    0.643053
     43          8           0       26.969940    5.521247   -0.686882
     44          6           0       27.993364    6.429988   -0.160667
     45          1           0       22.051846    0.671948    3.775285
     46          1           0       22.602823   -4.925140    0.697745
     47          1           0       26.570020   -2.547854   -3.365229
     48          1           0       24.878628    3.951384    1.823185
     49          1           0       22.332284    2.912904    2.688388
     50          1           0       24.659375    2.252393    4.382315
     51          1           0       23.226843    3.213543    4.761258
     52          1           0       24.615420    3.970009    3.852061
     53          1           0       22.086983    4.128362    0.853272
     54          1           0       23.189690    4.074304   -0.554079
     55          1           0       22.399994    6.384191    0.538655
     56          1           0       23.844216    6.157053   -0.388729
     57          1           0       22.047976   -1.275597    5.448822
     58          1           0       20.785285   -2.248460    5.501580
     59          1           0       20.522918   -0.754865    4.536677
     60          1           0       19.273901   -3.549808    4.200311
     61          1           0       20.742639   -4.407844    4.960630
     62          1           0       19.261303   -5.209269    4.415579
     63          1           0       23.240514   -5.401895   -1.536140
     64          1           0       25.930337   -4.845846   -2.645418
     65          1           0       25.231801   -6.010006    0.394802
     66          1           0       26.041927   -6.280311   -1.081129
     67          1           0       24.600294   -7.212273   -0.765266
     68          1           0       23.979999   -5.227143   -4.075830
     69          1           0       24.723250   -3.720513   -4.629269
     70          1           0       22.535157   -3.136661   -2.880867
     71          1           0       22.054791   -4.009646   -4.317392
     72          1           0       22.886764   -2.437882   -4.405156
     73          1           0       29.014805    0.103016   -3.905218
     74          1           0       27.737840    0.829260   -4.915116
     75          1           0       27.746933   -0.958436   -4.466510
     76          1           0       25.267690    3.941673   -1.630199
     77          1           0       28.205753    7.251867   -0.845432
     78          1           0       28.863576    5.892219    0.212560
     79          1           0       27.689023    6.908091    0.770225
     80         12           0      -24.729504   -0.503426   -0.199033
     81          6           0      -23.610430    2.787957   -0.779277
     82          6           0      -25.043358    0.374201    3.129013
     83          6           0      -25.713825   -3.689061    0.534066
     84          6           0      -24.055182   -1.312902   -3.386400
     85          7           0      -24.395547    1.404550    1.040708
     86          6           0      -24.067064    2.674810    0.582735
     87          6           0      -24.274499    3.702048    1.677504
     88          6           0      -24.377848    2.833173    2.983460
     89          6           0      -24.632861    1.484367    2.349088
     90          6           0      -23.137428    2.909379    3.957526
     91          6           0      -25.557719    4.526958    1.498544
     92          6           0      -25.456835    5.998736    1.913345
     93          1           0      -25.312336    6.334864    3.423712
     94          7           0      -25.382745   -1.497076    1.548988
     95          6           0      -25.377953   -0.928481    2.776657
     96          6           0      -25.736412   -1.919970    3.738091
     97          6           0      -26.096804   -3.126540    3.044304
     98          6           0      -25.687750   -2.819729    1.685032
     99          6           0      -25.762308   -1.631385    5.213434
    100          6           0      -26.608953   -4.477256    3.544793
    101          8           0      -27.026018   -5.355232    2.757542
    102          6           0      -26.573296   -4.874754    5.016115
    103          7           0      -24.947476   -2.203554   -1.283039
    104          6           0      -25.303811   -3.450726   -0.778868
    105          6           0      -25.216747   -4.461707   -1.875755
    106          6           0      -24.752505   -3.755655   -3.200229
    107          6           0      -24.606313   -2.328474   -2.647987
    108          6           0      -24.440674   -5.760931   -1.503952
    109          6           0      -25.748870   -3.826178   -4.377699
    110          6           0      -25.447265   -4.964921   -5.371054
    111          7           0      -23.962017    0.444410   -1.755798
    112          6           0      -23.777007    0.039226   -3.076902
    113          6           0      -23.282814    1.156540   -3.964126
    114          6           0      -23.192271    2.210126   -3.040062
    115          6           0      -23.653156    1.765387   -1.759346
    116          6           0      -22.983866    1.076047   -5.450041
    117          6           0      -22.816810    3.613482   -2.956443
    118          8           0      -22.363157    4.380615   -3.806593
    119          6           0      -23.205407    4.051833   -1.480893
    120          6           0      -21.941954    4.728824   -0.914186
    121          8           0      -20.794977    4.366056   -1.075506
    122          8           0      -22.313439    5.932749   -0.318708
    123          6           0      -21.179800    6.662731    0.249127
    124          1           0      -25.206997    0.706593    4.156053
    125          1           0      -26.019426   -4.730440    0.652977
    126          1           0      -23.748794   -1.687106   -4.365103
    127          1           0      -23.446708    4.398322    1.809649
    128          1           0      -25.206618    3.096391    3.640751
    129          1           0      -22.372715    3.638777    3.688972
    130          1           0      -22.552246    1.997544    4.074352
    131          1           0      -23.448472    3.226378    4.952961
    132          1           0      -26.389788    4.090512    2.050584
    133          1           0      -25.843126    4.572456    0.447367
    134          1           0      -26.275479    6.592786    1.507344
    135          1           0      -24.607744    6.486487    1.435000
    136          1           0      -24.792122   -1.157209    5.362497
    137          1           0      -25.793794   -2.480308    5.896245
    138          1           0      -26.534894   -0.930686    5.529204
    139          1           0      -25.586221   -4.695999    5.442851
    140          1           0      -26.830528   -5.932804    4.968679
    141          1           0      -27.282827   -4.287540    5.599068
    142          1           0      -26.207447   -4.908727   -1.963567
    143          1           0      -23.767041   -4.051380   -3.562407
    144          1           0      -24.047885   -5.634112   -0.494890
    145          1           0      -23.601330   -5.876363   -2.189198
    146          1           0      -25.200032   -6.542211   -1.550822
    147          1           0      -25.806205   -2.828458   -4.812301
    148          1           0      -26.742898   -4.106037   -4.028178
    149          1           0      -24.877147   -5.748504   -4.871606
    150          1           0      -24.811561   -4.716246   -6.221047
    151          1           0      -26.397900   -5.402734   -5.676985
    152          1           0      -23.941422    1.011574   -5.967090
    153          1           0      -22.405457    0.208941   -5.768283
    154          1           0      -22.471012    2.005597   -5.696552
    155          1           0      -24.043080    4.744201   -1.399189
    156          1           0      -20.953073    6.420043    1.287735
    157          1           0      -21.461175    7.708852    0.129273
    158          1           0      -20.194249    6.549515   -0.202475
 ---------------------------------------------------------------------

 SCF Done:  E(RPBE1PBE) =  -4067.40021922     A.U. after   16 cycles

 Excitation energies and oscillator strengths:

 Excited State   1:      Singlet-A      1.8492 eV  670.48 nm  f=0.3639  <S**2>=0.000
     309 -> 315       -0.18101
     311 -> 313        0.69138
     311 <- 313       -0.10447
 This state for optimization and/or second-order correction.
 Total Energy, E(TD-HF/TD-DFT) =  -4067.33226316
 Copying the excited state density for this state as the 1-particle RhoCI density.

 Excited State   2:      Singlet-A      1.8816 eV  658.94 nm  f=0.0000  <S**2>=0.000
     312 -> 313        0.70711

 Excited State   3:      Singlet-A      1.8950 eV  654.28 nm  f=0.3651  <S**2>=0.000
     310 -> 316        0.18697
     312 -> 314        0.68805

 Excited State   4:      Singlet-A      2.1810 eV  568.48 nm  f=0.0000  <S**2>=0.000
     311 -> 314        0.70711

 Excited State   5:      Singlet-A      2.2265 eV  556.85 nm  f=0.0976  <S**2>=0.000
     309 -> 313        0.64901
     311 -> 315        0.27347

 The electronic state is 1-A.
 Alpha  occ. eigenvalues --  -46.91353 -46.91099 -19.26434 -19.24610 -19.20643
 Alpha  occ. eigenvalues --  -19.19922 -19.19393 -19.19359 -19.18635 -19.18084
 Alpha  occ. eigenvalues --  -14.42058 -14.41169 -14.40990 -14.40557 -14.39620
 Alpha  occ. eigenvalues --  -14.39530 -14.39093 -14.38485 -10.36734 -10.35314
 Alpha  occ. eigenvalues --  -10.32921 -10.32893 -10.32302 -10.30818 -10.29325
 Alpha  occ. eigenvalues --  -10.28736 -10.28485 -10.28393 -10.28309 -10.28285
 Alpha  occ. eigenvalues --  -10.28250 -10.28219 -10.28187 -10.28072 -10.27919
 Alpha  occ. eigenvalues --  -10.27823 -10.27510 -10.27103 -10.27099 -10.26923
 Alpha  occ. eigenvalues --  -10.26723 -10.26652 -10.26626 -10.26535 -10.26486
 Alpha  occ. eigenvalues --  -10.26423 -10.26286 -10.26204 -10.26180 -10.26160
 Alpha  occ. eigenvalues --  -10.25932 -10.25785 -10.25731 -10.25690 -10.25482
 Alpha  occ. eigenvalues --  -10.25412 -10.25404 -10.25270 -10.25231 -10.25140
 Alpha  occ. eigenvalues --  -10.25124 -10.25064 -10.25029 -10.25005 -10.25003
 Alpha  occ. eigenvalues --  -10.24528 -10.24339 -10.24077 -10.24074 -10.24047
 Alpha  occ. eigenvalues --  -10.23969 -10.23961 -10.23808 -10.23765 -10.23649
 Alpha  occ. eigenvalues --  -10.23633 -10.23531 -10.23514 -10.23475 -10.23460
 Alpha  occ. eigenvalues --  -10.23193 -10.23127 -10.23057 -10.22722 -10.22641
 Alpha  occ. eigenvalues --  -10.22012  -3.13780  -3.13455  -1.86588  -1.86296
 Alpha  occ. eigenvalues --   -1.86170  -1.86037  -1.85806  -1.85723  -1.11076
 Alpha  occ. eigenvalues --   -1.09653  -1.06072  -1.04029  -1.03911  -1.03566
 Alpha  occ. eigenvalues --   -1.03024  -1.00776  -1.00136  -0.99283  -0.99270
 Alpha  occ. eigenvalues --   -0.98834  -0.98266  -0.97836  -0.97777  -0.96123
 Alpha  occ. eigenvalues --   -0.86963  -0.86813  -0.83787  -0.83703  -0.83343
 Alpha  occ. eigenvalues --   -0.82687  -0.82611  -0.82269  -0.82241  -0.81847
 Alpha  occ. eigenvalues --   -0.81813  -0.81245  -0.81011  -0.80525  -0.78668
 Alpha  occ. eigenvalues --   -0.78630  -0.77919  -0.77892  -0.76868  -0.76715
 Alpha  occ. eigenvalues --   -0.76604  -0.75869  -0.75397  -0.75282  -0.74821
 Alpha  occ. eigenvalues --   -0.74416  -0.73208  -0.72724  -0.71851  -0.71818
 Alpha  occ. eigenvalues --   -0.71592  -0.71312  -0.70489  -0.70025  -0.69541
 Alpha  occ. eigenvalues --   -0.69435  -0.67184  -0.67148  -0.66110  -0.66101
 Alpha  occ. eigenvalues --   -0.63992  -0.63735  -0.63428  -0.63286  -0.62670
 Alpha  occ. eigenvalues --   -0.62628  -0.61698  -0.61656  -0.60205  -0.59951
 Alpha  occ. eigenvalues --   -0.59832  -0.59473  -0.59250  -0.59032  -0.58799
 Alpha  occ. eigenvalues --   -0.58335  -0.57176  -0.56349  -0.55539  -0.54923
 Alpha  occ. eigenvalues --   -0.54651  -0.53915  -0.53806  -0.53539  -0.53187
 Alpha  occ. eigenvalues --   -0.52572  -0.52373  -0.52307  -0.52122  -0.52061
 Alpha  occ. eigenvalues --   -0.50835  -0.50650  -0.50038  -0.49868  -0.49755
 Alpha  occ. eigenvalues --   -0.49624  -0.49172  -0.49086  -0.48724  -0.48407
 Alpha  occ. eigenvalues --   -0.48211  -0.48116  -0.47811  -0.47722  -0.47513
 Alpha  occ. eigenvalues --   -0.47300  -0.47179  -0.47037  -0.46883  -0.46827
 Alpha  occ. eigenvalues --   -0.46720  -0.46450  -0.46229  -0.46146  -0.45834
 Alpha  occ. eigenvalues --   -0.45822  -0.45241  -0.45157  -0.44976  -0.44840
 Alpha  occ. eigenvalues --   -0.44656  -0.44599  -0.44426  -0.44026  -0.43998
 Alpha  occ. eigenvalues --   -0.43926  -0.43726  -0.43719  -0.43541  -0.43406
 Alpha  occ. eigenvalues --   -0.43174  -0.43149  -0.42821  -0.42738  -0.42720
 Alpha  occ. eigenvalues --   -0.42658  -0.42387  -0.42219  -0.42132  -0.41850
 Alpha  occ. eigenvalues --   -0.41522  -0.41489  -0.41408  -0.41342  -0.41271
 Alpha  occ. eigenvalues --   -0.41239  -0.41012  -0.40659  -0.40522  -0.40278
 Alpha  occ. eigenvalues --   -0.40250  -0.40046  -0.39758  -0.39665  -0.39434
 Alpha  occ. eigenvalues --   -0.39323  -0.39273  -0.39216  -0.39052  -0.38873
 Alpha  occ. eigenvalues --   -0.38710  -0.38614  -0.38427  -0.38330  -0.38109
 Alpha  occ. eigenvalues --   -0.37989  -0.37954  -0.37932  -0.37746  -0.37680
 Alpha  occ. eigenvalues --   -0.37502  -0.37208  -0.37190  -0.37058  -0.36787
 Alpha  occ. eigenvalues --   -0.36759  -0.36584  -0.36435  -0.36419  -0.36098
 Alpha  occ. eigenvalues --   -0.36085  -0.35918  -0.35914  -0.35632  -0.35477
 Alpha  occ. eigenvalues --   -0.35412  -0.35205  -0.34690  -0.34482  -0.34151
 Alpha  occ. eigenvalues --   -0.33726  -0.33463  -0.33354  -0.33181  -0.32962
 Alpha  occ. eigenvalues --   -0.32254  -0.32067  -0.31887  -0.31699  -0.31500
 Alpha  occ. eigenvalues --   -0.31374  -0.30377  -0.30112  -0.29887  -0.29575
 Alpha  occ. eigenvalues --   -0.28725  -0.28466  -0.27863  -0.27678  -0.26729
 Alpha  occ. eigenvalues --   -0.26351  -0.26346  -0.26131  -0.26087  -0.25819
 Alpha  occ. eigenvalues --   -0.25557  -0.25521  -0.25116  -0.20884  -0.20668
 Alpha  occ. eigenvalues --   -0.18725  -0.18270
 Alpha virt. eigenvalues --   -0.11088  -0.10440  -0.05273  -0.05222  -0.04255
 Alpha virt. eigenvalues --   -0.03925  -0.02660  -0.01863  -0.00053   0.00274
 Alpha virt. eigenvalues --    0.00491   0.00950   0.01309   0.01626   0.01668

 Mulliken charges:
               1
     1  Mg  11.999988
     2  C    5.999907
     3  C    5.999951
     4  C    6.000057
     5  C    6.000068
     6  N    6.999977
     7  C    6.000006
     8  C    6.000019
     9  C    5.999976
    10  C    6.000099
    11  C    5.999996
    12  C    6.000015
    13  C    6.000008
    14  H    1.000010
    15  N    7.000012
    16  C    6.000093
    17  C    6.000020
    18  C    6.000051
    19  C    5.999999
    20  C    5.999997
    21  C    6.000053
    22  O    8.000064
    23  C    5.999989
    24  N    7.000030
    25  C    6.000000
    26  C    5.999982
    27  C    6.000030
    28  C    5.999901
    29  C    5.999992
    30  C    6.000019
    31  C    6.000017
    32  N    6.999981
    33  C    5.999882
    34  C    5.999972
    35  C    5.999978
    36  C    6.000035
    37  C    5.999994
    38  C    5.999920
    39  O    7.999927
    40  C    6.000021
    41  C    5.999989
    42  O    7.999994
    43  O    7.999987
    44  C    6.000002
    45  H    1.000044
    46  H    1.000014
    47  H    0.999957
    48  H    1.000005
    49  H    0.999991
    50  H    1.000020
    51  H    1.000005
    52  H    1.000035
    53  H    0.999958
    54  H    0.999997
    55  H    0.999965
    56  H    1.000000
    57  H    1.000070
    58  H    1.000067
    59  H    1.000018
    60  H    1.000001
    61  H    1.000034
    62  H    1.000062
    63  H    0.999983
    64  H    1.000007
    65  H    1.000009
    66  H    1.000036
    67  H    1.000014
    68  H    0.999973
    69  H    1.000001
    70  H    0.999974
    71  H    0.999965
    72  H    0.999990
    73  H    0.999957
    74  H    0.999937
    75  H    0.999961
    76  H    0.999962
    77  H    0.999983
    78  H    1.000011
    79  H    0.999986
    80  Mg  11.999487
    81  C    5.982723
    82  C    6.010325
    83  C    6.017339
    84  C    5.990892
    85  N    6.993822
    86  C    6.031705
    87  C    5.990628
    88  C    6.010376
    89  C    5.968157
    90  C    6.003008
    91  C    5.996886
    92  C    5.998751
    93  H    1.009288
    94  N    7.003711
    95  C    5.965405
    96  C    5.975666
    97  C    5.986828
    98  C    5.971258
    99  C    6.002096
   100  C    5.988839
   101  O    7.973612
   102  C    6.003232
   103  N    7.005893
   104  C    5.967820
   105  C    6.008871
   106  C    5.988794
   107  C    6.030387
   108  C    6.001926
   109  C    5.996287
   110  C    5.999962
   111  N    7.000381
   112  C    6.034120
   113  C    6.032255
   114  C    5.999112
   115  C    6.029114
   116  C    6.000652
   117  C    6.016471
   118  O    8.029106
   119  C    6.000126
   120  C    6.006302
   121  O    8.002225
   122  O    8.002299
   123  C    5.997682
   124  H    0.990397
   125  H    0.993835
   126  H    1.009318
   127  H    1.000431
   128  H    0.999158
   129  H    0.986911
   130  H    1.000974
   131  H    0.997789
   132  H    1.011453
   133  H    0.993500
   134  H    1.000431
   135  H    0.996116
   136  H    0.984609
   137  H    0.985053
   138  H    0.979358
   139  H    0.993466
   140  H    0.987434
   141  H    0.992569
   142  H    0.999014
   143  H    1.001289
   144  H    1.004854
   145  H    0.989743
   146  H    0.998631
   147  H    0.994365
   148  H    1.009874
   149  H    1.005906
   150  H    0.998354
   151  H    1.004143
   152  H    1.017856
   153  H    1.017706
   154  H    1.011498
   155  H    1.007886
   156  H    1.007010
   157  H    1.003542
   158  H    1.001710
 Sum of Mulliken charges = 624.00000

 Dipole moment (field-independent basis, Debye):
    X=              2.9996    Y=              5.0058    Z=             -8.3503  Tot=             10.1874
 Quadrupole moment (field-independent basis, Debye-Ang):
   XX=           -148.5841   YY=             -2.1570   ZZ=              0.7231
   XY=           -124.6334   XZ=            206.2993   YZ=              5.0673

 Normal termination of Gaussian 16 at Wed Oct 13 22:23:26 2021.
