 Gaussian 16, Revision A.03,
 Gaussian 16:  ES64L-G16RevA.03 25-Dec-2016

 --------------------------------------------------------
 #p PBE1PBE/Def2SVP td=(nstates=5) density=(transition=1)
 --------------------------------------------------------

 --------------------------------
 TDDFT excited states in gaussian
 --------------------------------
 Symbolic Z-matrix:
 Charge =  0 Multiplicity = 1

                         Standard orientation:
 ---------------------------------------------------------------------
 Center     Atomic      Atomic             Coordinates (Angstroms)
 Number     Number       Type             X           Y           Z
 ---------------------------------------------------------------------
      1         12           0       -5.054866    0.587059   -0.114123
      2          6           0       -3.104231   -2.084253   -1.485437
      3          6           0       -7.804191   -1.470720   -0.139967
      4          6           0       -7.066172    3.164453    0.734114
      5          6           0       -2.445735    2.763159   -1.061951
      6          7           0       -5.377879   -1.524582   -0.733324
      7          6           0       -4.450555   -2.470000   -1.198973
      8          6           0       -5.137181   -3.803801   -1.344609
      9          6           0       -6.668461   -3.391944   -1.404837
     10          6           0       -6.626097   -1.977090   -0.756271
     11          6           0       -7.099541   -3.356094   -2.914388
     12          6           0       -4.722681   -4.861982   -0.262121
     13          6           0       -4.497875   -6.151339   -0.875563
     14          1           0       -3.732185   -7.222097    0.052833
     15          7           0       -7.124433    0.686518    0.398347
     16          6           0       -8.059873   -0.269826    0.357687
     17          6           0       -9.282758    0.241664    0.895962
     18          6           0       -9.116582    1.587957    1.144463
     19          6           0       -7.652639    1.901218    0.802886
     20          6           0      -10.594540   -0.605185    0.930291
     21          6           0      -10.113536    2.593456    1.756396
     22          8           0       -9.787985    3.748662    1.863528
     23          6           0      -11.444069    2.129268    2.300368
     24          7           0       -4.855071    2.695699   -0.428423
     25          6           0       -5.802669    3.530978    0.152929
     26          6           0       -5.296355    4.934582    0.230177
     27          6           0       -3.795215    4.811395   -0.327839
     28          6           0       -3.646693    3.327631   -0.569042
     29          6           0       -6.174295    5.914347   -0.472356
     30          6           0       -2.599775    5.413641    0.595882
     31          6           0       -1.774568    6.506668    0.041203
     32          7           0       -3.128728    0.437024   -1.028949
     33          6           0       -2.223082    1.428049   -1.333762
     34          6           0       -0.973819    0.758087   -1.902383
     35          6           0       -1.229149   -0.627643   -1.874213
     36          6           0       -2.574557   -0.767220   -1.383334
     37          6           0        0.262878    1.511970   -2.410097
     38          6           0       -0.683238   -1.880030   -2.301973
     39          8           0        0.428596   -2.148642   -2.810381
     40          6           0       -1.924520   -2.861153   -2.232006
     41          6           0       -1.382617   -4.164534   -1.571821
     42          8           0       -1.594922   -4.404309   -0.369041
     43          8           0       -0.783449   -4.940011   -2.508518
     44          6           0       -0.094466   -6.083780   -1.817725
     45          1           0       -8.620717   -2.166485    0.065906
     46          1           0       -7.691525    4.012464    1.023260
     47          1           0       -1.549266    3.341061   -1.295546
     48          1           0       -4.886054   -4.156318   -2.344736
     49          1           0       -7.299725   -4.105161   -0.876001
     50          1           0       -6.712566   -2.494721   -3.458238
     51          1           0       -8.186064   -3.408491   -2.969337
     52          1           0       -6.731704   -4.257874   -3.404419
     53          1           0       -5.608284   -5.031937    0.350652
     54          1           0       -3.900553   -4.509125    0.360986
     55          1           0       -3.788184   -6.076317   -1.699638
     56          1           0       -5.470355   -6.545324   -1.171819
     57          1           0      -10.883112   -0.560545    1.980412
     58          1           0      -10.471086   -1.654584    0.663093
     59          1           0      -11.324713   -0.184432    0.239106
     60          1           0      -12.047588    2.981192    2.613763
     61          1           0      -11.039563    1.541613    3.124408
     62          1           0      -11.938668    1.541025    1.527478
     63          1           0       -5.284314    5.121322    1.304157
     64          1           0       -3.770612    5.356858   -1.270890
     65          1           0       -6.622937    6.497875    0.330584
     66          1           0       -7.021969    5.445479   -0.971838
     67          1           0       -5.677127    6.551429   -1.204187
     68          1           0       -1.933209    4.555936    0.685651
     69          1           0       -3.019052    5.629184    1.577752
     70          1           0       -0.735525    6.198105   -0.071071
     71          1           0       -1.833397    7.157645    0.912811
     72          1           0       -2.236111    7.005069   -0.812341
     73          1           0        0.109975    1.636749   -3.481498
     74          1           0        1.188033    0.962700   -2.235737
     75          1           0        0.353192    2.451168   -1.864286
     76          1           0       -2.182832   -3.003241   -3.280491
     77          1           0        0.821038   -5.816820   -1.290073
     78          1           0        0.142589   -6.929786   -2.462026
     79          1           0       -0.832990   -6.492634   -1.127852
     80         12           0        4.872511    0.582080    0.187362
     81          6           0        3.298100   -2.426383    0.922786
     82          6           0        7.836091   -1.139745    0.027199
     83          6           0        6.491057    3.594219   -0.284045
     84          6           0        1.953095    2.341914    0.915768
     85          7           0        5.452999   -1.553469    0.353736
     86          6           0        4.655231   -2.618240    0.543623
     87          6           0        5.356399   -3.989139    0.400001
     88          6           0        6.880488   -3.543850    0.347687
     89          6           0        6.757957   -1.946593    0.276722
     90          6           0        7.621336   -4.103565    1.614112
     91          6           0        4.805275   -4.661912   -0.960105
     92          6           0        4.216976   -6.098347   -0.836990
     93          1           0        4.694794   -6.878532    0.440799
     94          7           0        6.869292    1.203427   -0.021061
     95          6           0        7.944550    0.299751   -0.147112
     96          6           0        9.121189    1.033651   -0.561646
     97          6           0        8.777034    2.390539   -0.607809
     98          6           0        7.287187    2.457215   -0.372264
     99          6           0       10.508572    0.376136   -0.566039
    100          6           0        9.703320    3.602802   -0.891192
    101          8           0        9.336811    4.792393   -0.925119
    102          6           0       11.177383    3.325310   -1.232907
    103          7           0        4.271903    2.658922    0.389795
    104          6           0        5.173651    3.717309    0.063766
    105          6           0        4.535048    5.084429    0.386235
    106          6           0        2.994464    4.667553    0.494839
    107          6           0        3.064718    3.119315    0.561414
    108          6           0        5.199924    5.676831    1.617792
    109          6           0        2.174370    5.133761   -0.781149
    110          6           0        2.560342    4.823826   -2.267606
    111          7           0        3.038974    0.121815    0.862186
    112          6           0        1.930450    0.927802    1.139114
    113          6           0        0.842800    0.099179    1.547204
    114          6           0        1.299649   -1.202028    1.440353
    115          6           0        2.679044   -1.158211    1.119902
    116          6           0       -0.514569    0.543921    2.052299
    117          6           0        0.919853   -2.550893    1.588499
    118          8           0       -0.114838   -2.965589    2.004344
    119          6           0        2.245068   -3.392116    1.370328
    120          6           0        2.567353   -4.010776    2.702461
    121          8           0        3.463243   -3.631885    3.427663
    122          8           0        1.677011   -4.986664    2.916821
    123          6           0        1.575333   -5.359054    4.306646
    124          1           0        8.770921   -1.687700   -0.106270
    125          1           0        7.050580    4.527129   -0.196072
    126          1           0        1.033424    2.879287    1.158540
    127          1           0        5.159087   -4.696993    1.204827
    128          1           0        7.418955   -3.856926   -0.547112
    129          1           0        8.297846   -3.401566    2.102165
    130          1           0        8.154101   -4.927489    1.140182
    131          1           0        6.856603   -4.539239    2.256690
    132          1           0        5.595537   -4.570577   -1.704958
    133          1           0        4.014006   -4.009308   -1.329839
    134          1           0        4.591299   -6.551971   -1.754068
    135          1           0        3.128812   -6.153034   -0.848522
    136          1           0       11.146668    0.975261    0.084055
    137          1           0       10.940029    0.451852   -1.565048
    138          1           0       10.428482   -0.660795   -0.241229
    139          1           0       11.662860    3.020842   -0.304776
    140          1           0       11.606451    4.295800   -1.481645
    141          1           0       11.234233    2.724026   -2.139949
    142          1           0        4.650403    5.663596   -0.530395
    143          1           0        2.526277    5.197016    1.323854
    144          1           0        6.234706    5.357014    1.741535
    145          1           0        4.652499    5.401294    2.518894
    146          1           0        5.264375    6.761789    1.537845
    147          1           0        2.014517    6.208524   -0.694356
    148          1           0        1.237833    4.587425   -0.668991
    149          1           0        3.226573    5.612335   -2.617878
    150          1           0        1.619463    4.844265   -2.818789
    151          1           0        2.942882    3.822163   -2.466245
    152          1           0       -1.055806    1.136444    1.314461
    153          1           0       -0.277431    1.168493    2.913322
    154          1           0       -1.241127   -0.252436    2.219625
    155          1           0        2.211299   -4.218995    0.660711
    156          1           0        0.585089   -5.706849    4.599915
    157          1           0        1.977942   -4.728699    5.099399
    158          1           0        2.186825   -6.222463    4.569653
 ---------------------------------------------------------------------

 SCF Done:  E(RPBE1PBE) =  -4067.34967632     A.U. after   16 cycles

 Excitation energies and oscillator strengths:

 Excited State   1:      Singlet-A      1.6081 eV  771.01 nm  f=0.0164  <S**2>=0.000
     312 -> 313        0.68119
     312 -> 314       -0.16097
 This state for optimization and/or second-order correction.
 Total Energy, E(TD-HF/TD-DFT) =  -4067.29058055
 Copying the excited state density for this state as the 1-particle RhoCI density.

 Excited State   2:      Singlet-A      1.7594 eV  704.70 nm  f=0.1685  <S**2>=0.000
     311 -> 313        0.39393
     311 -> 314        0.48697
     312 -> 313       -0.10497
     312 -> 314       -0.30400

 Excited State   3:      Singlet-A      1.8122 eV  684.18 nm  f=0.5910  <S**2>=0.000
     309 -> 315       -0.13996
     311 -> 313       -0.15030
     311 -> 314        0.46187
     312 -> 313        0.14785
     312 -> 314        0.47363

 Excited State   4:      Singlet-A      1.8749 eV  661.30 nm  f=0.0763  <S**2>=0.000
     310 -> 316       -0.14918
     311 -> 313        0.54440
     311 -> 314       -0.21140
     312 -> 314        0.36793

 Excited State   5:      Singlet-A      2.2228 eV  557.77 nm  f=0.0738  <S**2>=0.000
     310 -> 313        0.65161
     311 -> 316        0.22518

 The electronic state is 1-A.
 Alpha  occ. eigenvalues --  -46.92818 -46.91002 -19.26799 -19.26167 -19.19793
 Alpha  occ. eigenvalues --  -19.19660 -19.19477 -19.19238 -19.18630 -19.18501
 Alpha  occ. eigenvalues --  -14.41707 -14.41539 -14.41247 -14.40544 -14.38971
 Alpha  occ. eigenvalues --  -14.38933 -14.38878 -14.38133 -10.36519 -10.35675
 Alpha  occ. eigenvalues --  -10.32609 -10.32242 -10.32077 -10.30880 -10.28999
 Alpha  occ. eigenvalues --  -10.28886 -10.28880 -10.28872 -10.28708 -10.28631
 Alpha  occ. eigenvalues --  -10.28524 -10.28069 -10.27902 -10.27752 -10.27347
 Alpha  occ. eigenvalues --  -10.27285 -10.27195 -10.27190 -10.27182 -10.27116
 Alpha  occ. eigenvalues --  -10.26665 -10.26646 -10.26453 -10.26318 -10.26226
 Alpha  occ. eigenvalues --  -10.26102 -10.25890 -10.25837 -10.25828 -10.25818
 Alpha  occ. eigenvalues --  -10.25582 -10.25393 -10.25377 -10.25263 -10.25241
 Alpha  occ. eigenvalues --  -10.25163 -10.25140 -10.24989 -10.24965 -10.24853
 Alpha  occ. eigenvalues --  -10.24841 -10.24757 -10.24732 -10.24353 -10.24287
 Alpha  occ. eigenvalues --  -10.24272 -10.24263 -10.24105 -10.24040 -10.23931
 Alpha  occ. eigenvalues --  -10.23890 -10.23785 -10.23762 -10.23645 -10.23516
 Alpha  occ. eigenvalues --  -10.23075 -10.22966 -10.22910 -10.22881 -10.22845
 Alpha  occ. eigenvalues --  -10.22827 -10.22627 -10.22594 -10.22513 -10.22494
 Alpha  occ. eigenvalues --  -10.21530  -3.14743  -3.13184  -1.87577  -1.87103
 Alpha  occ. eigenvalues --   -1.86966  -1.86025  -1.85537  -1.85429  -1.12315
 Alpha  occ. eigenvalues --   -1.10756  -1.06278  -1.05664  -1.03265  -1.02844
 Alpha  occ. eigenvalues --   -1.02780  -1.01722  -0.98569  -0.98193  -0.97573
 Alpha  occ. eigenvalues --   -0.97475  -0.97413  -0.96825  -0.96284  -0.95544
 Alpha  occ. eigenvalues --   -0.86425  -0.85663  -0.83138  -0.82890  -0.82580
 Alpha  occ. eigenvalues --   -0.82560  -0.81906  -0.81821  -0.81614  -0.81531
 Alpha  occ. eigenvalues --   -0.80890  -0.80420  -0.79946  -0.79869  -0.78698
 Alpha  occ. eigenvalues --   -0.78143  -0.77721  -0.77333  -0.76844  -0.76543
 Alpha  occ. eigenvalues --   -0.76275  -0.75052  -0.75031  -0.74847  -0.74812
 Alpha  occ. eigenvalues --   -0.73759  -0.72386  -0.71919  -0.71617  -0.71145
 Alpha  occ. eigenvalues --   -0.70871  -0.70570  -0.69836  -0.69702  -0.69246
 Alpha  occ. eigenvalues --   -0.68968  -0.66846  -0.66610  -0.65961  -0.65248
 Alpha  occ. eigenvalues --   -0.63143  -0.63122  -0.62595  -0.62423  -0.61902
 Alpha  occ. eigenvalues --   -0.61862  -0.60646  -0.60476  -0.59797  -0.59538
 Alpha  occ. eigenvalues --   -0.59322  -0.58990  -0.58841  -0.58638  -0.58555
 Alpha  occ. eigenvalues --   -0.58169  -0.56688  -0.56496  -0.54422  -0.53958
 Alpha  occ. eigenvalues --   -0.53666  -0.53436  -0.53104  -0.53043  -0.52825
 Alpha  occ. eigenvalues --   -0.52326  -0.52056  -0.52030  -0.51472  -0.51390
 Alpha  occ. eigenvalues --   -0.50539  -0.50209  -0.50022  -0.49867  -0.49656
 Alpha  occ. eigenvalues --   -0.49035  -0.48846  -0.48628  -0.48560  -0.48295
 Alpha  occ. eigenvalues --   -0.48119  -0.48040  -0.47607  -0.47420  -0.47387
 Alpha  occ. eigenvalues --   -0.47289  -0.47160  -0.46978  -0.46727  -0.46657
 Alpha  occ. eigenvalues --   -0.46507  -0.46283  -0.45972  -0.45693  -0.45622
 Alpha  occ. eigenvalues --   -0.45280  -0.45163  -0.45042  -0.44878  -0.44550
 Alpha  occ. eigenvalues --   -0.44495  -0.44090  -0.44003  -0.43909  -0.43771
 Alpha  occ. eigenvalues --   -0.43442  -0.43402  -0.43378  -0.43282  -0.43181
 Alpha  occ. eigenvalues --   -0.42894  -0.42803  -0.42609  -0.42587  -0.42474
 Alpha  occ. eigenvalues --   -0.42304  -0.42172  -0.42046  -0.41800  -0.41459
 Alpha  occ. eigenvalues --   -0.41345  -0.41209  -0.41030  -0.40982  -0.40799
 Alpha  occ. eigenvalues --   -0.40637  -0.40500  -0.40478  -0.40205  -0.40111
 Alpha  occ. eigenvalues --   -0.39656  -0.39538  -0.39416  -0.39255  -0.39152
 Alpha  occ. eigenvalues --   -0.39096  -0.38971  -0.38918  -0.38786  -0.38466
 Alpha  occ. eigenvalues --   -0.38445  -0.38271  -0.38077  -0.37968  -0.37818
 Alpha  occ. eigenvalues --   -0.37774  -0.37662  -0.37599  -0.37449  -0.37324
 Alpha  occ. eigenvalues --   -0.37244  -0.37213  -0.36862  -0.36849  -0.36775
 Alpha  occ. eigenvalues --   -0.36590  -0.36398  -0.36261  -0.36037  -0.35822
 Alpha  occ. eigenvalues --   -0.35728  -0.35534  -0.35266  -0.35040  -0.34801
 Alpha  occ. eigenvalues --   -0.34716  -0.34297  -0.33810  -0.33674  -0.33389
 Alpha  occ. eigenvalues --   -0.33065  -0.32338  -0.32274  -0.32104  -0.32070
 Alpha  occ. eigenvalues --   -0.31873  -0.31834  -0.31458  -0.31173  -0.31156
 Alpha  occ. eigenvalues --   -0.30771  -0.29811  -0.29282  -0.29137  -0.28920
 Alpha  occ. eigenvalues --   -0.28705  -0.28163  -0.27767  -0.27118  -0.26667
 Alpha  occ. eigenvalues --   -0.26010  -0.25972  -0.25514  -0.25474  -0.25137
 Alpha  occ. eigenvalues --   -0.25080  -0.24767  -0.24670  -0.21079  -0.20214
 Alpha  occ. eigenvalues --   -0.18160  -0.17940
 Alpha virt. eigenvalues --   -0.10526  -0.10253  -0.05908  -0.04514  -0.04272
 Alpha virt. eigenvalues --   -0.03027  -0.01995  -0.01414  -0.01002   0.00115
 Alpha virt. eigenvalues --    0.00527   0.00844   0.01067   0.01771   0.02090

 Mulliken charges:
               1
     1  Mg  12.000233
     2  C    6.002098
     3  C    6.001059
     4  C    5.997325
     5  C    5.998406
     6  N    7.001647
     7  C    5.997435
     8  C    6.000636
     9  C    5.998567
    10  C    6.002808
    11  C    5.999514
    12  C    6.000469
    13  C    5.999570
    14  H    1.000796
    15  N    6.998844
    16  C    6.002394
    17  C    6.002227
    18  C    6.000930
    19  C    6.004554
    20  C    5.999901
    21  C    6.001331
    22  O    8.002328
    23  C    5.999873
    24  N    6.998646
    25  C    6.005459
    26  C    5.998537
    27  C    6.000170
    28  C    6.000777
    29  C    5.999528
    30  C    6.000544
    31  C    5.999910
    32  N    6.999366
    33  C    6.000409
    34  C    5.992145
    35  C    6.002068
    36  C    5.997708
    37  C    6.000684
    38  C    5.997086
    39  O    7.997301
    40  C    6.000503
    41  C    5.999736
    42  O    7.998771
    43  O    8.000156
    44  C    6.000174
    45  H    1.001853
    46  H    1.000987
    47  H    1.000430
    48  H    1.000856
    49  H    1.000707
    50  H    1.000886
    51  H    1.000149
    52  H    1.001629
    53  H    0.999127
    54  H    1.000439
    55  H    1.000723
    56  H    0.999560
    57  H    1.001583
    58  H    1.001623
    59  H    1.001804
    60  H    1.001616
    61  H    1.000642
    62  H    1.000640
    63  H    1.000896
    64  H    1.000795
    65  H    1.000593
    66  H    0.999987
    67  H    1.001611
    68  H    1.000443
    69  H    0.999662
    70  H    1.001031
    71  H    0.999971
    72  H    0.999894
    73  H    0.998889
    74  H    0.998918
    75  H    0.997715
    76  H    0.999171
    77  H    1.000244
    78  H    0.999749
    79  H    0.999422
    80  Mg  11.999756
    81  C    5.998926
    82  C    6.000080
    83  C    6.000288
    84  C    6.000849
    85  N    6.999484
    86  C    6.001425
    87  C    5.999440
    88  C    6.000500
    89  C    5.998504
    90  C    6.000259
    91  C    5.999883
    92  C    6.000112
    93  H    0.999644
    94  N    7.000275
    95  C    5.997574
    96  C    5.998818
    97  C    5.998889
    98  C    5.997975
    99  C    6.000153
   100  C    5.998971
   101  O    7.997975
   102  C    6.000437
   103  N    6.999883
   104  C    5.998433
   105  C    6.000462
   106  C    5.999471
   107  C    6.001395
   108  C    6.000401
   109  C    6.000034
   110  C    6.000541
   111  N    6.999712
   112  C    6.001672
   113  C    6.001008
   114  C    5.999874
   115  C    6.001916
   116  C    6.000431
   117  C    6.000926
   118  O    8.000215
   119  C    5.999987
   120  C    5.999904
   121  O    8.000292
   122  O    7.999960
   123  C    6.000080
   124  H    0.998868
   125  H    0.999212
   126  H    0.999890
   127  H    0.999672
   128  H    0.999671
   129  H    0.999989
   130  H    0.999361
   131  H    0.999102
   132  H    1.000335
   133  H    1.000049
   134  H    0.999893
   135  H    0.999716
   136  H    0.998778
   137  H    0.998666
   138  H    0.998873
   139  H    0.999295
   140  H    0.998770
   141  H    0.999402
   142  H    0.999718
   143  H    0.999445
   144  H    1.000313
   145  H    0.999086
   146  H    0.999191
   147  H    0.999560
   148  H    0.999346
   149  H    0.999848
   150  H    0.999597
   151  H    1.000565
   152  H    1.001485
   153  H    0.999295
   154  H    0.999480
   155  H    1.000242
   156  H    0.999637
   157  H    0.999936
   158  H    1.000034
 Sum of Mulliken charges = 624.00000

 Dipole moment (field-independent basis, Debye):
    X=             -2.2977    Y=              0.0125    Z=              0.3177  Tot=              2.3196
 Quadrupole moment (field-independent basis, Debye-Ang):
   XX=              4.2602   YY=              0.0022   ZZ=             -0.2013
   XY=             -2.7479   XZ=             -0.5700   YZ=              0.4227

 Normal termination of Gaussian 16 at Thu Oct 14 19:39:10 2021.
