 Gaussian 16, Revision A.03,
 Gaussian 16:  ES64L-G16RevA.03 25-Dec-2016

 --------------------------------------------------------
 #p PBE1PBE/Def2SVP td=(nstates=5) density=(transition=1)
 --------------------------------------------------------

 --------------------------------
 TDDFT excited states in gaussian
 --------------------------------
 Symbolic Z-matrix:
 Charge =  0 Multiplicity = 1

                         Standard orientation:
 ---------------------------------------------------------------------
 Center     Atomic      Atomic             Coordinates (Angstroms)
 Number     Number       Type             X           Y           Z
 ---------------------------------------------------------------------
      1         12           0      -22.049458   -0.749649   -0.208770
      2          6           0      -23.662856    2.102198    1.283250
      3          6           0      -19.936578    1.453429   -1.737178
      4          6           0      -20.750532   -3.384507   -1.827959
      5          6           0      -24.551589   -2.689372    1.027344
      6          7           0      -21.808886    1.616315   -0.164094
      7          6           0      -22.576512    2.481812    0.559853
      8          6           0      -21.946847    3.818740    0.452682
      9          6           0      -20.833812    3.663108   -0.620305
     10          6           0      -20.829371    2.146038   -0.953401
     11          6           0      -21.134439    4.509580   -1.898024
     12          6           0      -21.444679    4.415788    1.743463
     13          6           0      -21.003369    5.870329    1.765809
     14          1           0      -21.552987    6.714674    2.837691
     15          7           0      -20.501333   -0.946536   -1.485825
     16          6           0      -19.787732    0.120424   -2.098325
     17          6           0      -18.705336   -0.498235   -2.886545
     18          6           0      -19.016714   -1.853170   -2.964619
     19          6           0      -20.188688   -2.107747   -2.107401
     20          6           0      -17.654410    0.346816   -3.575705
     21          6           0      -18.280353   -2.991941   -3.702790
     22          8           0      -18.761290   -4.124249   -3.895915
     23          6           0      -16.912968   -2.705338   -4.173389
     24          7           0      -22.600957   -2.781387   -0.447942
     25          6           0      -21.945263   -3.699318   -1.128072
     26          6           0      -22.614714   -5.100217   -1.079227
     27          6           0      -23.651900   -4.879390    0.024033
     28          6           0      -23.572319   -3.386679    0.248092
     29          6           0      -23.259180   -5.478869   -2.455329
     30          6           0      -23.465661   -5.662189    1.304236
     31          6           0      -24.730548   -6.281587    1.924737
     32          7           0      -23.685335   -0.387274    0.986330
     33          6           0      -24.614310   -1.310300    1.414457
     34          6           0      -25.627348   -0.683685    2.316326
     35          6           0      -25.235094    0.636104    2.218499
     36          6           0      -24.119005    0.793841    1.387982
     37          6           0      -26.647138   -1.351706    3.181644
     38          6           0      -25.593382    1.964964    2.692033
     39          8           0      -26.487574    2.263787    3.475507
     40          6           0      -24.591541    2.990236    2.113256
     41          6           0      -25.378317    4.043955    1.524879
     42          8           0      -25.993532    4.005764    0.432096
     43          8           0      -25.238449    5.193161    2.241976
     44          6           0      -25.722609    6.431177    1.671355
     45          1           0      -19.200434    2.136847   -2.164930
     46          1           0      -20.438811   -4.207672   -2.474006
     47          1           0      -25.415392   -3.341101    1.172833
     48          1           0      -22.754449    4.431494    0.054314
     49          1           0      -19.855930    3.975567   -0.253537
     50          1           0      -20.416494    5.196283   -2.347570
     51          1           0      -21.996258    5.114351   -1.616298
     52          1           0      -21.551939    3.949922   -2.735460
     53          1           0      -20.539862    3.912640    2.084833
     54          1           0      -22.071046    4.139237    2.591117
     55          1           0      -21.277204    6.369686    0.837631
     56          1           0      -19.957227    5.844953    2.069734
     57          1           0      -17.464420    0.068171   -4.612009
     58          1           0      -16.691471    0.360425   -3.065551
     59          1           0      -17.915108    1.399155   -3.691152
     60          1           0      -16.341356   -2.296023   -3.340309
     61          1           0      -17.086117   -1.942625   -4.931793
     62          1           0      -16.465839   -3.668107   -4.418131
     63          1           0      -21.831383   -5.798183   -0.781729
     64          1           0      -24.690942   -5.056272   -0.252355
     65          1           0      -24.346618   -5.509811   -2.394118
     66          1           0      -22.960784   -6.478774   -2.770416
     67          1           0      -22.950084   -4.691420   -3.142872
     68          1           0      -22.969966   -5.069688    2.072558
     69          1           0      -22.629269   -6.325029    1.084820
     70          1           0      -24.406916   -7.162360    2.478501
     71          1           0      -25.527969   -6.443670    1.198857
     72          1           0      -25.060506   -5.470877    2.573995
     73          1           0      -26.359522   -1.436372    4.229765
     74          1           0      -26.900372   -2.275509    2.662270
     75          1           0      -27.604036   -0.841813    3.063325
     76          1           0      -24.147008    3.456453    2.992490
     77          1           0      -26.068748    6.352174    0.640454
     78          1           0      -24.988028    7.225932    1.798283
     79          1           0      -26.580310    6.824633    2.217548
     80         12           0       22.379993   -0.612821    0.541576
     81          6           0       22.591411    2.413124   -1.435122
     82          6           0       23.339092    1.201824    3.036486
     83          6           0       22.392236   -3.518555    2.096922
     84          6           0       22.115410   -2.577110   -2.504932
     85          7           0       22.789074    1.636486    0.767532
     86          6           0       22.835701    2.691393   -0.120075
     87          6           0       23.246927    3.936878    0.578879
     88          6           0       23.939017    3.418680    1.865777
     89          6           0       23.370254    1.980419    1.895886
     90          6           0       25.481760    3.398565    1.796240
     91          6           0       21.982796    4.759915    0.973229
     92          6           0       22.048429    6.315174    0.715417
     93          1           0       20.714948    7.159020    0.627215
     94          7           0       22.789921   -1.067776    2.437616
     95          6           0       23.061300   -0.191430    3.367702
     96          6           0       23.136747   -0.888388    4.637835
     97          6           0       22.735615   -2.211047    4.335594
     98          6           0       22.650913   -2.304304    2.903329
     99          6           0       23.411481   -0.123514    5.945312
    100          6           0       22.512044   -3.322373    5.323003
    101          8           0       22.203128   -4.411759    4.941987
    102          6           0       22.580257   -3.023286    6.785117
    103          7           0       22.547140   -2.812107   -0.213357
    104          6           0       22.369689   -3.737499    0.727278
    105          6           0       22.027327   -5.060056    0.151316
    106          6           0       22.145064   -4.750135   -1.374624
    107          6           0       22.289078   -3.251952   -1.423937
    108          6           0       22.825311   -6.313670    0.661141
    109          6           0       20.900820   -5.311544   -2.167450
    110          6           0       21.059648   -6.578563   -3.053382
    111          7           0       22.353626   -0.272963   -1.466158
    112          6           0       22.166913   -1.103410   -2.593786
    113          6           0       22.120622   -0.271312   -3.813838
    114          6           0       22.259519    1.041759   -3.384436
    115          6           0       22.440733    1.024799   -2.011857
    116          6           0       22.090288   -0.813843   -5.263260
    117          6           0       22.309572    2.445889   -3.904900
    118          8           0       22.182920    2.938017   -5.001227
    119          6           0       22.703884    3.392755   -2.663650
    120          6           0       21.920422    4.572843   -2.632205
    121          8           0       20.867865    4.646339   -1.982771
    122          8           0       22.365692    5.641961   -3.403387
    123          6           0       21.695555    6.970254   -3.255004
    124          1           0       23.611826    1.703628    3.966550
    125          1           0       22.332084   -4.475521    2.619281
    126          1           0       22.026783   -3.151713   -3.428206
    127          1           0       24.012396    4.452664   -0.001471
    128          1           0       23.718344    3.957131    2.787241
    129          1           0       25.907286    4.037288    2.570802
    130          1           0       25.758480    3.771027    0.810372
    131          1           0       25.927989    2.406919    1.876297
    132          1           0       21.869771    4.594276    2.044782
    133          1           0       21.148135    4.284978    0.457994
    134          1           0       22.639535    6.473520   -0.186185
    135          1           0       22.622939    6.663677    1.574487
    136          1           0       22.521069   -0.184567    6.572389
    137          1           0       23.736203    0.910507    5.834499
    138          1           0       24.141645   -0.662644    6.548208
    139          1           0       21.821362   -2.307561    7.100127
    140          1           0       23.477426   -2.517570    7.141931
    141          1           0       22.363907   -3.937310    7.338723
    142          1           0       20.978120   -5.253067    0.374988
    143          1           0       23.097604   -5.129060   -1.745642
    144          1           0       23.451827   -5.962100    1.480224
    145          1           0       23.373038   -6.894986   -0.081430
    146          1           0       22.109417   -7.044549    1.037569
    147          1           0       20.545762   -4.543372   -2.854973
    148          1           0       20.087737   -5.301858   -1.441579
    149          1           0       20.233063   -7.264608   -2.869172
    150          1           0       22.017987   -7.052525   -2.840454
    151          1           0       21.020970   -6.315290   -4.111084
    152          1           0       21.534002   -1.750736   -5.253729
    153          1           0       23.102788   -1.085157   -5.563048
    154          1           0       21.638882   -0.104741   -5.957555
    155          1           0       23.753767    3.663438   -2.771877
    156          1           0       21.823826    7.363901   -2.245704
    157          1           0       20.694874    6.963897   -3.685421
    158          1           0       22.315446    7.688522   -3.791443
 ---------------------------------------------------------------------

 SCF Done:  E(RPBE1PBE) =  -4067.35633558     A.U. after   16 cycles

 Excitation energies and oscillator strengths:

 Excited State   1:      Singlet-A      1.8640 eV  665.15 nm  f=0.0000  <S**2>=0.000
     312 -> 313        0.70711
 This state for optimization and/or second-order correction.
 Total Energy, E(TD-HF/TD-DFT) =  -4067.28783481
 Copying the excited state density for this state as the 1-particle RhoCI density.

 Excited State   2:      Singlet-A      1.8807 eV  659.25 nm  f=0.3628  <S**2>=0.000
     310 -> 316        0.15940
     311 -> 313        0.69579
     311 <- 313       -0.11003

 Excited State   3:      Singlet-A      1.9171 eV  646.72 nm  f=0.3731  <S**2>=0.000
     309 -> 315        0.19067
     312 -> 314        0.68789

 Excited State   4:      Singlet-A      2.2220 eV  557.98 nm  f=0.0000  <S**2>=0.000
     311 -> 314        0.70711

 Excited State   5:      Singlet-A      2.3255 eV  533.16 nm  f=0.0761  <S**2>=0.000
     309 -> 314        0.63284
     312 -> 315       -0.30864

 The electronic state is 1-A.
 Alpha  occ. eigenvalues --  -46.92865 -46.91898 -19.25818 -19.24694 -19.20103
 Alpha  occ. eigenvalues --  -19.19261 -19.19210 -19.19086 -19.18855 -19.18825
 Alpha  occ. eigenvalues --  -14.41405 -14.41218 -14.40616 -14.39767 -14.39715
 Alpha  occ. eigenvalues --  -14.39421 -14.39262 -14.39259 -10.36120 -10.35549
 Alpha  occ. eigenvalues --  -10.33362 -10.32328 -10.32052 -10.31644 -10.28920
 Alpha  occ. eigenvalues --  -10.28537 -10.28537 -10.28455 -10.28435 -10.28402
 Alpha  occ. eigenvalues --  -10.28258 -10.28214 -10.28146 -10.28038 -10.28035
 Alpha  occ. eigenvalues --  -10.27969 -10.27955 -10.27816 -10.27548 -10.27494
 Alpha  occ. eigenvalues --  -10.26687 -10.26672 -10.26634 -10.26506 -10.26123
 Alpha  occ. eigenvalues --  -10.26078 -10.26017 -10.25973 -10.25906 -10.25849
 Alpha  occ. eigenvalues --  -10.25824 -10.25784 -10.25772 -10.25584 -10.25440
 Alpha  occ. eigenvalues --  -10.25381 -10.25367 -10.25011 -10.24961 -10.24944
 Alpha  occ. eigenvalues --  -10.24917 -10.24710 -10.24692 -10.24635 -10.24553
 Alpha  occ. eigenvalues --  -10.24496 -10.24464 -10.23960 -10.23871 -10.23741
 Alpha  occ. eigenvalues --  -10.23740 -10.23688 -10.23677 -10.23592 -10.23503
 Alpha  occ. eigenvalues --  -10.23485 -10.23479 -10.23441 -10.23410 -10.23318
 Alpha  occ. eigenvalues --  -10.23289 -10.23203 -10.23172 -10.23168 -10.23042
 Alpha  occ. eigenvalues --  -10.22348  -3.14968  -3.14082  -1.87794  -1.87348
 Alpha  occ. eigenvalues --   -1.87192  -1.86932  -1.86447  -1.86318  -1.10889
 Alpha  occ. eigenvalues --   -1.08990  -1.06733  -1.05845  -1.04228  -1.03716
 Alpha  occ. eigenvalues --   -1.00932  -1.00740  -1.00526  -1.00432  -0.99646
 Alpha  occ. eigenvalues --   -0.99509  -0.99313  -0.97678  -0.96809  -0.95958
 Alpha  occ. eigenvalues --   -0.87553  -0.85738  -0.84426  -0.83582  -0.83574
 Alpha  occ. eigenvalues --   -0.83275  -0.82778  -0.82327  -0.82002  -0.81863
 Alpha  occ. eigenvalues --   -0.81812  -0.81392  -0.80975  -0.79761  -0.78982
 Alpha  occ. eigenvalues --   -0.78690  -0.78339  -0.77422  -0.77214  -0.76746
 Alpha  occ. eigenvalues --   -0.76358  -0.76087  -0.75591  -0.75350  -0.75274
 Alpha  occ. eigenvalues --   -0.74750  -0.72967  -0.72937  -0.72035  -0.71762
 Alpha  occ. eigenvalues --   -0.71486  -0.71104  -0.70874  -0.70544  -0.69771
 Alpha  occ. eigenvalues --   -0.69604  -0.67467  -0.67398  -0.66410  -0.65567
 Alpha  occ. eigenvalues --   -0.63929  -0.63653  -0.63549  -0.63248  -0.62498
 Alpha  occ. eigenvalues --   -0.62434  -0.61720  -0.60936  -0.60854  -0.60515
 Alpha  occ. eigenvalues --   -0.60104  -0.59851  -0.59657  -0.59635  -0.59120
 Alpha  occ. eigenvalues --   -0.58857  -0.57143  -0.55918  -0.55674  -0.54925
 Alpha  occ. eigenvalues --   -0.54719  -0.54503  -0.54064  -0.53692  -0.53405
 Alpha  occ. eigenvalues --   -0.52856  -0.52597  -0.52233  -0.52232  -0.51829
 Alpha  occ. eigenvalues --   -0.51088  -0.51061  -0.50362  -0.50255  -0.50154
 Alpha  occ. eigenvalues --   -0.50093  -0.48969  -0.48596  -0.48573  -0.48472
 Alpha  occ. eigenvalues --   -0.48443  -0.47972  -0.47942  -0.47745  -0.47467
 Alpha  occ. eigenvalues --   -0.47397  -0.47139  -0.47037  -0.46690  -0.46650
 Alpha  occ. eigenvalues --   -0.46493  -0.46388  -0.46234  -0.46004  -0.45794
 Alpha  occ. eigenvalues --   -0.45424  -0.45037  -0.44991  -0.44955  -0.44869
 Alpha  occ. eigenvalues --   -0.44661  -0.44592  -0.44482  -0.44322  -0.44242
 Alpha  occ. eigenvalues --   -0.44067  -0.43886  -0.43636  -0.43572  -0.43416
 Alpha  occ. eigenvalues --   -0.43282  -0.43031  -0.43031  -0.42993  -0.42572
 Alpha  occ. eigenvalues --   -0.42524  -0.42404  -0.42395  -0.42262  -0.42146
 Alpha  occ. eigenvalues --   -0.42019  -0.41902  -0.41706  -0.41282  -0.41168
 Alpha  occ. eigenvalues --   -0.40981  -0.40964  -0.40849  -0.40630  -0.40410
 Alpha  occ. eigenvalues --   -0.40390  -0.40264  -0.39954  -0.39878  -0.39707
 Alpha  occ. eigenvalues --   -0.39653  -0.39424  -0.39331  -0.39109  -0.38830
 Alpha  occ. eigenvalues --   -0.38768  -0.38563  -0.38513  -0.38296  -0.38211
 Alpha  occ. eigenvalues --   -0.38123  -0.38028  -0.37978  -0.37696  -0.37350
 Alpha  occ. eigenvalues --   -0.37349  -0.37209  -0.37188  -0.36921  -0.36766
 Alpha  occ. eigenvalues --   -0.36592  -0.36466  -0.36375  -0.36263  -0.36077
 Alpha  occ. eigenvalues --   -0.35983  -0.35946  -0.35741  -0.35461  -0.35332
 Alpha  occ. eigenvalues --   -0.35140  -0.35042  -0.34899  -0.34876  -0.34804
 Alpha  occ. eigenvalues --   -0.33741  -0.33326  -0.32914  -0.32690  -0.32125
 Alpha  occ. eigenvalues --   -0.32094  -0.31580  -0.31217  -0.31069  -0.30991
 Alpha  occ. eigenvalues --   -0.30726  -0.30593  -0.29072  -0.28830  -0.28579
 Alpha  occ. eigenvalues --   -0.28384  -0.28187  -0.27742  -0.27277  -0.27169
 Alpha  occ. eigenvalues --   -0.26608  -0.26198  -0.26172  -0.26053  -0.25876
 Alpha  occ. eigenvalues --   -0.25738  -0.25532  -0.25404  -0.21009  -0.20563
 Alpha  occ. eigenvalues --   -0.19155  -0.18606
 Alpha virt. eigenvalues --   -0.11462  -0.10694  -0.05239  -0.04061  -0.03506
 Alpha virt. eigenvalues --   -0.03356  -0.01916  -0.01836  -0.00511  -0.00131
 Alpha virt. eigenvalues --   -0.00089   0.00380   0.00997   0.01447   0.02171

 Mulliken charges:
               1
     1  Mg  12.000000
     2  C    6.000000
     3  C    6.000000
     4  C    6.000000
     5  C    6.000000
     6  N    7.000000
     7  C    6.000000
     8  C    6.000000
     9  C    6.000000
    10  C    6.000000
    11  C    6.000000
    12  C    6.000000
    13  C    6.000000
    14  H    1.000000
    15  N    7.000000
    16  C    6.000000
    17  C    6.000000
    18  C    6.000000
    19  C    6.000000
    20  C    6.000000
    21  C    6.000000
    22  O    8.000000
    23  C    6.000000
    24  N    7.000000
    25  C    6.000000
    26  C    6.000000
    27  C    6.000000
    28  C    6.000000
    29  C    6.000000
    30  C    6.000000
    31  C    6.000000
    32  N    7.000000
    33  C    6.000000
    34  C    6.000000
    35  C    6.000000
    36  C    6.000000
    37  C    6.000000
    38  C    6.000000
    39  O    8.000000
    40  C    6.000000
    41  C    6.000000
    42  O    8.000000
    43  O    8.000000
    44  C    6.000000
    45  H    1.000000
    46  H    1.000000
    47  H    1.000000
    48  H    1.000000
    49  H    1.000000
    50  H    1.000000
    51  H    1.000000
    52  H    1.000000
    53  H    1.000000
    54  H    1.000000
    55  H    1.000000
    56  H    1.000000
    57  H    1.000000
    58  H    1.000000
    59  H    1.000000
    60  H    1.000000
    61  H    1.000000
    62  H    1.000000
    63  H    1.000000
    64  H    1.000000
    65  H    1.000000
    66  H    1.000000
    67  H    1.000000
    68  H    1.000000
    69  H    1.000000
    70  H    1.000000
    71  H    1.000000
    72  H    1.000000
    73  H    1.000000
    74  H    1.000000
    75  H    1.000000
    76  H    1.000000
    77  H    1.000000
    78  H    1.000000
    79  H    1.000000
    80  Mg  12.000000
    81  C    6.000000
    82  C    6.000000
    83  C    6.000000
    84  C    6.000000
    85  N    7.000000
    86  C    6.000000
    87  C    6.000000
    88  C    6.000000
    89  C    6.000000
    90  C    6.000000
    91  C    6.000000
    92  C    6.000000
    93  H    1.000000
    94  N    7.000000
    95  C    6.000000
    96  C    6.000000
    97  C    6.000000
    98  C    6.000000
    99  C    6.000000
   100  C    6.000000
   101  O    8.000000
   102  C    6.000000
   103  N    7.000000
   104  C    6.000000
   105  C    6.000000
   106  C    6.000000
   107  C    6.000000
   108  C    6.000000
   109  C    6.000000
   110  C    6.000000
   111  N    7.000000
   112  C    6.000000
   113  C    6.000000
   114  C    6.000000
   115  C    6.000000
   116  C    6.000000
   117  C    6.000000
   118  O    8.000000
   119  C    6.000000
   120  C    6.000000
   121  O    8.000000
   122  O    8.000000
   123  C    6.000000
   124  H    1.000000
   125  H    1.000000
   126  H    1.000000
   127  H    1.000000
   128  H    1.000000
   129  H    1.000000
   130  H    1.000000
   131  H    1.000000
   132  H    1.000000
   133  H    1.000000
   134  H    1.000000
   135  H    1.000000
   136  H    1.000000
   137  H    1.000000
   138  H    1.000000
   139  H    1.000000
   140  H    1.000000
   141  H    1.000000
   142  H    1.000000
   143  H    1.000000
   144  H    1.000000
   145  H    1.000000
   146  H    1.000000
   147  H    1.000000
   148  H    1.000000
   149  H    1.000000
   150  H    1.000000
   151  H    1.000000
   152  H    1.000000
   153  H    1.000000
   154  H    1.000000
   155  H    1.000000
   156  H    1.000000
   157  H    1.000000
   158  H    1.000000
 Sum of Mulliken charges = 624.00000

 Dipole moment (field-independent basis, Debye):
    X=              0.0000    Y=             -0.0000    Z=              0.0000  Tot=              0.0000
 Quadrupole moment (field-independent basis, Debye-Ang):
   XX=             -0.0000   YY=             -0.0000   ZZ=              0.0000
   XY=             -0.0000   XZ=              0.0000   YZ=              0.0000

 Normal termination of Gaussian 16 at Fri Oct 15 05:19:48 2021.
