 Gaussian 16, Revision A.03,
 Gaussian 16:  ES64L-G16RevA.03 25-Dec-2016

 --------------------------------------------------------
 #p PBE1PBE/Def2SVP td=(nstates=5) density=(transition=1)
 --------------------------------------------------------

 --------------------------------
 TDDFT excited states in gaussian
 --------------------------------
 Symbolic Z-matrix:
 Charge =  0 Multiplicity = 1

                         Standard orientation:
 ---------------------------------------------------------------------
 Center     Atomic      Atomic             Coordinates (Angstroms)
 Number     Number       Type             X           Y           Z
 ---------------------------------------------------------------------
      1         12           0       24.147991    0.603018    0.007934
      2          6           0       22.678266   -2.338633   -1.244892
      3          6           0       24.136022   -0.889586    3.148409
      4          6           0       25.227976    3.510135    1.195313
      5          6           0       23.293360    2.266736   -3.056725
      6          7           0       23.470492   -1.348010    0.846580
      7          6           0       23.012735   -2.437162    0.091810
      8          6           0       23.158301   -3.706159    0.911099
      9          6           0       23.350299   -3.219978    2.375843
     10          6           0       23.679887   -1.720064    2.110381
     11          6           0       22.175275   -3.507612    3.362414
     12          6           0       24.272539   -4.687069    0.406041
     13          6           0       23.959661   -6.224266    0.677808
     14          1           0       22.671351   -6.569541    1.429507
     15          7           0       24.716542    1.156705    1.826720
     16          6           0       24.714071    0.387054    2.977277
     17          6           0       25.321944    1.097478    4.065172
     18          6           0       25.535538    2.423728    3.570171
     19          6           0       25.195667    2.383412    2.159046
     20          6           0       25.487306    0.506602    5.498603
     21          6           0       26.013385    3.631984    4.307144
     22          8           0       26.003386    4.769043    3.778018
     23          6           0       26.497849    3.756025    5.781744
     24          7           0       24.006794    2.668647   -0.695807
     25          6           0       24.632541    3.670726   -0.049925
     26          6           0       24.770801    4.907719   -0.972635
     27          6           0       24.139020    4.531018   -2.317520
     28          6           0       23.824706    3.000098   -2.013233
     29          6           0       24.297818    6.160995   -0.301407
     30          6           0       24.995910    4.747029   -3.583386
     31          6           0       26.340627    3.979487   -3.611630
     32          7           0       23.122117    0.141751   -1.810403
     33          6           0       23.018698    0.854930   -2.956030
     34          6           0       22.550825   -0.071780   -3.985595
     35          6           0       22.411112   -1.367400   -3.413935
     36          6           0       22.727983   -1.183553   -2.046016
     37          6           0       22.380330    0.255140   -5.466795
     38          6           0       22.054832   -2.727759   -3.662789
     39          8           0       21.794253   -3.368933   -4.677363
     40          6           0       22.158255   -3.447535   -2.165239
     41          6           0       20.841741   -4.132245   -1.849639
     42          8           0       19.861384   -3.545891   -1.434553
     43          8           0       20.950317   -5.496121   -1.999718
     44          6           0       19.733311   -6.292272   -2.120514
     45          1           0       24.200962   -1.497147    4.053249
     46          1           0       25.680674    4.409798    1.616692
     47          1           0       23.188499    2.807896   -3.999068
     48          1           0       22.232624   -4.278739    0.854856
     49          1           0       24.247683   -3.707564    2.755622
     50          1           0       21.939026   -2.512507    3.737815
     51          1           0       22.525966   -4.080194    4.221899
     52          1           0       21.253793   -3.955547    2.990565
     53          1           0       25.211341   -4.529996    0.936246
     54          1           0       24.454315   -4.490787   -0.649839
     55          1           0       24.725749   -6.594237    1.359405
     56          1           0       23.979482   -6.732284   -0.286055
     57          1           0       25.291259    1.310744    6.208894
     58          1           0       26.499742    0.153814    5.692192
     59          1           0       24.901401   -0.350684    5.829739
     60          1           0       27.317114    3.063407    5.976644
     61          1           0       25.688263    3.624919    6.499665
     62          1           0       27.089451    4.647660    5.985932
     63          1           0       25.839571    5.111940   -1.022423
     64          1           0       23.154144    4.999033   -2.299475
     65          1           0       25.117095    6.781338    0.062473
     66          1           0       23.602538    5.912750    0.500665
     67          1           0       23.692060    6.807374   -0.937484
     68          1           0       25.217338    5.814029   -3.551763
     69          1           0       24.412508    4.518454   -4.475785
     70          1           0       26.283643    3.338159   -4.490915
     71          1           0       26.392414    3.403522   -2.687639
     72          1           0       27.223567    4.618284   -3.585218
     73          1           0       22.764589   -0.530724   -6.116454
     74          1           0       22.986308    1.112462   -5.758459
     75          1           0       21.335381    0.516072   -5.636648
     76          1           0       22.907095   -4.228809   -2.297916
     77          1           0       19.017412   -5.871245   -1.414102
     78          1           0       19.850814   -7.348251   -1.876953
     79          1           0       19.450184   -6.231094   -3.171351
     80         12           0      -24.037321    0.676019    0.121245
     81          6           0      -21.745372   -1.841468    1.033081
     82          6           0      -26.222343   -1.862620   -0.730585
     83          6           0      -26.313002    3.000658   -0.914087
     84          6           0      -21.700621    3.024151    0.664733
     85          7           0      -23.997561   -1.622554    0.183205
     86          6           0      -23.015155   -2.446225    0.719532
     87          6           0      -23.531219   -3.864430    0.857874
     88          6           0      -24.815917   -3.879197   -0.047930
     89          6           0      -25.023633   -2.387706   -0.185939
     90          6           0      -24.691065   -4.682368   -1.401659
     91          6           0      -23.907515   -4.233825    2.300478
     92          6           0      -23.599000   -5.677464    2.711690
     93          1           0      -24.434432   -6.823659    2.076580
     94          7           0      -26.016247    0.598751   -0.618700
     95          6           0      -26.658454   -0.555110   -0.913100
     96          6           0      -27.907601   -0.236671   -1.524760
     97          6           0      -28.088221    1.189234   -1.490054
     98          6           0      -26.779801    1.642683   -1.052448
     99          6           0      -28.842108   -1.298109   -2.035282
    100          6           0      -29.243657    2.082736   -1.941540
    101          8           0      -29.275711    3.303464   -1.670717
    102          6           0      -30.385632    1.570727   -2.812061
    103          7           0      -24.037505    2.700186   -0.004295
    104          6           0      -25.060925    3.483414   -0.529431
    105          6           0      -24.612477    4.908300   -0.567069
    106          6           0      -23.149149    5.009617   -0.004336
    107          6           0      -22.923869    3.517694    0.289946
    108          6           0      -24.857639    5.632616   -1.924924
    109          6           0      -22.978895    5.884913    1.256229
    110          6           0      -22.514894    7.321842    0.948993
    111          7           0      -22.136442    0.664968    0.666669
    112          6           0      -21.252020    1.709422    0.932435
    113          6           0      -19.924192    1.226006    1.464381
    114          6           0      -20.126748   -0.163637    1.463000
    115          6           0      -21.462961   -0.452858    1.037175
    116          6           0      -18.736879    2.082174    1.865701
    117          6           0      -19.442374   -1.407759    1.781059
    118          8           0      -18.292387   -1.621622    2.166858
    119          6           0      -20.548673   -2.534555    1.617232
    120          6           0      -19.909342   -3.599275    0.704317
    121          8           0      -19.214519   -3.392006   -0.269049
    122          8           0      -20.117378   -4.854066    1.273748
    123          6           0      -19.540485   -5.942275    0.484166
    124          1           0      -26.915938   -2.685632   -0.914026
    125          1           0      -26.963131    3.826100   -1.210702
    126          1           0      -20.966778    3.831703    0.697831
    127          1           0      -22.854953   -4.632333    0.483061
    128          1           0      -25.692494   -4.334524    0.413007
    129          1           0      -23.764257   -5.241586   -1.532926
    130          1           0      -24.737971   -4.099105   -2.320970
    131          1           0      -25.460138   -5.452208   -1.464935
    132          1           0      -24.966686   -4.061600    2.490388
    133          1           0      -23.339956   -3.634164    3.012366
    134          1           0      -23.612155   -5.803697    3.794187
    135          1           0      -22.561734   -5.935486    2.499150
    136          1           0      -28.169353   -1.917424   -2.628725
    137          1           0      -29.642751   -0.989105   -2.707129
    138          1           0      -29.288378   -1.924715   -1.263409
    139          1           0      -30.001927    1.032054   -3.678649
    140          1           0      -30.896336    2.495919   -3.078687
    141          1           0      -31.019000    0.875879   -2.260593
    142          1           0      -25.330639    5.474250    0.027043
    143          1           0      -22.391370    5.300723   -0.732891
    144          1           0      -25.266674    4.900195   -2.621216
    145          1           0      -23.901543    5.982134   -2.313644
    146          1           0      -25.581208    6.410829   -1.679869
    147          1           0      -22.351759    5.329097    1.952921
    148          1           0      -23.941790    6.069321    1.733099
    149          1           0      -22.790007    7.587785   -0.071827
    150          1           0      -21.439480    7.500337    0.957387
    151          1           0      -23.053530    7.997003    1.614583
    152          1           0      -18.998169    2.574421    2.802627
    153          1           0      -18.470138    2.875335    1.167522
    154          1           0      -17.909707    1.387209    2.009435
    155          1           0      -20.876210   -3.012415    2.540333
    156          1           0      -20.207328   -6.365741   -0.267504
    157          1           0      -19.253591   -6.679944    1.233460
    158          1           0      -18.654518   -5.748892   -0.120598
 ---------------------------------------------------------------------

 SCF Done:  E(RPBE1PBE) =  -4067.41449797     A.U. after   16 cycles

 Excitation energies and oscillator strengths:

 Excited State   1:      Singlet-A      1.8182 eV  681.90 nm  f=0.3859  <S**2>=0.000
     309 -> 316        0.16261
     311 -> 313        0.69668
     311 <- 313       -0.11885
 This state for optimization and/or second-order correction.
 Total Energy, E(TD-HF/TD-DFT) =  -4067.34767944
 Copying the excited state density for this state as the 1-particle RhoCI density.

 Excited State   2:      Singlet-A      1.8491 eV  670.50 nm  f=0.0000  <S**2>=0.000
     312 -> 313        0.70711

 Excited State   3:      Singlet-A      1.8492 eV  670.49 nm  f=0.3653  <S**2>=0.000
     310 -> 315       -0.18103
     312 -> 314        0.69138
     312 <- 314       -0.10447

 Excited State   4:      Singlet-A      2.0804 eV  595.97 nm  f=0.0000  <S**2>=0.000
     311 -> 314        0.70711

 Excited State   5:      Singlet-A      2.1901 eV  566.10 nm  f=0.1396  <S**2>=0.000
     309 -> 313        0.66496
     311 -> 316       -0.22021

 The electronic state is 1-A.
 Alpha  occ. eigenvalues --  -46.92303 -46.91060 -19.26392 -19.24897 -19.20601
 Alpha  occ. eigenvalues --  -19.19663 -19.19434 -19.19353 -19.19322 -19.18504
 Alpha  occ. eigenvalues --  -14.42019 -14.41906 -14.41058 -14.40952 -14.39862
 Alpha  occ. eigenvalues --  -14.39581 -14.39114 -14.39055 -10.36692 -10.36087
 Alpha  occ. eigenvalues --  -10.32884 -10.32789 -10.32530 -10.32262 -10.29286
 Alpha  occ. eigenvalues --  -10.29071 -10.28693 -10.28611 -10.28597 -10.28516
 Alpha  occ. eigenvalues --  -10.28446 -10.28366 -10.28355 -10.28212 -10.28199
 Alpha  occ. eigenvalues --  -10.28181 -10.28148 -10.27990 -10.27709 -10.27064
 Alpha  occ. eigenvalues --  -10.27060 -10.26957 -10.26905 -10.26785 -10.26613
 Alpha  occ. eigenvalues --  -10.26589 -10.26447 -10.26385 -10.26165 -10.26140
 Alpha  occ. eigenvalues --  -10.26122 -10.25911 -10.25892 -10.25875 -10.25858
 Alpha  occ. eigenvalues --  -10.25747 -10.25542 -10.25320 -10.25311 -10.25107
 Alpha  occ. eigenvalues --  -10.25102 -10.25080 -10.25026 -10.24966 -10.24940
 Alpha  occ. eigenvalues --  -10.24670 -10.24490 -10.24390 -10.24386 -10.24302
 Alpha  occ. eigenvalues --  -10.24034 -10.24010 -10.23921 -10.23837 -10.23769
 Alpha  occ. eigenvalues --  -10.23727 -10.23657 -10.23597 -10.23492 -10.23490
 Alpha  occ. eigenvalues --  -10.23155 -10.23134 -10.23128 -10.23053 -10.23019
 Alpha  occ. eigenvalues --  -10.22362  -3.14451  -3.13416  -1.87261  -1.86825
 Alpha  occ. eigenvalues --   -1.86688  -1.86257  -1.85768  -1.85685  -1.11034
 Alpha  occ. eigenvalues --   -1.10187  -1.04254  -1.03989  -1.03530  -1.03017
 Alpha  occ. eigenvalues --   -1.02982  -1.02251  -0.99244  -0.98865  -0.98228
 Alpha  occ. eigenvalues --   -0.98043  -0.97864  -0.97797  -0.96859  -0.96084
 Alpha  occ. eigenvalues --   -0.86923  -0.86568  -0.83665  -0.83501  -0.83305
 Alpha  occ. eigenvalues --   -0.82765  -0.82573  -0.82388  -0.81809  -0.81702
 Alpha  occ. eigenvalues --   -0.81207  -0.80978  -0.80486  -0.79711  -0.78629
 Alpha  occ. eigenvalues --   -0.78040  -0.77880  -0.77646  -0.76566  -0.76433
 Alpha  occ. eigenvalues --   -0.75831  -0.75318  -0.75243  -0.74951  -0.74377
 Alpha  occ. eigenvalues --   -0.74108  -0.72843  -0.72686  -0.71779  -0.71553
 Alpha  occ. eigenvalues --   -0.71265  -0.71038  -0.70449  -0.70129  -0.69397
 Alpha  occ. eigenvalues --   -0.69319  -0.67146  -0.67013  -0.66063  -0.65483
 Alpha  occ. eigenvalues --   -0.64234  -0.63697  -0.63520  -0.63248  -0.62825
 Alpha  occ. eigenvalues --   -0.62631  -0.61892  -0.61661  -0.60166  -0.59912
 Alpha  occ. eigenvalues --   -0.59740  -0.59278  -0.58994  -0.58760  -0.58728
 Alpha  occ. eigenvalues --   -0.58596  -0.57135  -0.56218  -0.55386  -0.54884
 Alpha  occ. eigenvalues --   -0.54613  -0.54043  -0.53500  -0.53358  -0.53149
 Alpha  occ. eigenvalues --   -0.52727  -0.52267  -0.52022  -0.52014  -0.51438
 Alpha  occ. eigenvalues --   -0.50611  -0.50469  -0.50270  -0.50000  -0.49716
 Alpha  occ. eigenvalues --   -0.49347  -0.49307  -0.49045  -0.48466  -0.48368
 Alpha  occ. eigenvalues --   -0.48077  -0.47991  -0.47684  -0.47682  -0.47475
 Alpha  occ. eigenvalues --   -0.47289  -0.47141  -0.47131  -0.46681  -0.46681
 Alpha  occ. eigenvalues --   -0.46485  -0.46412  -0.46192  -0.45892  -0.45794
 Alpha  occ. eigenvalues --   -0.45631  -0.45308  -0.45117  -0.44618  -0.44562
 Alpha  occ. eigenvalues --   -0.44446  -0.44388  -0.44124  -0.43987  -0.43850
 Alpha  occ. eigenvalues --   -0.43827  -0.43693  -0.43680  -0.43502  -0.43416
 Alpha  occ. eigenvalues --   -0.43187  -0.43135  -0.42810  -0.42783  -0.42699
 Alpha  occ. eigenvalues --   -0.42455  -0.42315  -0.42181  -0.42093  -0.42067
 Alpha  occ. eigenvalues --   -0.41483  -0.41391  -0.41369  -0.41231  -0.41053
 Alpha  occ. eigenvalues --   -0.40973  -0.40942  -0.40620  -0.40567  -0.40239
 Alpha  occ. eigenvalues --   -0.40158  -0.39945  -0.39719  -0.39415  -0.39396
 Alpha  occ. eigenvalues --   -0.39284  -0.39260  -0.39177  -0.39015  -0.38971
 Alpha  occ. eigenvalues --   -0.38842  -0.38784  -0.38388  -0.38292  -0.38190
 Alpha  occ. eigenvalues --   -0.37967  -0.37948  -0.37915  -0.37653  -0.37464
 Alpha  occ. eigenvalues --   -0.37442  -0.37264  -0.37150  -0.36780  -0.36748
 Alpha  occ. eigenvalues --   -0.36728  -0.36546  -0.36480  -0.36397  -0.36276
 Alpha  occ. eigenvalues --   -0.36060  -0.35877  -0.35553  -0.35439  -0.35408
 Alpha  occ. eigenvalues --   -0.35167  -0.34989  -0.34652  -0.34578  -0.34107
 Alpha  occ. eigenvalues --   -0.33688  -0.33638  -0.33316  -0.32924  -0.32791
 Alpha  occ. eigenvalues --   -0.32614  -0.32215  -0.31894  -0.31847  -0.31659
 Alpha  occ. eigenvalues --   -0.31348  -0.30853  -0.30338  -0.29846  -0.29185
 Alpha  occ. eigenvalues --   -0.28890  -0.28427  -0.28403  -0.27052  -0.26690
 Alpha  occ. eigenvalues --   -0.26307  -0.26271  -0.26050  -0.25795  -0.25779
 Alpha  occ. eigenvalues --   -0.25519  -0.25244  -0.24941  -0.21043  -0.20846
 Alpha  occ. eigenvalues --   -0.18970  -0.18687
 Alpha virt. eigenvalues --   -0.11614  -0.11049  -0.05234  -0.05005  -0.04258
 Alpha virt. eigenvalues --   -0.04216  -0.02621  -0.02299  -0.01254   0.00316
 Alpha virt. eigenvalues --    0.00529   0.00615   0.01087   0.01345   0.01663

 Mulliken charges:
               1
     1  Mg  11.999130
     2  C    6.020156
     3  C    6.002134
     4  C    5.981621
     5  C    6.003444
     6  N    7.011904
     7  C    5.967007
     8  C    6.008631
     9  C    5.988967
    10  C    6.022764
    11  C    6.001683
    12  C    6.002661
    13  C    6.000550
    14  H    0.995131
    15  N    6.996424
    16  C    6.031741
    17  C    6.025045
    18  C    6.012054
    19  C    6.027510
    20  C    5.998044
    21  C    6.008216
    22  O    8.031941
    23  C    5.996449
    24  N    6.991477
    25  C    6.030501
    26  C    5.995958
    27  C    6.007263
    28  C    5.979508
    29  C    5.997915
    30  C    6.004137
    31  C    6.004567
    32  N    7.001472
    33  C    5.970258
    34  C    5.961147
    35  C    6.002785
    36  C    5.964923
    37  C    6.001785
    38  C    5.987150
    39  O    7.975985
    40  C    5.995070
    41  C    5.996969
    42  O    7.994399
    43  O    7.998244
    44  C    6.001569
    45  H    1.013406
    46  H    1.003815
    47  H    0.990081
    48  H    1.001245
    49  H    1.002637
    50  H    0.995538
    51  H    1.002615
    52  H    1.012315
    53  H    0.988908
    54  H    1.007295
    55  H    0.995096
    56  H    1.003079
    57  H    1.014245
    58  H    1.019110
    59  H    1.017474
    60  H    1.007780
    61  H    1.008432
    62  H    1.013115
    63  H    0.998848
    64  H    0.996145
    65  H    0.997588
    66  H    0.996186
    67  H    1.008509
    68  H    0.991218
    69  H    1.004209
    70  H    1.004803
    71  H    0.993480
    72  H    0.992462
    73  H    0.982497
    74  H    0.980956
    75  H    0.978891
    76  H    0.991795
    77  H    0.995516
    78  H    0.994497
    79  H    0.999925
    80  Mg  11.999995
    81  C    6.000093
    82  C    6.000078
    83  C    5.999904
    84  C    5.999943
    85  N    7.000042
    86  C    5.999981
    87  C    5.999993
    88  C    6.000020
    89  C    5.999913
    90  C    5.999996
    91  C    5.999997
    92  C    5.999996
    93  H    1.000027
    94  N    6.999972
    95  C    5.999885
    96  C    5.999967
    97  C    5.999955
    98  C    6.000029
    99  C    6.000009
   100  C    5.999945
   101  O    7.999930
   102  C    6.000013
   103  N    6.999962
   104  C    6.000033
   105  C    6.000016
   106  C    5.999974
   107  C    6.000069
   108  C    6.000003
   109  C    5.999992
   110  C    6.000004
   111  N    7.000021
   112  C    6.000116
   113  C    6.000017
   114  C    6.000021
   115  C    5.999998
   116  C    6.000000
   117  C    6.000092
   118  O    8.000082
   119  C    5.999947
   120  C    6.000023
   121  O    8.000045
   122  O    7.999990
   123  C    5.999975
   124  H    0.999969
   125  H    0.999983
   126  H    1.000035
   127  H    1.000021
   128  H    0.999987
   129  H    0.999991
   130  H    1.000023
   131  H    0.999990
   132  H    1.000013
   133  H    0.999968
   134  H    0.999979
   135  H    1.000006
   136  H    0.999977
   137  H    0.999957
   138  H    0.999928
   139  H    0.999998
   140  H    0.999953
   141  H    0.999964
   142  H    0.999974
   143  H    1.000025
   144  H    1.000027
   145  H    0.999989
   146  H    0.999978
   147  H    0.999975
   148  H    1.000001
   149  H    1.000028
   150  H    1.000001
   151  H    0.999979
   152  H    1.000018
   153  H    1.000066
   154  H    1.000049
   155  H    1.000002
   156  H    1.000030
   157  H    1.000007
   158  H    1.000047
 Sum of Mulliken charges = 624.00000

 Dipole moment (field-independent basis, Debye):
    X=              3.4961    Y=              2.7292    Z=              9.6061  Tot=             10.5805
 Quadrupole moment (field-independent basis, Debye-Ang):
   XX=            163.9898   YY=              0.6329   ZZ=              2.5055
   XY=             66.8124   XZ=            230.1254   YZ=              6.1147

 Normal termination of Gaussian 16 at Thu Oct 14 12:22:41 2021.
