 Gaussian 16, Revision A.03,
 Gaussian 16:  ES64L-G16RevA.03 25-Dec-2016

 --------------------------------------------------------
 #p PBE1PBE/Def2SVP td=(nstates=5) density=(transition=1)
 --------------------------------------------------------

 --------------------------------
 TDDFT excited states in gaussian
 --------------------------------
 Symbolic Z-matrix:
 Charge =  0 Multiplicity = 1

                         Standard orientation:
 ---------------------------------------------------------------------
 Center     Atomic      Atomic             Coordinates (Angstroms)
 Number     Number       Type             X           Y           Z
 ---------------------------------------------------------------------
      1         12           0      -26.854238   -0.634751   -0.186343
      2          6           0      -25.191949    2.253005   -1.270366
      3          6           0      -28.271805    1.289365    2.425988
      4          6           0      -28.200409   -3.477364    1.093055
      5          6           0      -24.851569   -2.496403   -2.294563
      6          7           0      -26.845665    1.516235    0.347606
      7          6           0      -26.210097    2.519915   -0.389060
      8          6           0      -26.813570    3.913773    0.012993
      9          6           0      -27.689358    3.561383    1.220947
     10          6           0      -27.565681    2.006368    1.385515
     11          6           0      -27.197103    4.316238    2.485112
     12          6           0      -27.533373    4.499032   -1.195872
     13          6           0      -27.631168    6.011810   -1.305996
     14          1           0      -27.289054    6.859520   -0.059908
     15          7           0      -28.078495   -1.084697    1.502499
     16          6           0      -28.524696   -0.160242    2.466013
     17          6           0      -29.298026   -0.830038    3.496904
     18          6           0      -29.379561   -2.231883    3.133843
     19          6           0      -28.517955   -2.314684    1.877342
     20          6           0      -30.045234   -0.106870    4.624711
     21          6           0      -30.111557   -3.386905    3.789848
     22          8           0      -30.062159   -4.507361    3.300113
     23          6           0      -31.049755   -3.094786    4.897193
     24          7           0      -26.589356   -2.704163   -0.626251
     25          6           0      -27.333204   -3.668613   -0.016386
     26          6           0      -27.089403   -5.034353   -0.710176
     27          6           0      -26.051817   -4.722961   -1.857522
     28          6           0      -25.869609   -3.192400   -1.688312
     29          6           0      -26.595177   -6.073610    0.311979
     30          6           0      -26.550181   -5.038069   -3.292950
     31          6           0      -25.937027   -6.355142   -3.758433
     32          7           0      -25.234464   -0.307120   -1.469556
     33          6           0      -24.457093   -1.129733   -2.214529
     34          6           0      -23.334112   -0.318032   -2.743510
     35          6           0      -23.623762    0.993061   -2.502486
     36          6           0      -24.776511    0.936275   -1.678142
     37          6           0      -22.230054   -0.941196   -3.581040
     38          6           0      -23.240716    2.393702   -2.724805
     39          8           0      -22.277442    2.845631   -3.332016
     40          6           0      -24.294569    3.216313   -2.008930
     41          6           0      -23.547977    4.168744   -1.171912
     42          8           0      -22.975550    4.002769   -0.086317
     43          8           0      -23.504281    5.369064   -1.851157
     44          6           0      -22.751393    6.439052   -1.233570
     45          1           0      -28.753185    1.930632    3.166970
     46          1           0      -28.755917   -4.323034    1.503879
     47          1           0      -24.202258   -3.163540   -2.865465
     48          1           0      -25.903237    4.448099    0.287500
     49          1           0      -28.664882    4.003428    1.018573
     50          1           0      -26.748723    3.684520    3.252104
     51          1           0      -28.095398    4.623086    3.020097
     52          1           0      -26.470337    5.092067    2.245063
     53          1           0      -28.506065    4.006224   -1.189972
     54          1           0      -27.073197    4.106547   -2.101912
     55          1           0      -28.627188    6.269746   -1.663331
     56          1           0      -26.932536    6.207462   -2.120227
     57          1           0      -29.822725    0.958289    4.690931
     58          1           0      -29.787716   -0.553892    5.585826
     59          1           0      -31.110818   -0.306133    4.517316
     60          1           0      -31.874467   -2.499479    4.504534
     61          1           0      -30.518468   -2.727694    5.775271
     62          1           0      -31.551213   -3.995619    5.251081
     63          1           0      -28.051975   -5.392831   -1.074219
     64          1           0      -25.136325   -5.233762   -1.556247
     65          1           0      -25.638283   -6.549827    0.100238
     66          1           0      -27.376561   -6.822450    0.184231
     67          1           0      -26.440654   -5.683646    1.317645
     68          1           0      -26.091147   -4.356356   -4.009172
     69          1           0      -27.635768   -5.084512   -3.381292
     70          1           0      -26.785721   -6.900285   -4.171232
     71          1           0      -25.611447   -7.008499   -2.949337
     72          1           0      -25.140966   -6.266204   -4.498200
     73          1           0      -22.193610   -2.030823   -3.568381
     74          1           0      -21.240113   -0.579497   -3.305736
     75          1           0      -22.459414   -0.761224   -4.631919
     76          1           0      -24.893049    3.718649   -2.768223
     77          1           0      -21.767171    6.044434   -0.979913
     78          1           0      -23.213060    6.829440   -0.326354
     79          1           0      -22.466929    7.086199   -2.062563
     80         12           0       26.869156   -0.713420    0.206640
     81          6           0       25.452937    2.366196    1.267068
     82          6           0       27.945878    1.051473   -2.663524
     83          6           0       27.902091   -3.536565   -1.061127
     84          6           0       25.445499   -2.260721    2.977136
     85          7           0       26.705338    1.505111   -0.626929
     86          6           0       26.158092    2.544825    0.084133
     87          6           0       26.360912    3.896010   -0.580315
     88          6           0       27.062475    3.406522   -1.919141
     89          6           0       27.295550    1.900115   -1.726549
     90          6           0       26.266268    3.843726   -3.145159
     91          6           0       27.258260    4.804137    0.288936
     92          6           0       26.956508    6.350822    0.324060
     93          1           0       26.125636    6.957449   -0.831131
     94          7           0       27.870411   -1.183200   -1.582375
     95          6           0       28.140183   -0.328303   -2.651431
     96          6           0       28.831819   -1.104597   -3.692738
     97          6           0       28.911331   -2.440777   -3.180878
     98          6           0       28.241497   -2.388846   -1.867240
     99          6           0       29.220130   -0.553793   -4.959355
    100          6           0       29.526318   -3.673610   -3.835607
    101          8           0       29.431978   -4.792852   -3.307264
    102          6           0       30.399011   -3.543415   -5.021682
    103          7           0       26.607313   -2.647205    0.815935
    104          6           0       27.223891   -3.638930    0.167700
    105          6           0       26.917380   -5.020549    0.831821
    106          6           0       26.311311   -4.577117    2.201121
    107          6           0       26.078294   -3.109364    2.024747
    108          6           0       26.026875   -5.975332   -0.042163
    109          6           0       27.443937   -4.853895    3.262142
    110          6           0       28.446085   -3.717583    3.664464
    111          7           0       25.784521   -0.112053    1.857529
    112          6           0       25.258261   -0.885585    2.907959
    113          6           0       24.468693    0.007519    3.791883
    114          6           0       24.488027    1.237850    3.145407
    115          6           0       25.287890    1.183017    2.023618
    116          6           0       23.642329   -0.549850    4.848711
    117          6           0       23.871811    2.560949    3.206507
    118          8           0       23.053868    2.974130    4.020724
    119          6           0       24.456053    3.368967    1.954473
    120          6           0       23.367059    3.844930    1.067186
    121          8           0       22.937797    3.267287    0.072609
    122          8           0       22.905832    5.089806    1.535413
    123          6           0       21.801735    5.774065    0.901315
    124          1           0       28.519783    1.553213   -3.445915
    125          1           0       28.239506   -4.512348   -1.417788
    126          1           0       25.088967   -2.848869    3.824978
    127          1           0       25.420976    4.410300   -0.782297
    128          1           0       27.979875    3.988530   -2.002797
    129          1           0       26.829648    4.421331   -3.877174
    130          1           0       25.356923    4.412246   -2.950132
    131          1           0       26.008372    2.931278   -3.684414
    132          1           0       28.306423    4.692826    0.011592
    133          1           0       27.118245    4.339445    1.265545
    134          1           0       27.884268    6.918415    0.260148
    135          1           0       26.644720    6.553517    1.348648
    136          1           0       30.277693   -0.788758   -5.081311
    137          1           0       28.859438    0.468656   -5.067382
    138          1           0       28.556856   -1.112578   -5.620357
    139          1           0       29.857655   -3.299714   -5.936316
    140          1           0       30.889485   -4.497245   -5.215023
    141          1           0       31.045462   -2.681097   -4.861123
    142          1           0       27.938051   -5.401709    0.865032
    143          1           0       25.440749   -5.174636    2.472835
    144          1           0       26.657615   -6.674953   -0.590773
    145          1           0       25.389639   -5.335689   -0.651955
    146          1           0       25.397346   -6.520003    0.661292
    147          1           0       27.916189   -5.811292    3.041065
    148          1           0       26.890717   -4.888231    4.201160
    149          1           0       29.408633   -4.228062    3.677567
    150          1           0       28.261711   -3.319486    4.663108
    151          1           0       28.535986   -2.886476    2.965816
    152          1           0       23.059334   -1.371557    4.434718
    153          1           0       22.951558    0.239248    5.147523
    154          1           0       24.229238   -0.735403    5.747863
    155          1           0       24.942144    4.227659    2.418613
    156          1           0       20.844180    5.596091    1.390111
    157          1           0       21.849317    5.685100   -0.184112
    158          1           0       22.117144    6.811396    1.016983
 ---------------------------------------------------------------------

 SCF Done:  E(RPBE1PBE) =  -4067.37184244     A.U. after   16 cycles

 Excitation energies and oscillator strengths:

 Excited State   1:      Singlet-A      1.8263 eV  678.87 nm  f=0.3818  <S**2>=0.000
     310 -> 316       -0.16179
     311 -> 313        0.69457
     311 <- 313       -0.11150
 This state for optimization and/or second-order correction.
 Total Energy, E(TD-HF/TD-DFT) =  -4067.30472551
 Copying the excited state density for this state as the 1-particle RhoCI density.

 Excited State   2:      Singlet-A      1.8853 eV  657.63 nm  f=0.3625  <S**2>=0.000
     309 -> 315        0.18513
     312 -> 314        0.68868
     312 <- 314       -0.10057

 Excited State   3:      Singlet-A      1.9244 eV  644.28 nm  f=0.0000  <S**2>=0.000
     312 -> 313        0.70711

 Excited State   4:      Singlet-A      2.0827 eV  595.30 nm  f=0.0000  <S**2>=0.000
     311 -> 314        0.70711

 Excited State   5:      Singlet-A      2.2008 eV  563.37 nm  f=0.1152  <S**2>=0.000
     310 -> 313        0.65560
     311 -> 316        0.24483

 The electronic state is 1-A.
 Alpha  occ. eigenvalues --  -46.92509 -46.91893 -19.25152 -19.24630 -19.20065
 Alpha  occ. eigenvalues --  -19.20059 -19.19635 -19.19633 -19.19219 -19.18795
 Alpha  occ. eigenvalues --  -14.41708 -14.41421 -14.41253 -14.40962 -14.39682
 Alpha  occ. eigenvalues --  -14.39185 -14.38926 -14.38698 -10.36433 -10.36409
 Alpha  occ. eigenvalues --  -10.32657 -10.32616 -10.32394 -10.32237 -10.29571
 Alpha  occ. eigenvalues --  -10.28825 -10.28668 -10.28636 -10.28541 -10.28530
 Alpha  occ. eigenvalues --  -10.28516 -10.28379 -10.28213 -10.28090 -10.28008
 Alpha  occ. eigenvalues --  -10.28001 -10.27844 -10.27753 -10.27347 -10.27118
 Alpha  occ. eigenvalues --  -10.26961 -10.26731 -10.26545 -10.26518 -10.26495
 Alpha  occ. eigenvalues --  -10.26335 -10.26151 -10.26077 -10.25796 -10.25783
 Alpha  occ. eigenvalues --  -10.25684 -10.25574 -10.25533 -10.25506 -10.25498
 Alpha  occ. eigenvalues --  -10.25458 -10.25360 -10.25218 -10.25104 -10.25090
 Alpha  occ. eigenvalues --  -10.25002 -10.24994 -10.24959 -10.24867 -10.24754
 Alpha  occ. eigenvalues --  -10.24646 -10.24416 -10.24386 -10.24236 -10.24213
 Alpha  occ. eigenvalues --  -10.24109 -10.23969 -10.23853 -10.23633 -10.23612
 Alpha  occ. eigenvalues --  -10.23234 -10.23117 -10.23059 -10.22965 -10.22755
 Alpha  occ. eigenvalues --  -10.22731 -10.22711 -10.22676 -10.22673 -10.22549
 Alpha  occ. eigenvalues --  -10.22468  -3.14490  -3.14018  -1.87344  -1.86867
 Alpha  occ. eigenvalues --   -1.86822  -1.86744  -1.86406  -1.86228  -1.10589
 Alpha  occ. eigenvalues --   -1.09367  -1.04992  -1.04852  -1.04486  -1.03751
 Alpha  occ. eigenvalues --   -1.02034  -1.01709  -0.99261  -0.99152  -0.98577
 Alpha  occ. eigenvalues --   -0.97748  -0.97390  -0.97202  -0.96170  -0.96166
 Alpha  occ. eigenvalues --   -0.87818  -0.86359  -0.83938  -0.83517  -0.83072
 Alpha  occ. eigenvalues --   -0.82898  -0.82716  -0.82201  -0.81574  -0.81451
 Alpha  occ. eigenvalues --   -0.81100  -0.81056  -0.80615  -0.79948  -0.78587
 Alpha  occ. eigenvalues --   -0.78317  -0.78136  -0.77599  -0.77025  -0.76664
 Alpha  occ. eigenvalues --   -0.76428  -0.76236  -0.75253  -0.75173  -0.74797
 Alpha  occ. eigenvalues --   -0.74375  -0.73071  -0.72251  -0.71611  -0.71449
 Alpha  occ. eigenvalues --   -0.71182  -0.71120  -0.70288  -0.70070  -0.69114
 Alpha  occ. eigenvalues --   -0.68897  -0.67012  -0.66614  -0.65745  -0.65448
 Alpha  occ. eigenvalues --   -0.63635  -0.63471  -0.63187  -0.62877  -0.62343
 Alpha  occ. eigenvalues --   -0.62339  -0.61423  -0.61023  -0.59795  -0.59328
 Alpha  occ. eigenvalues --   -0.59310  -0.59174  -0.59167  -0.58984  -0.58753
 Alpha  occ. eigenvalues --   -0.58462  -0.56744  -0.56101  -0.54747  -0.54563
 Alpha  occ. eigenvalues --   -0.54236  -0.53910  -0.53580  -0.53559  -0.53326
 Alpha  occ. eigenvalues --   -0.52998  -0.52559  -0.52437  -0.52253  -0.51735
 Alpha  occ. eigenvalues --   -0.50805  -0.50523  -0.50303  -0.50053  -0.49770
 Alpha  occ. eigenvalues --   -0.49642  -0.49308  -0.48792  -0.48408  -0.48172
 Alpha  occ. eigenvalues --   -0.48169  -0.48018  -0.47867  -0.47790  -0.47727
 Alpha  occ. eigenvalues --   -0.47690  -0.47515  -0.47446  -0.47335  -0.46880
 Alpha  occ. eigenvalues --   -0.46523  -0.46362  -0.46308  -0.46146  -0.46012
 Alpha  occ. eigenvalues --   -0.45955  -0.45406  -0.45311  -0.45132  -0.44820
 Alpha  occ. eigenvalues --   -0.44443  -0.44327  -0.44294  -0.44144  -0.44066
 Alpha  occ. eigenvalues --   -0.44010  -0.43772  -0.43651  -0.43645  -0.43437
 Alpha  occ. eigenvalues --   -0.43259  -0.43096  -0.42960  -0.42864  -0.42668
 Alpha  occ. eigenvalues --   -0.42491  -0.42211  -0.42069  -0.42043  -0.41698
 Alpha  occ. eigenvalues --   -0.41616  -0.41464  -0.41258  -0.41065  -0.40888
 Alpha  occ. eigenvalues --   -0.40811  -0.40732  -0.40574  -0.40182  -0.39980
 Alpha  occ. eigenvalues --   -0.39708  -0.39687  -0.39473  -0.39381  -0.39228
 Alpha  occ. eigenvalues --   -0.39156  -0.39044  -0.39030  -0.38951  -0.38787
 Alpha  occ. eigenvalues --   -0.38739  -0.38461  -0.38408  -0.38210  -0.38169
 Alpha  occ. eigenvalues --   -0.38137  -0.37947  -0.37813  -0.37734  -0.37667
 Alpha  occ. eigenvalues --   -0.37491  -0.37335  -0.37262  -0.36790  -0.36742
 Alpha  occ. eigenvalues --   -0.36637  -0.36376  -0.36150  -0.36036  -0.35895
 Alpha  occ. eigenvalues --   -0.35840  -0.35394  -0.35242  -0.35188  -0.34816
 Alpha  occ. eigenvalues --   -0.34795  -0.34201  -0.33875  -0.33458  -0.33433
 Alpha  occ. eigenvalues --   -0.32981  -0.32940  -0.32755  -0.32693  -0.32401
 Alpha  occ. eigenvalues --   -0.32128  -0.31689  -0.31560  -0.31254  -0.31016
 Alpha  occ. eigenvalues --   -0.30898  -0.30716  -0.29375  -0.29268  -0.29082
 Alpha  occ. eigenvalues --   -0.29052  -0.28670  -0.28241  -0.26914  -0.26589
 Alpha  occ. eigenvalues --   -0.26430  -0.26140  -0.25926  -0.25833  -0.25757
 Alpha  occ. eigenvalues --   -0.25654  -0.25531  -0.25094  -0.20753  -0.20719
 Alpha  occ. eigenvalues --   -0.18564  -0.18425
 Alpha virt. eigenvalues --   -0.11105  -0.10662  -0.05148  -0.05040  -0.04026
 Alpha virt. eigenvalues --   -0.03963  -0.02428  -0.02169  -0.00418   0.00276
 Alpha virt. eigenvalues --    0.00555   0.00578   0.01093   0.01100   0.01497

 Mulliken charges:
               1
     1  Mg  12.000310
     2  C    5.976957
     3  C    6.003365
     4  C    6.022342
     5  C    5.994846
     6  N    6.985740
     7  C    6.033255
     8  C    5.994782
     9  C    6.011214
    10  C    5.970451
    11  C    6.001796
    12  C    5.995820
    13  C    6.000195
    14  H    1.006422
    15  N    7.004583
    16  C    5.964098
    17  C    5.981525
    18  C    5.982624
    19  C    5.971807
    20  C    6.002322
    21  C    5.985459
    22  O    7.969648
    23  C    6.007577
    24  N    7.006419
    25  C    5.968628
    26  C    6.006950
    27  C    5.988954
    28  C    6.027270
    29  C    6.002262
    30  C    5.995722
    31  C    5.998501
    32  N    6.998907
    33  C    6.033620
    34  C    6.030483
    35  C    6.000430
    36  C    6.033526
    37  C    5.997032
    38  C    6.019404
    39  O    8.026523
    40  C    6.000355
    41  C    6.003192
    42  O    8.007866
    43  O    8.000636
    44  C    5.998777
    45  H    0.986916
    46  H    0.997950
    47  H    1.010864
    48  H    0.997131
    49  H    0.993848
    50  H    1.001140
    51  H    1.000762
    52  H    0.987154
    53  H    1.009110
    54  H    0.992459
    55  H    1.003032
    56  H    0.995663
    57  H    0.984358
    58  H    0.983303
    59  H    0.983595
    60  H    0.992635
    61  H    0.992424
    62  H    0.985325
    63  H    1.001900
    64  H    1.003575
    65  H    0.991874
    66  H    1.000218
    67  H    1.005185
    68  H    0.995542
    69  H    1.009253
    70  H    1.005445
    71  H    1.005278
    72  H    0.998807
    73  H    1.017329
    74  H    1.017721
    75  H    1.020281
    76  H    1.007369
    77  H    1.000639
    78  H    1.006688
    79  H    1.002631
    80  Mg  12.000004
    81  C    5.999977
    82  C    5.999989
    83  C    6.000024
    84  C    5.999991
    85  N    7.000004
    86  C    6.000008
    87  C    5.999999
    88  C    6.000007
    89  C    5.999997
    90  C    6.000003
    91  C    6.000009
    92  C    5.999999
    93  H    0.999967
    94  N    7.000006
    95  C    6.000001
    96  C    5.999986
    97  C    6.000004
    98  C    5.999998
    99  C    6.000002
   100  C    6.000015
   101  O    8.000013
   102  C    5.999996
   103  N    6.999990
   104  C    6.000001
   105  C    5.999993
   106  C    5.999996
   107  C    6.000004
   108  C    5.999997
   109  C    5.999995
   110  C    6.000003
   111  N    6.999997
   112  C    5.999995
   113  C    6.000010
   114  C    6.000018
   115  C    6.000003
   116  C    6.000002
   117  C    5.999969
   118  O    7.999988
   119  C    5.999998
   120  C    5.999992
   121  O    7.999977
   122  O    8.000008
   123  C    6.000010
   124  H    1.000014
   125  H    1.000006
   126  H    1.000005
   127  H    0.999979
   128  H    1.000011
   129  H    1.000001
   130  H    0.999983
   131  H    0.999982
   132  H    1.000010
   133  H    1.000015
   134  H    1.000016
   135  H    1.000005
   136  H    1.000027
   137  H    0.999999
   138  H    0.999995
   139  H    0.999993
   140  H    1.000025
   141  H    1.000018
   142  H    1.000017
   143  H    0.999995
   144  H    1.000009
   145  H    0.999976
   146  H    1.000007
   147  H    1.000008
   148  H    1.000011
   149  H    1.000015
   150  H    1.000015
   151  H    0.999991
   152  H    0.999972
   153  H    0.999981
   154  H    1.000013
   155  H    1.000007
   156  H    0.999973
   157  H    0.999979
   158  H    1.000002
 Sum of Mulliken charges = 624.00000

 Dipole moment (field-independent basis, Debye):
    X=              7.0950    Y=              1.5683    Z=             -7.5803  Tot=             10.5004
 Quadrupole moment (field-independent basis, Debye-Ang):
   XX=           -374.2885   YY=              0.7116   ZZ=             -5.1885
   XY=            -45.7961   XZ=            203.4768   YZ=              6.1398

 Normal termination of Gaussian 16 at Fri Oct 15 01:43:02 2021.
