 Gaussian 16, Revision A.03,
 Gaussian 16:  ES64L-G16RevA.03 25-Dec-2016

 --------------------------------------------------------
 #p PBE1PBE/Def2SVP td=(nstates=5) density=(transition=1)
 --------------------------------------------------------

 --------------------------------
 TDDFT excited states in gaussian
 --------------------------------
 Symbolic Z-matrix:
 Charge =  0 Multiplicity = 1

                         Standard orientation:
 ---------------------------------------------------------------------
 Center     Atomic      Atomic             Coordinates (Angstroms)
 Number     Number       Type             X           Y           Z
 ---------------------------------------------------------------------
      1         12           0       18.654721   -0.310399   -0.116157
      2          6           0       15.202357   -0.620205   -0.335803
      3          6           0       18.455748    2.555807   -2.190724
      4          6           0       21.658489    0.683111    0.958306
      5          6           0       18.581071   -2.727679    2.448994
      6          7           0       16.903522    1.067155   -0.882799
      7          6           0       15.646048    0.533535   -1.032274
      8          6           0       14.770818    1.415955   -1.865870
      9          6           0       15.853882    2.277382   -2.664178
     10          6           0       17.180839    2.002507   -1.872085
     11          6           0       16.002613    1.943875   -4.233678
     12          6           0       13.702601    2.196598   -0.940155
     13          6           0       12.487518    2.587663   -1.616067
     14          1           0       12.181554    4.097022   -1.514436
     15          7           0       19.966491    1.256459   -0.663985
     16          6           0       19.699286    2.340054   -1.546847
     17          6           0       20.911883    3.135146   -1.642384
     18          6           0       21.879897    2.607619   -0.753538
     19          6           0       21.211927    1.401393   -0.158938
     20          6           0       20.970237    4.388594   -2.433317
     21          6           0       23.299746    3.262131   -0.487116
     22          8           0       23.567695    4.284241   -1.116787
     23          6           0       24.407793    2.517987    0.250145
     24          7           0       19.841307   -0.895071    1.533327
     25          6           0       21.094810   -0.388013    1.649445
     26          6           0       21.894147   -0.957822    2.979034
     27          6           0       20.971409   -2.222529    3.326406
     28          6           0       19.730376   -2.003745    2.404374
     29          6           0       23.386301   -1.405953    2.743910
     30          6           0       20.569646   -2.286685    4.801159
     31          6           0       20.928444   -3.517117    5.668415
     32          7           0       17.269611   -1.634579    0.653164
     33          6           0       17.396819   -2.562347    1.645866
     34          6           0       16.180806   -3.322457    1.737457
     35          6           0       15.259019   -2.509242    0.976621
     36          6           0       16.001430   -1.473689    0.383841
     37          6           0       15.911477   -4.468599    2.669160
     38          6           0       13.856296   -2.342987    0.657950
     39          8           0       12.936457   -3.082661    0.834497
     40          6           0       13.716187   -1.095092   -0.298295
     41          6           0       13.243782   -1.428665   -1.730564
     42          8           0       13.730155   -2.287922   -2.433901
     43          8           0       12.107409   -0.655306   -2.045414
     44          6           0       11.436419   -0.964610   -3.271818
     45          1           0       18.338403    3.385075   -2.890322
     46          1           0       22.511893    1.093720    1.501642
     47          1           0       18.610576   -3.481885    3.237512
     48          1           0       14.310696    0.879629   -2.696421
     49          1           0       15.589892    3.330232   -2.558264
     50          1           0       15.767154    2.876928   -4.745449
     51          1           0       15.346795    1.137323   -4.560055
     52          1           0       17.050736    1.688114   -4.391672
     53          1           0       14.242603    3.094214   -0.639315
     54          1           0       13.628870    1.515672   -0.091784
     55          1           0       11.687050    2.013969   -1.150460
     56          1           0       12.567520    2.374872   -2.682062
     57          1           0       20.115533    4.481773   -3.103081
     58          1           0       21.830483    4.365895   -3.102785
     59          1           0       20.969543    5.265887   -1.786009
     60          1           0       24.190125    2.336388    1.303111
     61          1           0       25.321218    3.103807    0.142221
     62          1           0       24.568065    1.576199   -0.274812
     63          1           0       21.747878   -0.165965    3.713144
     64          1           0       21.356746   -3.181548    2.979456
     65          1           0       24.059430   -0.736188    3.278294
     66          1           0       23.615506   -1.359428    1.678622
     67          1           0       23.468753   -2.424034    3.125969
     68          1           0       19.510732   -2.069093    4.938788
     69          1           0       20.922604   -1.451519    5.405940
     70          1           0       20.110932   -4.164206    5.987462
     71          1           0       21.337872   -3.099309    6.588463
     72          1           0       21.651817   -4.159053    5.164235
     73          1           0       15.043996   -4.999630    2.276481
     74          1           0       15.444464   -4.195590    3.614927
     75          1           0       16.773941   -5.097314    2.888884
     76          1           0       12.942639   -0.502406    0.190818
     77          1           0       10.992060    0.005608   -3.496261
     78          1           0       10.578502   -1.618185   -3.114933
     79          1           0       12.127747   -1.392157   -3.996918
     80         12           0      -18.195282    0.266536    0.555373
     81          6           0      -15.568701   -1.060709   -1.291236
     82          6           0      -20.052999   -2.479752   -0.327765
     83          6           0      -20.896740    1.691015    2.164064
     84          6           0      -16.466757    3.268456    0.944289
     85          7           0      -17.794649   -1.591920   -0.589550
     86          6           0      -16.642108   -1.984096   -1.158828
     87          6           0      -16.644729   -3.432939   -1.699638
     88          6           0      -18.188591   -3.791774   -1.591963
     89          6           0      -18.772192   -2.518577   -0.811154
     90          6           0      -18.764559   -4.014388   -3.035802
     91          6           0      -15.683924   -4.299692   -0.734317
     92          6           0      -14.545733   -5.105402   -1.427102
     93          1           0      -14.792467   -5.377372   -2.955139
     94          7           0      -20.216615   -0.234411    0.838065
     95          6           0      -20.759337   -1.478323    0.454873
     96          6           0      -22.074407   -1.612128    1.044458
     97          6           0      -22.358575   -0.416628    1.716580
     98          6           0      -21.093677    0.406368    1.668803
     99          6           0      -23.018441   -2.751114    0.633741
    100          6           0      -23.678119   -0.007273    2.423069
    101          8           0      -23.870495    1.072750    3.012262
    102          6           0      -24.822689   -1.033929    2.473744
    103          7           0      -18.599767    2.247621    1.347003
    104          6           0      -19.824400    2.529238    2.025671
    105          6           0      -19.898791    4.024377    2.399625
    106          6           0      -18.360001    4.437178    2.255757
    107          6           0      -17.750892    3.223885    1.505214
    108          6           0      -20.908853    4.721617    1.503319
    109          6           0      -17.671267    4.618130    3.673838
    110          6           0      -17.686698    3.559639    4.828805
    111          7           0      -16.449951    1.021829   -0.086841
    112          6           0      -15.854183    2.269546    0.121464
    113          6           0      -14.575784    2.286543   -0.512212
    114          6           0      -14.396548    1.017802   -1.033208
    115          6           0      -15.600848    0.294077   -0.850931
    116          6           0      -13.629488    3.462225   -0.645115
    117          6           0      -13.485422    0.197761   -1.728198
    118          8           0      -12.436945    0.517971   -2.190418
    119          6           0      -14.265932   -1.149399   -2.023858
    120          6           0      -14.452352   -1.201734   -3.515064
    121          8           0      -15.508745   -0.994150   -4.074560
    122          8           0      -13.259708   -1.472262   -4.058603
    123          6           0      -13.184827   -1.116718   -5.454528
    124          1           0      -20.626187   -3.385682   -0.534454
    125          1           0      -21.815350    2.207237    2.448308
    126          1           0      -15.916483    4.206575    1.047403
    127          1           0      -16.262065   -3.549737   -2.713374
    128          1           0      -18.414464   -4.665325   -0.979982
    129          1           0      -19.737295   -3.558221   -3.221167
    130          1           0      -18.815184   -5.102789   -3.024867
    131          1           0      -17.976093   -3.733746   -3.733723
    132          1           0      -16.330638   -4.905259   -0.099723
    133          1           0      -15.219492   -3.594021   -0.045090
    134          1           0      -14.561061   -6.024772   -0.842766
    135          1           0      -13.552794   -4.664520   -1.343913
    136          1           0      -23.932714   -2.288055    0.261692
    137          1           0      -23.306545   -3.317691    1.520248
    138          1           0      -22.533567   -3.385437   -0.107658
    139          1           0      -25.240156   -1.088600    1.467490
    140          1           0      -25.598435   -0.575360    3.086731
    141          1           0      -24.492194   -1.921855    3.012133
    142          1           0      -20.137650    4.029007    3.463521
    143          1           0      -18.283191    5.419909    1.791930
    144          1           0      -21.704273    4.060416    1.159095
    145          1           0      -20.417248    5.141690    0.626141
    146          1           0      -21.432476    5.506410    2.048844
    147          1           0      -18.012484    5.567781    4.086068
    148          1           0      -16.613088    4.660004    3.415637
    149          1           0      -18.580264    3.725516    5.430739
    150          1           0      -16.788160    3.759743    5.413665
    151          1           0      -17.561161    2.518778    4.528852
    152          1           0      -13.313515    3.849454    0.323719
    153          1           0      -14.225653    4.216445   -1.158365
    154          1           0      -12.655265    3.238183   -1.081880
    155          1           0      -13.781209   -2.087642   -1.753358
    156          1           0      -12.189461   -0.817166   -5.781735
    157          1           0      -13.921846   -0.461803   -5.919060
    158          1           0      -13.383067   -1.952642   -6.125721
 ---------------------------------------------------------------------

 SCF Done:  E(RPBE1PBE) =  -4067.35074288     A.U. after   16 cycles

 Excitation energies and oscillator strengths:

 Excited State   1:      Singlet-A      1.8323 eV  676.67 nm  f=0.4044  <S**2>=0.000
     309 -> 315       -0.16901
     311 -> 313        0.69504
     311 <- 313       -0.11102
 This state for optimization and/or second-order correction.
 Total Energy, E(TD-HF/TD-DFT) =  -4067.28340794
 Copying the excited state density for this state as the 1-particle RhoCI density.

 Excited State   2:      Singlet-A      1.8556 eV  668.17 nm  f=0.3568  <S**2>=0.000
     310 -> 316       -0.16968
     312 -> 314        0.69286
     312 <- 314       -0.10771

 Excited State   3:      Singlet-A      1.8915 eV  655.48 nm  f=0.0000  <S**2>=0.000
     312 -> 313        0.70710

 Excited State   4:      Singlet-A      2.0271 eV  611.63 nm  f=0.0000  <S**2>=0.000
     311 -> 314        0.70710

 Excited State   5:      Singlet-A      2.2281 eV  556.47 nm  f=0.1217  <S**2>=0.000
     310 -> 314        0.65666
     312 -> 316        0.24640

 The electronic state is 1-A.
 Alpha  occ. eigenvalues --  -46.93183 -46.91450 -19.26668 -19.25812 -19.20962
 Alpha  occ. eigenvalues --  -19.20153 -19.19734 -19.19322 -19.18975 -19.18625
 Alpha  occ. eigenvalues --  -14.41702 -14.41686 -14.41647 -14.40912 -14.39740
 Alpha  occ. eigenvalues --  -14.39293 -14.38827 -14.38622 -10.37139 -10.36185
 Alpha  occ. eigenvalues --  -10.33395 -10.32418 -10.31716 -10.31298 -10.29390
 Alpha  occ. eigenvalues --  -10.29180 -10.29164 -10.28690 -10.28538 -10.28475
 Alpha  occ. eigenvalues --  -10.28457 -10.28412 -10.28400 -10.28210 -10.28186
 Alpha  occ. eigenvalues --  -10.27714 -10.27656 -10.27649 -10.27599 -10.27541
 Alpha  occ. eigenvalues --  -10.27344 -10.27095 -10.26552 -10.26352 -10.26309
 Alpha  occ. eigenvalues --  -10.26247 -10.26243 -10.26232 -10.26029 -10.25963
 Alpha  occ. eigenvalues --  -10.25860 -10.25679 -10.25642 -10.25624 -10.25590
 Alpha  occ. eigenvalues --  -10.25589 -10.25561 -10.25510 -10.25481 -10.25336
 Alpha  occ. eigenvalues --  -10.25309 -10.25227 -10.24897 -10.24702 -10.24690
 Alpha  occ. eigenvalues --  -10.24296 -10.24261 -10.24238 -10.24227 -10.24205
 Alpha  occ. eigenvalues --  -10.24132 -10.24129 -10.24124 -10.24119 -10.23901
 Alpha  occ. eigenvalues --  -10.23487 -10.23342 -10.23334 -10.23312 -10.23174
 Alpha  occ. eigenvalues --  -10.22985 -10.22897 -10.22761 -10.22696 -10.22611
 Alpha  occ. eigenvalues --  -10.22114  -3.15183  -3.13630  -1.87970  -1.87612
 Alpha  occ. eigenvalues --   -1.87372  -1.86472  -1.85981  -1.85876  -1.12813
 Alpha  occ. eigenvalues --   -1.10853  -1.06555  -1.05711  -1.04859  -1.03755
 Alpha  occ. eigenvalues --   -1.03585  -1.03181  -0.99811  -0.98658  -0.97866
 Alpha  occ. eigenvalues --   -0.97394  -0.97264  -0.96937  -0.96172  -0.95964
 Alpha  occ. eigenvalues --   -0.86988  -0.86683  -0.83520  -0.82912  -0.82600
 Alpha  occ. eigenvalues --   -0.82419  -0.82317  -0.82005  -0.81298  -0.81177
 Alpha  occ. eigenvalues --   -0.80800  -0.80787  -0.80345  -0.80077  -0.78304
 Alpha  occ. eigenvalues --   -0.78161  -0.77669  -0.77601  -0.76902  -0.76509
 Alpha  occ. eigenvalues --   -0.76361  -0.75481  -0.75458  -0.75164  -0.74623
 Alpha  occ. eigenvalues --   -0.74172  -0.72218  -0.72032  -0.71574  -0.71354
 Alpha  occ. eigenvalues --   -0.71016  -0.70984  -0.70483  -0.70071  -0.69322
 Alpha  occ. eigenvalues --   -0.69268  -0.67322  -0.67146  -0.65776  -0.65615
 Alpha  occ. eigenvalues --   -0.63612  -0.63207  -0.63041  -0.62928  -0.62287
 Alpha  occ. eigenvalues --   -0.61853  -0.60840  -0.60831  -0.60311  -0.60234
 Alpha  occ. eigenvalues --   -0.59336  -0.59043  -0.58994  -0.58872  -0.58695
 Alpha  occ. eigenvalues --   -0.58364  -0.57416  -0.56886  -0.54418  -0.54223
 Alpha  occ. eigenvalues --   -0.54070  -0.53897  -0.53543  -0.53514  -0.53060
 Alpha  occ. eigenvalues --   -0.52724  -0.52624  -0.52565  -0.52036  -0.51800
 Alpha  occ. eigenvalues --   -0.50838  -0.50663  -0.50275  -0.49952  -0.49562
 Alpha  occ. eigenvalues --   -0.49481  -0.49253  -0.49003  -0.48607  -0.48472
 Alpha  occ. eigenvalues --   -0.47853  -0.47773  -0.47732  -0.47337  -0.47129
 Alpha  occ. eigenvalues --   -0.46988  -0.46947  -0.46778  -0.46585  -0.46491
 Alpha  occ. eigenvalues --   -0.46349  -0.46299  -0.46185  -0.46180  -0.45653
 Alpha  occ. eigenvalues --   -0.45535  -0.45466  -0.45059  -0.44770  -0.44487
 Alpha  occ. eigenvalues --   -0.44406  -0.44377  -0.44274  -0.44176  -0.44027
 Alpha  occ. eigenvalues --   -0.43894  -0.43829  -0.43794  -0.43502  -0.43415
 Alpha  occ. eigenvalues --   -0.43252  -0.43124  -0.42941  -0.42685  -0.42573
 Alpha  occ. eigenvalues --   -0.42527  -0.42420  -0.42148  -0.42053  -0.41673
 Alpha  occ. eigenvalues --   -0.41662  -0.41562  -0.41318  -0.41137  -0.41001
 Alpha  occ. eigenvalues --   -0.40905  -0.40866  -0.40615  -0.40397  -0.40392
 Alpha  occ. eigenvalues --   -0.40232  -0.39958  -0.39738  -0.39719  -0.39636
 Alpha  occ. eigenvalues --   -0.39555  -0.39476  -0.39336  -0.39210  -0.38919
 Alpha  occ. eigenvalues --   -0.38831  -0.38670  -0.38445  -0.38439  -0.38354
 Alpha  occ. eigenvalues --   -0.38223  -0.38124  -0.37916  -0.37853  -0.37727
 Alpha  occ. eigenvalues --   -0.37560  -0.37461  -0.37458  -0.37309  -0.37223
 Alpha  occ. eigenvalues --   -0.37046  -0.36845  -0.36602  -0.36377  -0.36188
 Alpha  occ. eigenvalues --   -0.35960  -0.35878  -0.35674  -0.35614  -0.35336
 Alpha  occ. eigenvalues --   -0.35147  -0.34777  -0.34467  -0.34061  -0.33608
 Alpha  occ. eigenvalues --   -0.33145  -0.32747  -0.32646  -0.32439  -0.32075
 Alpha  occ. eigenvalues --   -0.32054  -0.31906  -0.31632  -0.31512  -0.31248
 Alpha  occ. eigenvalues --   -0.31175  -0.30684  -0.29771  -0.29578  -0.29406
 Alpha  occ. eigenvalues --   -0.29157  -0.28877  -0.28231  -0.27105  -0.26890
 Alpha  occ. eigenvalues --   -0.26190  -0.26111  -0.25588  -0.25555  -0.25439
 Alpha  occ. eigenvalues --   -0.25138  -0.25096  -0.24962  -0.21199  -0.20652
 Alpha  occ. eigenvalues --   -0.18795  -0.18579
 Alpha virt. eigenvalues --   -0.11270  -0.10975  -0.05153  -0.04891  -0.03766
 Alpha virt. eigenvalues --   -0.03601  -0.02316  -0.01884  -0.01442  -0.00298
 Alpha virt. eigenvalues --   -0.00118   0.00387   0.00582   0.01645   0.01679

 Mulliken charges:
               1
     1  Mg  11.999711
     2  C    6.007207
     3  C    5.980800
     4  C    5.992080
     5  C    6.022360
     6  N    6.992789
     7  C    5.972263
     8  C    6.013347
     9  C    5.989521
    10  C    6.036852
    11  C    5.998729
    12  C    6.001322
    13  C    6.004328
    14  H    0.988536
    15  N    6.994979
    16  C    6.046739
    17  C    6.012238
    18  C    6.018674
    19  C    6.028710
    20  C    5.994414
    21  C    6.013378
    22  O    8.020876
    23  C    5.996653
    24  N    7.013963
    25  C    6.023481
    26  C    5.992146
    27  C    6.007305
    28  C    5.964401
    29  C    5.998479
    30  C    6.002251
    31  C    6.000782
    32  N    6.999418
    33  C    5.958777
    34  C    5.978894
    35  C    5.990756
    36  C    5.976402
    37  C    6.001121
    38  C    5.982555
    39  O    7.970821
    40  C    5.998487
    41  C    5.994651
    42  O    7.994550
    43  O    7.996839
    44  C    6.002675
    45  H    1.008620
    46  H    1.007853
    47  H    0.993390
    48  H    0.997285
    49  H    1.002834
    50  H    1.002496
    51  H    1.012701
    52  H    0.995456
    53  H    0.988724
    54  H    1.007934
    55  H    1.002812
    56  H    0.996129
    57  H    1.017547
    58  H    1.014981
    59  H    1.017333
    60  H    1.011527
    61  H    1.012433
    62  H    1.008124
    63  H    1.001765
    64  H    0.999377
    65  H    0.999639
    66  H    0.996341
    67  H    1.009802
    68  H    1.004784
    69  H    0.991897
    70  H    1.003377
    71  H    0.996160
    72  H    0.996946
    73  H    0.987873
    74  H    0.979097
    75  H    0.983090
    76  H    0.990420
    77  H    0.994009
    78  H    0.996902
    79  H    0.995081
    80  Mg  12.000094
    81  C    5.999640
    82  C    6.000379
    83  C    6.000473
    84  C    6.000089
    85  N    6.999851
    86  C    6.000746
    87  C    5.999719
    88  C    6.000286
    89  C    5.999099
    90  C    6.000065
    91  C    5.999869
    92  C    5.999927
    93  H    1.000103
    94  N    7.000215
    95  C    5.998652
    96  C    5.999445
    97  C    5.999524
    98  C    5.998922
    99  C    5.999999
   100  C    5.999616
   101  O    7.999007
   102  C    6.000146
   103  N    7.000315
   104  C    5.999019
   105  C    6.000231
   106  C    5.999682
   107  C    6.000680
   108  C    6.000132
   109  C    5.999813
   110  C    6.000125
   111  N    6.999856
   112  C    6.000855
   113  C    6.000974
   114  C    6.000069
   115  C    6.000853
   116  C    6.000035
   117  C    6.000657
   118  O    8.000953
   119  C    6.000020
   120  C    6.000075
   121  O    8.000262
   122  O    8.000023
   123  C    5.999879
   124  H    0.999648
   125  H    0.999792
   126  H    1.000333
   127  H    1.000006
   128  H    1.000005
   129  H    1.000040
   130  H    0.999873
   131  H    0.999640
   132  H    1.000337
   133  H    0.999929
   134  H    1.000183
   135  H    1.000020
   136  H    0.999491
   137  H    0.999478
   138  H    0.999506
   139  H    0.999707
   140  H    0.999504
   141  H    0.999783
   142  H    1.000004
   143  H    1.000033
   144  H    1.000216
   145  H    0.999633
   146  H    0.999779
   147  H    1.000196
   148  H    0.999871
   149  H    1.000182
   150  H    1.000000
   151  H    1.000099
   152  H    1.000604
   153  H    1.000400
   154  H    1.000469
   155  H    1.000461
   156  H    1.000177
   157  H    1.000000
   158  H    1.000228
 Sum of Mulliken charges = 624.00000

 Dipole moment (field-independent basis, Debye):
    X=              7.9866    Y=              6.6723    Z=             -2.8451  Tot=             10.7889
 Quadrupole moment (field-independent basis, Debye-Ang):
   XX=            268.4250   YY=             -0.1584   ZZ=             -0.8128
   XY=            121.5848   XZ=            -50.1911   YZ=              0.4643

 Normal termination of Gaussian 16 at Thu Oct 14 10:40:02 2021.
