 Gaussian 16, Revision A.03,
 Gaussian 16:  ES64L-G16RevA.03 25-Dec-2016

 --------------------------------------------------------
 #p PBE1PBE/Def2SVP td=(nstates=5) density=(transition=1)
 --------------------------------------------------------

 --------------------------------
 TDDFT excited states in gaussian
 --------------------------------
 Symbolic Z-matrix:
 Charge =  0 Multiplicity = 1

                         Standard orientation:
 ---------------------------------------------------------------------
 Center     Atomic      Atomic             Coordinates (Angstroms)
 Number     Number       Type             X           Y           Z
 ---------------------------------------------------------------------
      1         12           0       26.835717   -0.713811    0.251862
      2          6           0       27.454924    2.306824   -1.175670
      3          6           0       25.943215    0.660230    3.288064
      4          6           0       26.469523   -3.869154    1.529783
      5          6           0       28.165622   -2.285606   -2.723318
      6          7           0       26.921676    1.236442    1.008416
      7          6           0       26.960698    2.393546    0.160198
      8          6           0       26.498023    3.594443    0.883744
      9          6           0       26.434857    3.052445    2.381894
     10          6           0       26.433004    1.544112    2.270012
     11          6           0       27.664821    3.556377    3.290425
     12          6           0       25.229770    4.272776    0.280440
     13          6           0       25.293934    5.762204    0.171096
     14          1           0       25.973861    6.518917    1.379388
     15          7           0       26.211237   -1.495892    2.130942
     16          6           0       25.917581   -0.720749    3.213201
     17          6           0       25.531006   -1.591018    4.270286
     18          6           0       25.579560   -2.954970    3.781922
     19          6           0       26.043329   -2.847400    2.358121
     20          6           0       25.230891   -1.072915    5.693843
     21          6           0       25.235184   -4.275312    4.397102
     22          8           0       25.409452   -5.407972    3.933666
     23          6           0       24.513178   -4.193741    5.795129
     24          7           0       27.362490   -2.842464   -0.457859
     25          6           0       27.014343   -3.912202    0.212935
     26          6           0       27.125653   -5.185855   -0.622561
     27          6           0       27.669985   -4.657082   -1.980316
     28          6           0       27.761843   -3.156003   -1.713233
     29          6           0       28.080328   -6.308366    0.032756
     30          6           0       26.621697   -5.011752   -3.125096
     31          6           0       25.221933   -4.349931   -3.159300
     32          7           0       27.800917   -0.130687   -1.525653
     33          6           0       28.213115   -0.870753   -2.617719
     34          6           0       28.570958    0.103439   -3.668760
     35          6           0       28.302940    1.361522   -3.219391
     36          6           0       27.826460    1.152362   -1.874448
     37          6           0       29.266383   -0.254541   -4.936838
     38          6           0       28.314463    2.793493   -3.517437
     39          8           0       28.665868    3.404196   -4.512922
     40          6           0       27.764444    3.442661   -2.172292
     41          6           0       28.845830    4.285153   -1.622315
     42          8           0       30.008318    3.948906   -1.336780
     43          8           0       28.271525    5.534967   -1.508340
     44          6           0       29.100127    6.522057   -0.803842
     45          1           0       25.603586    1.057014    4.246903
     46          1           0       26.218781   -4.841134    1.961230
     47          1           0       28.496501   -2.742073   -3.657856
     48          1           0       27.314740    4.308263    0.769100
     49          1           0       25.490873    3.380683    2.815866
     50          1           0       28.223138    4.382752    2.850552
     51          1           0       28.390728    2.743382    3.289385
     52          1           0       27.207572    3.715278    4.266157
     53          1           0       24.359989    4.034407    0.892684
     54          1           0       25.176948    3.833261   -0.715520
     55          1           0       24.310820    6.230636    0.146308
     56          1           0       25.736141    6.252666   -0.696193
     57          1           0       24.263114   -0.590217    5.829402
     58          1           0       26.082033   -0.419702    5.885401
     59          1           0       25.138772   -1.873668    6.427293
     60          1           0       25.241240   -3.900959    6.551678
     61          1           0       23.939103   -5.110264    5.929994
     62          1           0       23.688255   -3.481406    5.819666
     63          1           0       26.124364   -5.589518   -0.770922
     64          1           0       28.628661   -5.090543   -2.265337
     65          1           0       27.411799   -7.082474    0.411192
     66          1           0       28.638447   -5.885316    0.868627
     67          1           0       28.790897   -6.845969   -0.593780
     68          1           0       26.431293   -6.076054   -3.262379
     69          1           0       27.136388   -4.618095   -4.002187
     70          1           0       25.260273   -3.768422   -4.080533
     71          1           0       25.018249   -3.750038   -2.273201
     72          1           0       24.397865   -5.061342   -3.212695
     73          1           0       28.873513    0.481686   -5.637392
     74          1           0       29.064030   -1.276415   -5.258202
     75          1           0       30.301820    0.068935   -4.838716
     76          1           0       26.988079    4.081126   -2.593031
     77          1           0       28.520739    7.436816   -0.932159
     78          1           0       30.014998    6.613629   -1.389277
     79          1           0       29.403464    6.251519    0.207752
     80         12           0      -27.566844   -0.282219   -0.359080
     81          6           0      -25.633157    2.594639   -0.124533
     82          6           0      -28.819783    0.444122    2.751501
     83          6           0      -29.296073   -3.267951   -0.459429
     84          6           0      -25.854819   -1.254886   -3.235444
     85          7           0      -27.317063    1.390862    1.077452
     86          6           0      -26.577187    2.503770    0.935149
     87          6           0      -26.789804    3.570202    2.034761
     88          6           0      -27.649369    2.748928    3.088574
     89          6           0      -27.940440    1.388116    2.291860
     90          6           0      -26.818943    2.586522    4.411444
     91          6           0      -27.568754    4.807113    1.349532
     92          6           0      -26.919720    6.213283    1.510898
     93          1           0      -25.912938    6.319601    2.712908
     94          7           0      -28.819818   -1.342834    0.953093
     95          6           0      -29.282155   -0.807187    2.172940
     96          6           0      -30.337220   -1.656946    2.682520
     97          6           0      -30.456753   -2.748092    1.812559
     98          6           0      -29.549277   -2.456753    0.641585
     99          6           0      -30.890152   -1.473906    4.103062
    100          6           0      -31.365405   -3.996791    1.964203
    101          8           0      -31.433384   -4.936855    1.150407
    102          6           0      -32.318139   -4.058629    3.170482
    103          7           0      -27.480070   -2.026785   -1.649018
    104          6           0      -28.385606   -3.116427   -1.469266
    105          6           0      -28.049086   -4.260536   -2.448340
    106          6           0      -27.138455   -3.479526   -3.506524
    107          6           0      -26.834846   -2.145586   -2.775199
    108          6           0      -27.420596   -5.413853   -1.683753
    109          6           0      -27.921980   -3.207494   -4.859350
    110          6           0      -29.326323   -2.521700   -4.969325
    111          7           0      -26.021750    0.423687   -1.428411
    112          6           0      -25.396330   -0.068360   -2.578136
    113          6           0      -24.372498    0.842068   -2.976917
    114          6           0      -24.448530    1.904640   -2.094632
    115          6           0      -25.395618    1.576939   -1.093144
    116          6           0      -23.366166    0.663718   -4.095332
    117          6           0      -23.894315    3.163428   -1.788157
    118          8           0      -22.964297    3.687373   -2.313546
    119          6           0      -24.567341    3.603147   -0.422458
    120          6           0      -23.468300    3.591879    0.603781
    121          8           0      -23.346588    2.739267    1.458377
    122          8           0      -22.678947    4.644024    0.356936
    123          6           0      -21.370832    4.516673    0.951278
    124          1           0      -29.285258    0.706675    3.703537
    125          1           0      -29.659068   -4.291831   -0.354410
    126          1           0      -25.301006   -1.550836   -4.129428
    127          1           0      -25.876488    3.974741    2.470577
    128          1           0      -28.619276    3.185271    3.328400
    129          1           0      -26.853422    1.593524    4.860254
    130          1           0      -27.332721    3.331251    5.018659
    131          1           0      -25.820738    2.970933    4.203241
    132          1           0      -28.604596    4.757635    1.684560
    133          1           0      -27.622846    4.586470    0.283186
    134          1           0      -27.804219    6.830280    1.665502
    135          1           0      -26.395593    6.582574    0.629909
    136          1           0      -30.748557   -2.421116    4.624105
    137          1           0      -31.968276   -1.315801    4.052471
    138          1           0      -30.385296   -0.641969    4.593106
    139          1           0      -31.701006   -4.255023    4.048200
    140          1           0      -32.913820   -4.959694    3.025341
    141          1           0      -33.014383   -3.221395    3.128236
    142          1           0      -28.995490   -4.487433   -2.940060
    143          1           0      -26.297990   -4.105763   -3.803580
    144          1           0      -27.754979   -5.473770   -0.647911
    145          1           0      -26.334383   -5.326000   -1.682173
    146          1           0      -27.716658   -6.370012   -2.114781
    147          1           0      -27.965188   -4.147910   -5.408850
    148          1           0      -27.275796   -2.488257   -5.362649
    149          1           0      -30.090340   -3.294145   -4.880387
    150          1           0      -29.349465   -2.072504   -5.962885
    151          1           0      -29.499511   -1.671823   -4.308388
    152          1           0      -23.845437    0.553136   -5.068213
    153          1           0      -22.855196   -0.263598   -3.837107
    154          1           0      -22.728538    1.524976   -4.299630
    155          1           0      -25.009804    4.598134   -0.370944
    156          1           0      -20.579439    5.011218    0.388542
    157          1           0      -20.999147    3.560056    1.318207
    158          1           0      -21.283490    5.014709    1.917146
 ---------------------------------------------------------------------

 SCF Done:  E(RPBE1PBE) =  -4067.37562272     A.U. after   16 cycles

 Excitation energies and oscillator strengths:

 Excited State   1:      Singlet-A      1.8382 eV  674.49 nm  f=0.3713  <S**2>=0.000
     309 -> 315        0.17978
     311 -> 313        0.69182
     311 <- 313       -0.10365
 This state for optimization and/or second-order correction.
 Total Energy, E(TD-HF/TD-DFT) =  -4067.30806994
 Copying the excited state density for this state as the 1-particle RhoCI density.

 Excited State   2:      Singlet-A      1.8555 eV  668.19 nm  f=0.3782  <S**2>=0.000
     310 -> 316        0.16984
     312 -> 314        0.69319
     312 <- 314       -0.10777

 Excited State   3:      Singlet-A      1.9849 eV  624.63 nm  f=0.0000  <S**2>=0.000
     312 -> 313        0.70711

 Excited State   4:      Singlet-A      2.0198 eV  613.86 nm  f=0.0000  <S**2>=0.000
     311 -> 314        0.70711

 Excited State   5:      Singlet-A      2.2281 eV  556.47 nm  f=0.1210  <S**2>=0.000
     310 -> 314        0.65665
     312 -> 316       -0.24647

 The electronic state is 1-A.
 Alpha  occ. eigenvalues --  -46.92652 -46.91483 -19.26706 -19.26367 -19.20565
 Alpha  occ. eigenvalues --  -19.20190 -19.19950 -19.19559 -19.19359 -19.19006
 Alpha  occ. eigenvalues --  -14.41982 -14.41720 -14.41587 -14.40945 -14.39326
 Alpha  occ. eigenvalues --  -14.39235 -14.39094 -14.38656 -10.36614 -10.36222
 Alpha  occ. eigenvalues --  -10.32723 -10.32676 -10.32449 -10.31752 -10.29648
 Alpha  occ. eigenvalues --  -10.29599 -10.29198 -10.29096 -10.28520 -10.28514
 Alpha  occ. eigenvalues --  -10.28244 -10.28219 -10.28121 -10.27932 -10.27747
 Alpha  occ. eigenvalues --  -10.27683 -10.27633 -10.27618 -10.27574 -10.27384
 Alpha  occ. eigenvalues --  -10.27349 -10.26742 -10.26660 -10.26596 -10.26386
 Alpha  occ. eigenvalues --  -10.26345 -10.26317 -10.26278 -10.26166 -10.25889
 Alpha  occ. eigenvalues --  -10.25759 -10.25674 -10.25626 -10.25594 -10.25585
 Alpha  occ. eigenvalues --  -10.25544 -10.25434 -10.25403 -10.25387 -10.25343
 Alpha  occ. eigenvalues --  -10.25265 -10.25190 -10.25094 -10.24979 -10.24929
 Alpha  occ. eigenvalues --  -10.24741 -10.24735 -10.24724 -10.24294 -10.24270
 Alpha  occ. eigenvalues --  -10.24232 -10.24161 -10.24091 -10.23735 -10.23522
 Alpha  occ. eigenvalues --  -10.23348 -10.23347 -10.23204 -10.23135 -10.23017
 Alpha  occ. eigenvalues --  -10.23016 -10.22953 -10.22930 -10.22791 -10.22671
 Alpha  occ. eigenvalues --  -10.22148  -3.14641  -3.13663  -1.87484  -1.87004
 Alpha  occ. eigenvalues --   -1.86863  -1.86505  -1.86015  -1.85909  -1.12851
 Alpha  occ. eigenvalues --   -1.10783  -1.06591  -1.05104  -1.04166  -1.03792
 Alpha  occ. eigenvalues --   -1.03212  -1.02338  -0.99780  -0.98692  -0.98606
 Alpha  occ. eigenvalues --   -0.97900  -0.97449  -0.97298  -0.96330  -0.95997
 Alpha  occ. eigenvalues --   -0.87023  -0.86836  -0.83415  -0.83111  -0.82945
 Alpha  occ. eigenvalues --   -0.82354  -0.82312  -0.82038  -0.81727  -0.81331
 Alpha  occ. eigenvalues --   -0.81266  -0.80820  -0.80412  -0.80378  -0.78960
 Alpha  occ. eigenvalues --   -0.78196  -0.77692  -0.77635  -0.76697  -0.76543
 Alpha  occ. eigenvalues --   -0.75892  -0.75496  -0.75493  -0.75196  -0.74205
 Alpha  occ. eigenvalues --   -0.74144  -0.72355  -0.72065  -0.71690  -0.71487
 Alpha  occ. eigenvalues --   -0.71387  -0.71019  -0.70165  -0.70106  -0.69355
 Alpha  occ. eigenvalues --   -0.69323  -0.67356  -0.66953  -0.66665  -0.65649
 Alpha  occ. eigenvalues --   -0.64197  -0.63664  -0.63240  -0.63075  -0.62856
 Alpha  occ. eigenvalues --   -0.62323  -0.61846  -0.60873  -0.60270  -0.59827
 Alpha  occ. eigenvalues --   -0.59489  -0.59237  -0.59077  -0.59029  -0.58955
 Alpha  occ. eigenvalues --   -0.58397  -0.57138  -0.56920  -0.54842  -0.54453
 Alpha  occ. eigenvalues --   -0.54011  -0.53931  -0.53548  -0.53513  -0.53396
 Alpha  occ. eigenvalues --   -0.52759  -0.52600  -0.52519  -0.52127  -0.51834
 Alpha  occ. eigenvalues --   -0.50699  -0.50570  -0.50309  -0.50108  -0.49542
 Alpha  occ. eigenvalues --   -0.49516  -0.49463  -0.49045  -0.49038  -0.48505
 Alpha  occ. eigenvalues --   -0.48137  -0.47942  -0.47809  -0.47767  -0.47688
 Alpha  occ. eigenvalues --   -0.47019  -0.46994  -0.46929  -0.46812  -0.46524
 Alpha  occ. eigenvalues --   -0.46492  -0.46383  -0.46328  -0.46229  -0.46216
 Alpha  occ. eigenvalues --   -0.45664  -0.45571  -0.45417  -0.45094  -0.44548
 Alpha  occ. eigenvalues --   -0.44440  -0.44412  -0.44298  -0.44063  -0.43977
 Alpha  occ. eigenvalues --   -0.43826  -0.43535  -0.43490  -0.43285  -0.43274
 Alpha  occ. eigenvalues --   -0.43216  -0.43129  -0.42973  -0.42771  -0.42606
 Alpha  occ. eigenvalues --   -0.42453  -0.42355  -0.42181  -0.42100  -0.42016
 Alpha  occ. eigenvalues --   -0.41696  -0.41618  -0.41353  -0.41352  -0.41035
 Alpha  occ. eigenvalues --   -0.40939  -0.40893  -0.40616  -0.40425  -0.40325
 Alpha  occ. eigenvalues --   -0.40268  -0.39958  -0.39753  -0.39672  -0.39513
 Alpha  occ. eigenvalues --   -0.39509  -0.39315  -0.39243  -0.38954  -0.38762
 Alpha  occ. eigenvalues --   -0.38474  -0.38388  -0.38264  -0.38159  -0.38027
 Alpha  occ. eigenvalues --   -0.37887  -0.37762  -0.37752  -0.37696  -0.37664
 Alpha  occ. eigenvalues --   -0.37491  -0.37256  -0.37107  -0.37076  -0.36900
 Alpha  occ. eigenvalues --   -0.36877  -0.36870  -0.36635  -0.36516  -0.36441
 Alpha  occ. eigenvalues --   -0.36221  -0.35706  -0.35678  -0.35651  -0.35381
 Alpha  occ. eigenvalues --   -0.35181  -0.34744  -0.34499  -0.34490  -0.34096
 Alpha  occ. eigenvalues --   -0.32871  -0.32681  -0.32536  -0.32475  -0.32162
 Alpha  occ. eigenvalues --   -0.32087  -0.31942  -0.31748  -0.31546  -0.31490
 Alpha  occ. eigenvalues --   -0.31391  -0.31209  -0.29645  -0.29613  -0.29393
 Alpha  occ. eigenvalues --   -0.29192  -0.29030  -0.28265  -0.27139  -0.26888
 Alpha  occ. eigenvalues --   -0.26348  -0.26146  -0.25960  -0.25667  -0.25589
 Alpha  occ. eigenvalues --   -0.25473  -0.25448  -0.25169  -0.21310  -0.20686
 Alpha  occ. eigenvalues --   -0.18675  -0.18613
 Alpha virt. eigenvalues --   -0.11076  -0.11008  -0.05804  -0.04924  -0.04463
 Alpha virt. eigenvalues --   -0.03635  -0.02285  -0.01917  -0.00879  -0.00331
 Alpha virt. eigenvalues --    0.00058   0.00545   0.00792   0.01031   0.01608

 Mulliken charges:
               1
     1  Mg  12.002991
     2  C    6.020051
     3  C    5.980533
     4  C    5.996936
     5  C    6.016219
     6  N    7.002320
     7  C    5.965017
     8  C    6.011776
     9  C    5.989698
    10  C    6.034523
    11  C    5.999030
    12  C    6.002417
    13  C    6.003981
    14  H    0.991597
    15  N    6.992444
    16  C    6.035917
    17  C    6.021650
    18  C    6.016825
    19  C    6.023890
    20  C    5.999948
    21  C    6.012031
    22  O    8.030240
    23  C    5.995626
    24  N    7.003217
    25  C    6.025296
    26  C    5.991230
    27  C    6.010708
    28  C    5.967580
    29  C    5.998917
    30  C    6.002178
    31  C    6.004208
    32  N    7.002270
    33  C    5.957553
    34  C    5.974014
    35  C    5.996495
    36  C    5.969181
    37  C    6.001392
    38  C    5.982313
    39  O    7.973598
    40  C    5.998043
    41  C    5.997128
    42  O    7.995486
    43  O    7.998353
    44  C    6.001518
    45  H    1.007347
    46  H    1.006806
    47  H    0.991950
    48  H    0.998839
    49  H    1.000812
    50  H    1.013629
    51  H    1.000316
    52  H    0.999015
    53  H    0.988047
    54  H    1.005078
    55  H    0.996465
    56  H    1.003254
    57  H    1.019345
    58  H    1.014274
    59  H    1.012451
    60  H    1.008701
    61  H    1.013754
    62  H    1.007696
    63  H    1.000053
    64  H    0.997663
    65  H    0.997829
    66  H    0.996898
    67  H    1.008917
    68  H    0.990710
    69  H    1.004414
    70  H    1.005384
    71  H    0.991598
    72  H    0.993450
    73  H    0.985562
    74  H    0.982416
    75  H    0.980710
    76  H    0.992715
    77  H    0.995676
    78  H    0.998621
    79  H    0.993267
    80  Mg  12.000009
    81  C    5.999960
    82  C    6.000040
    83  C    6.000155
    84  C    6.000050
    85  N    7.000014
    86  C    6.000117
    87  C    5.999962
    88  C    6.000026
    89  C    5.999873
    90  C    6.000006
    91  C    5.999989
    92  C    5.999987
    93  H    0.999992
    94  N    7.000054
    95  C    5.999838
    96  C    5.999935
    97  C    5.999909
    98  C    5.999803
    99  C    6.000006
   100  C    6.000015
   101  O    7.999887
   102  C    6.000036
   103  N    6.999989
   104  C    5.999823
   105  C    6.000035
   106  C    5.999968
   107  C    6.000055
   108  C    6.000005
   109  C    5.999977
   110  C    6.000005
   111  N    6.999989
   112  C    6.000060
   113  C    6.000194
   114  C    6.000053
   115  C    5.999989
   116  C    5.999957
   117  C    6.000041
   118  O    8.000178
   119  C    5.999947
   120  C    5.999974
   121  O    8.000025
   122  O    8.000007
   123  C    5.999989
   124  H    0.999976
   125  H    0.999992
   126  H    1.000037
   127  H    0.999976
   128  H    1.000023
   129  H    1.000013
   130  H    0.999989
   131  H    0.999940
   132  H    1.000050
   133  H    0.999987
   134  H    1.000031
   135  H    0.999998
   136  H    0.999954
   137  H    0.999968
   138  H    0.999942
   139  H    0.999959
   140  H    0.999945
   141  H    0.999982
   142  H    1.000023
   143  H    0.999999
   144  H    1.000036
   145  H    0.999951
   146  H    0.999993
   147  H    1.000034
   148  H    0.999983
   149  H    1.000036
   150  H    1.000018
   151  H    1.000006
   152  H    1.000066
   153  H    1.000034
   154  H    1.000043
   155  H    1.000053
   156  H    1.000025
   157  H    0.999993
   158  H    1.000019
 Sum of Mulliken charges = 624.00000

 Dipole moment (field-independent basis, Debye):
    X=             -3.2747    Y=             -4.0310    Z=              8.9189  Tot=             10.3208
 Quadrupole moment (field-independent basis, Debye-Ang):
   XX=           -179.6872   YY=              3.8319   ZZ=              6.8635
   XY=           -106.4259   XZ=            240.6789   YZ=             -9.3266

 Normal termination of Gaussian 16 at Wed Oct 13 22:06:47 2021.
