 Gaussian 16, Revision A.03,
 Gaussian 16:  ES64L-G16RevA.03 25-Dec-2016

 --------------------------------------------------------
 #p PBE1PBE/Def2SVP td=(nstates=5) density=(transition=1)
 --------------------------------------------------------

 --------------------------------
 TDDFT excited states in gaussian
 --------------------------------
 Symbolic Z-matrix:
 Charge =  0 Multiplicity = 1

                         Standard orientation:
 ---------------------------------------------------------------------
 Center     Atomic      Atomic             Coordinates (Angstroms)
 Number     Number       Type             X           Y           Z
 ---------------------------------------------------------------------
      1         12           0       -8.766412    0.336003    0.717744
      2          6           0       -8.381061   -2.042914   -1.854288
      3          6           0       -6.539232   -1.438683    2.488281
      4          6           0       -8.823561    2.853814    2.800525
      5          6           0      -10.521346    2.316798   -1.683739
      6          7           0       -7.569789   -1.509071    0.313950
      7          6           0       -7.604028   -2.368125   -0.732279
      8          6           0       -6.720034   -3.585161   -0.549591
      9          6           0       -6.379683   -3.449393    0.988803
     10          6           0       -6.829263   -2.044411    1.332509
     11          6           0       -7.063299   -4.532254    1.921766
     12          6           0       -5.412569   -3.811801   -1.427121
     13          6           0       -4.781911   -2.661335   -2.255862
     14          1           0       -3.216494   -2.645015   -2.423114
     15          7           0       -7.869759    0.560576    2.509674
     16          6           0       -6.915835   -0.200574    3.028997
     17          6           0       -6.409650    0.442030    4.272381
     18          6           0       -7.239143    1.668315    4.443610
     19          6           0       -8.016455    1.734322    3.205726
     20          6           0       -5.424121   -0.199347    5.211669
     21          6           0       -7.139907    2.646139    5.585124
     22          8           0       -6.368710    2.397558    6.508581
     23          6           0       -7.902217    4.019117    5.679718
     24          7           0       -9.492932    2.430562    0.544247
     25          6           0       -9.491641    3.101620    1.643702
     26          6           0      -10.311800    4.442927    1.384145
     27          6           0      -10.603166    4.313767   -0.112384
     28          6           0      -10.158760    2.910356   -0.476892
     29          6           0      -11.560134    4.734041    2.233665
     30          6           0       -9.708428    5.294031   -1.033924
     31          6           0      -10.460956    6.412229   -1.778230
     32          7           0       -9.303882    0.263659   -1.336564
     33          6           0      -10.099014    1.051168   -2.126575
     34          6           0      -10.459844    0.340099   -3.380464
     35          6           0       -9.694821   -0.860471   -3.389076
     36          6           0       -9.108262   -0.871494   -2.050138
     37          6           0      -11.301150    0.887793   -4.554923
     38          6           0       -9.310229   -2.035942   -4.096593
     39          8           0       -9.459968   -2.434006   -5.264515
     40          6           0       -8.496243   -2.903194   -3.102850
     41          6           0       -9.237267   -4.236749   -2.969319
     42          8           0       -9.009297   -5.341905   -3.384393
     43          8           0      -10.258096   -4.061950   -2.028643
     44          6           0      -11.055468   -5.266019   -1.638427
     45          1           0       -5.805918   -2.032041    3.038746
     46          1           0       -8.842684    3.651501    3.547073
     47          1           0      -11.271022    2.820357   -2.297048
     48          1           0       -7.395956   -4.432679   -0.661920
     49          1           0       -5.305944   -3.572879    1.130749
     50          1           0       -7.720775   -5.182860    1.346081
     51          1           0       -7.734514   -3.911667    2.514426
     52          1           0       -6.298298   -5.065511    2.486432
     53          1           0       -5.629548   -4.640287   -2.101509
     54          1           0       -4.622367   -4.201655   -0.784592
     55          1           0       -5.081235   -1.741611   -1.753206
     56          1           0       -5.036908   -2.690484   -3.314768
     57          1           0       -5.377725    0.287896    6.185374
     58          1           0       -4.483346   -0.270875    4.664557
     59          1           0       -5.762080   -1.234590    5.268628
     60          1           0       -8.984110    4.072974    5.552716
     61          1           0       -7.542536    4.658377    4.873438
     62          1           0       -7.738651    4.513033    6.637093
     63          1           0       -9.709445    5.325113    1.598336
     64          1           0      -11.617179    4.497177   -0.469389
     65          1           0      -11.736933    3.955136    2.975558
     66          1           0      -12.442017    4.894826    1.612654
     67          1           0      -11.472565    5.636179    2.839129
     68          1           0       -9.189384    4.746440   -1.819396
     69          1           0       -8.963817    5.722301   -0.362576
     70          1           0      -10.049462    6.690108   -2.748885
     71          1           0      -10.358409    7.293239   -1.144725
     72          1           0      -11.467542    6.007235   -1.883174
     73          1           0      -11.481911    1.961957   -4.531951
     74          1           0      -12.254515    0.368870   -4.458418
     75          1           0      -10.849537    0.542980   -5.484783
     76          1           0       -7.500616   -3.078313   -3.509139
     77          1           0      -11.198179   -6.057545   -2.373777
     78          1           0      -12.050011   -4.856187   -1.463309
     79          1           0      -10.808370   -5.773929   -0.705965
     80         12           0        8.842767    0.686210   -0.357465
     81          6           0        7.858280   -2.524858    0.649806
     82          6           0        5.515222    1.468660   -0.769071
     83          6           0        9.795684    3.691852   -1.332013
     84          6           0       12.185985   -0.343155   -0.031895
     85          7           0        6.956575   -0.416887    0.007071
     86          6           0        6.749353   -1.738640    0.402093
     87          6           0        5.255026   -2.040150    0.814088
     88          6           0        4.596125   -0.818385    0.203475
     89          6           0        5.760788    0.169945   -0.217843
     90          6           0        3.808795   -1.208001   -1.130529
     91          6           0        5.265179   -1.937327    2.403850
     92          6           0        4.422323   -3.023809    3.205879
     93          1           0        3.203009   -3.409987    2.408255
     94          7           0        7.823971    2.247703   -1.085299
     95          6           0        6.507044    2.400838   -1.191877
     96          6           0        6.138361    3.702924   -1.681083
     97          6           0        7.337386    4.442849   -1.686685
     98          6           0        8.426090    3.431580   -1.410262
     99          6           0        4.763582    4.158511   -2.008388
    100          6           0        7.572741    5.932533   -1.828516
    101          8           0        8.653707    6.469852   -1.561674
    102          6           0        6.480244    6.824579   -2.424584
    103          7           0       10.763306    1.526459   -0.685585
    104          6           0       10.821777    2.856244   -1.030124
    105          6           0       12.280602    3.304904   -0.976238
    106          6           0       13.076343    2.020759   -0.431190
    107          6           0       11.971492    1.004760   -0.307130
    108          6           0       12.708686    3.892581   -2.367283
    109          6           0       13.904356    2.208198    0.830425
    110          6           0       15.384112    1.732721    0.687541
    111          7           0        9.823323   -1.071651    0.170085
    112          6           0       11.223077   -1.356795    0.240909
    113          6           0       11.433157   -2.710498    0.612176
    114          6           0       10.123688   -3.190847    0.781841
    115          6           0        9.210147   -2.168675    0.450708
    116          6           0       12.696908   -3.475863    0.839303
    117          6           0        9.339477   -4.326433    1.148476
    118          8           0        9.628020   -5.458916    1.456648
    119          6           0        7.849325   -3.883209    1.176287
    120          6           0        7.034973   -4.886005    0.442674
    121          8           0        7.011026   -5.091987   -0.767463
    122          8           0        6.271646   -5.502322    1.350351
    123          6           0        5.321196   -6.476153    0.855722
    124          1           0        4.509034    1.890619   -0.810686
    125          1           0       10.045019    4.699818   -1.672984
    126          1           0       13.207732   -0.687118    0.142200
    127          1           0        5.077394   -3.065098    0.489934
    128          1           0        3.954649   -0.330686    0.936714
    129          1           0        3.905995   -2.265473   -1.377097
    130          1           0        4.211562   -0.613787   -1.950540
    131          1           0        2.777715   -0.924304   -0.919312
    132          1           0        4.886871   -0.985849    2.776405
    133          1           0        6.313711   -1.969568    2.701046
    134          1           0        3.956766   -2.575575    4.083706
    135          1           0        5.066359   -3.787336    3.642933
    136          1           0        4.499757    4.907624   -1.260602
    137          1           0        4.044498    3.344417   -1.928831
    138          1           0        4.678523    4.599022   -3.001329
    139          1           0        7.086464    7.682525   -2.714408
    140          1           0        5.678090    7.069137   -1.727277
    141          1           0        6.028519    6.502867   -3.362767
    142          1           0       12.497974    4.122674   -0.289202
    143          1           0       13.745782    1.674580   -1.218769
    144          1           0       13.242557    4.816153   -2.143175
    145          1           0       11.879345    4.046383   -3.057746
    146          1           0       13.534559    3.325572   -2.798477
    147          1           0       13.485205    1.732543    1.716529
    148          1           0       14.008330    3.290800    0.915652
    149          1           0       15.601159    1.452264   -0.343284
    150          1           0       15.553701    0.785610    1.199313
    151          1           0       16.082171    2.510182    0.998661
    152          1           0       13.015723   -3.075068    1.801897
    153          1           0       13.336658   -3.280050   -0.020926
    154          1           0       12.520107   -4.541138    0.980917
    155          1           0        7.578747   -3.997119    2.226855
    156          1           0        5.833205   -7.216838    0.240811
    157          1           0        4.539949   -6.106622    0.190636
    158          1           0        4.892414   -6.953309    1.737138
 ---------------------------------------------------------------------

 SCF Done:  E(RPBE1PBE) =  -4067.38571012     A.U. after   17 cycles

 Excitation energies and oscillator strengths:

 Excited State   1:      Singlet-A      1.7113 eV  724.51 nm  f=0.0000  <S**2>=0.000
     312 -> 313        0.70707
 This state for optimization and/or second-order correction.
 Total Energy, E(TD-HF/TD-DFT) =  -4067.32282182
 Copying the excited state density for this state as the 1-particle RhoCI density.

 Excited State   2:      Singlet-A      1.8615 eV  666.04 nm  f=0.3636  <S**2>=0.000
     310 -> 316       -0.15515
     312 -> 314        0.69388
     312 <- 314       -0.10796

 Excited State   3:      Singlet-A      1.9114 eV  648.67 nm  f=0.3910  <S**2>=0.000
     309 -> 315        0.17699
     311 -> 313        0.69110
     311 <- 313       -0.10556

 Excited State   4:      Singlet-A      2.0629 eV  601.01 nm  f=0.0000  <S**2>=0.000
     311 -> 314        0.70709

 Excited State   5:      Singlet-A      2.2679 eV  546.70 nm  f=0.0849  <S**2>=0.000
     309 -> 313        0.64298
     310 -> 314        0.11280
     311 -> 315       -0.25433

 The electronic state is 1-A.
 Alpha  occ. eigenvalues --  -46.93637 -46.91113 -19.25944 -19.25347 -19.20714
 Alpha  occ. eigenvalues --  -19.19855 -19.19683 -19.19153 -19.19090 -19.17847
 Alpha  occ. eigenvalues --  -14.42010 -14.41723 -14.41479 -14.41082 -14.40185
 Alpha  occ. eigenvalues --  -14.40063 -14.39653 -14.38209 -10.36995 -10.35377
 Alpha  occ. eigenvalues --  -10.33100 -10.33086 -10.32824 -10.30471 -10.29387
 Alpha  occ. eigenvalues --  -10.29291 -10.29182 -10.28905 -10.28855 -10.28726
 Alpha  occ. eigenvalues --  -10.28678 -10.28619 -10.28388 -10.28343 -10.28170
 Alpha  occ. eigenvalues --  -10.28121 -10.28032 -10.27979 -10.27894 -10.27804
 Alpha  occ. eigenvalues --  -10.27802 -10.27086 -10.26972 -10.26922 -10.26779
 Alpha  occ. eigenvalues --  -10.26646 -10.26538 -10.26307 -10.26245 -10.26077
 Alpha  occ. eigenvalues --  -10.26030 -10.25919 -10.25763 -10.25637 -10.25407
 Alpha  occ. eigenvalues --  -10.25347 -10.25343 -10.25341 -10.25318 -10.25115
 Alpha  occ. eigenvalues --  -10.25077 -10.25012 -10.24965 -10.24953 -10.24939
 Alpha  occ. eigenvalues --  -10.24788 -10.24610 -10.24553 -10.24380 -10.24360
 Alpha  occ. eigenvalues --  -10.24310 -10.24220 -10.24209 -10.24171 -10.23891
 Alpha  occ. eigenvalues --  -10.23870 -10.23827 -10.23677 -10.23406 -10.23374
 Alpha  occ. eigenvalues --  -10.23374 -10.23360 -10.23219 -10.23138 -10.22898
 Alpha  occ. eigenvalues --  -10.21587  -3.15696  -3.13399  -1.88524  -1.88069
 Alpha  occ. eigenvalues --   -1.87922  -1.86252  -1.85754  -1.85654  -1.11945
 Alpha  occ. eigenvalues --   -1.10891  -1.04795  -1.04636  -1.04309  -1.04045
 Alpha  occ. eigenvalues --   -1.02198  -1.01948  -1.01575  -0.99609  -0.99401
 Alpha  occ. eigenvalues --   -0.98882  -0.98696  -0.98209  -0.97467  -0.96959
 Alpha  occ. eigenvalues --   -0.88017  -0.87120  -0.84347  -0.83788  -0.83357
 Alpha  occ. eigenvalues --   -0.83061  -0.82801  -0.82646  -0.82633  -0.82187
 Alpha  occ. eigenvalues --   -0.81497  -0.81277  -0.80893  -0.80081  -0.79367
 Alpha  occ. eigenvalues --   -0.78360  -0.78242  -0.77803  -0.77354  -0.76513
 Alpha  occ. eigenvalues --   -0.76204  -0.75940  -0.75502  -0.75273  -0.74961
 Alpha  occ. eigenvalues --   -0.74634  -0.73007  -0.72987  -0.72143  -0.71779
 Alpha  occ. eigenvalues --   -0.71517  -0.71102  -0.71082  -0.69966  -0.69904
 Alpha  occ. eigenvalues --   -0.69264  -0.67916  -0.67558  -0.67060  -0.65771
 Alpha  occ. eigenvalues --   -0.64183  -0.63777  -0.63427  -0.63233  -0.63202
 Alpha  occ. eigenvalues --   -0.62256  -0.62019  -0.61752  -0.61486  -0.60349
 Alpha  occ. eigenvalues --   -0.60169  -0.59762  -0.59679  -0.59585  -0.59518
 Alpha  occ. eigenvalues --   -0.59051  -0.57810  -0.57066  -0.55302  -0.55158
 Alpha  occ. eigenvalues --   -0.55070  -0.54219  -0.54146  -0.53665  -0.53360
 Alpha  occ. eigenvalues --   -0.53175  -0.52920  -0.52313  -0.51848  -0.51824
 Alpha  occ. eigenvalues --   -0.51201  -0.51122  -0.50586  -0.50306  -0.50180
 Alpha  occ. eigenvalues --   -0.49823  -0.49789  -0.49216  -0.48999  -0.48673
 Alpha  occ. eigenvalues --   -0.48439  -0.48408  -0.47997  -0.47703  -0.47527
 Alpha  occ. eigenvalues --   -0.47395  -0.47172  -0.47036  -0.46792  -0.46693
 Alpha  occ. eigenvalues --   -0.46488  -0.46370  -0.46256  -0.45925  -0.45915
 Alpha  occ. eigenvalues --   -0.45820  -0.45468  -0.45377  -0.45222  -0.45079
 Alpha  occ. eigenvalues --   -0.44839  -0.44836  -0.44598  -0.44522  -0.44242
 Alpha  occ. eigenvalues --   -0.44208  -0.43883  -0.43781  -0.43651  -0.43389
 Alpha  occ. eigenvalues --   -0.43314  -0.43253  -0.43060  -0.43008  -0.42813
 Alpha  occ. eigenvalues --   -0.42777  -0.42544  -0.42495  -0.42354  -0.42309
 Alpha  occ. eigenvalues --   -0.42145  -0.42054  -0.41862  -0.41849  -0.41518
 Alpha  occ. eigenvalues --   -0.41489  -0.41295  -0.41283  -0.41011  -0.40943
 Alpha  occ. eigenvalues --   -0.40774  -0.40755  -0.40396  -0.40287  -0.40016
 Alpha  occ. eigenvalues --   -0.39854  -0.39840  -0.39485  -0.39259  -0.39246
 Alpha  occ. eigenvalues --   -0.39194  -0.39026  -0.38989  -0.38568  -0.38508
 Alpha  occ. eigenvalues --   -0.38314  -0.38153  -0.38081  -0.37871  -0.37861
 Alpha  occ. eigenvalues --   -0.37520  -0.37388  -0.37218  -0.37209  -0.37147
 Alpha  occ. eigenvalues --   -0.37004  -0.36751  -0.36484  -0.36457  -0.36310
 Alpha  occ. eigenvalues --   -0.35995  -0.35949  -0.35770  -0.35617  -0.35333
 Alpha  occ. eigenvalues --   -0.35067  -0.34965  -0.34618  -0.34290  -0.34001
 Alpha  occ. eigenvalues --   -0.33682  -0.33444  -0.33248  -0.32877  -0.32618
 Alpha  occ. eigenvalues --   -0.32370  -0.32159  -0.31912  -0.31675  -0.31527
 Alpha  occ. eigenvalues --   -0.31454  -0.31307  -0.30220  -0.29586  -0.29428
 Alpha  occ. eigenvalues --   -0.29256  -0.28980  -0.28125  -0.27610  -0.27153
 Alpha  occ. eigenvalues --   -0.26751  -0.26419  -0.26338  -0.26309  -0.26079
 Alpha  occ. eigenvalues --   -0.25257  -0.25253  -0.24573  -0.21594  -0.20969
 Alpha  occ. eigenvalues --   -0.19365  -0.18635
 Alpha virt. eigenvalues --   -0.11606  -0.11015  -0.05709  -0.05275  -0.04952
 Alpha virt. eigenvalues --   -0.03492  -0.02833  -0.01612  -0.01577  -0.00004
 Alpha virt. eigenvalues --    0.00320   0.00598   0.01068   0.01476   0.01802

 Mulliken charges:
               1
     1  Mg  12.000000
     2  C    6.000000
     3  C    6.000000
     4  C    6.000000
     5  C    6.000000
     6  N    7.000000
     7  C    6.000000
     8  C    6.000000
     9  C    6.000000
    10  C    6.000000
    11  C    6.000000
    12  C    6.000000
    13  C    6.000000
    14  H    1.000000
    15  N    7.000000
    16  C    6.000000
    17  C    6.000000
    18  C    6.000000
    19  C    6.000000
    20  C    6.000000
    21  C    6.000000
    22  O    8.000000
    23  C    6.000000
    24  N    7.000000
    25  C    6.000000
    26  C    6.000000
    27  C    6.000000
    28  C    6.000000
    29  C    6.000000
    30  C    6.000000
    31  C    6.000000
    32  N    7.000000
    33  C    6.000000
    34  C    6.000000
    35  C    6.000000
    36  C    6.000000
    37  C    6.000000
    38  C    6.000000
    39  O    8.000000
    40  C    6.000000
    41  C    6.000000
    42  O    8.000000
    43  O    8.000000
    44  C    6.000000
    45  H    1.000000
    46  H    1.000000
    47  H    1.000000
    48  H    1.000000
    49  H    1.000000
    50  H    1.000000
    51  H    1.000000
    52  H    1.000000
    53  H    1.000000
    54  H    1.000000
    55  H    1.000000
    56  H    1.000000
    57  H    1.000000
    58  H    1.000000
    59  H    1.000000
    60  H    1.000000
    61  H    1.000000
    62  H    1.000000
    63  H    1.000000
    64  H    1.000000
    65  H    1.000000
    66  H    1.000000
    67  H    1.000000
    68  H    1.000000
    69  H    1.000000
    70  H    1.000000
    71  H    1.000000
    72  H    1.000000
    73  H    1.000000
    74  H    1.000000
    75  H    1.000000
    76  H    1.000000
    77  H    1.000000
    78  H    1.000000
    79  H    1.000000
    80  Mg  12.000000
    81  C    6.000000
    82  C    6.000000
    83  C    6.000000
    84  C    6.000000
    85  N    7.000000
    86  C    6.000000
    87  C    6.000000
    88  C    6.000000
    89  C    6.000000
    90  C    5.999999
    91  C    6.000000
    92  C    6.000000
    93  H    1.000000
    94  N    7.000000
    95  C    6.000000
    96  C    6.000000
    97  C    6.000000
    98  C    6.000000
    99  C    6.000000
   100  C    6.000000
   101  O    8.000000
   102  C    6.000000
   103  N    7.000000
   104  C    6.000000
   105  C    6.000000
   106  C    6.000000
   107  C    6.000000
   108  C    6.000000
   109  C    6.000000
   110  C    6.000000
   111  N    7.000000
   112  C    6.000000
   113  C    6.000000
   114  C    6.000000
   115  C    6.000000
   116  C    6.000000
   117  C    6.000000
   118  O    8.000000
   119  C    6.000000
   120  C    6.000000
   121  O    8.000000
   122  O    8.000000
   123  C    6.000000
   124  H    1.000000
   125  H    1.000000
   126  H    1.000000
   127  H    1.000000
   128  H    1.000000
   129  H    1.000000
   130  H    1.000000
   131  H    1.000001
   132  H    1.000000
   133  H    1.000000
   134  H    1.000000
   135  H    1.000000
   136  H    1.000000
   137  H    1.000000
   138  H    1.000000
   139  H    1.000000
   140  H    1.000000
   141  H    1.000000
   142  H    1.000000
   143  H    1.000000
   144  H    1.000000
   145  H    1.000000
   146  H    1.000000
   147  H    1.000000
   148  H    1.000000
   149  H    1.000000
   150  H    1.000000
   151  H    1.000000
   152  H    1.000000
   153  H    1.000000
   154  H    1.000000
   155  H    1.000000
   156  H    1.000000
   157  H    1.000000
   158  H    1.000000
 Sum of Mulliken charges = 624.00000

 Dipole moment (field-independent basis, Debye):
    X=             -0.0001    Y=              0.0000    Z=             -0.0000  Tot=              0.0001
 Quadrupole moment (field-independent basis, Debye-Ang):
   XX=             -0.0006   YY=              0.0000   ZZ=              0.0001
   XY=              0.0003   XZ=             -0.0000   YZ=              0.0000

 Normal termination of Gaussian 16 at Thu Oct 14 21:32:03 2021.
