 Gaussian 16, Revision A.03,
 Gaussian 16:  ES64L-G16RevA.03 25-Dec-2016

 --------------------------------------------------------
 #p PBE1PBE/Def2SVP td=(nstates=5) density=(transition=1)
 --------------------------------------------------------

 --------------------------------
 TDDFT excited states in gaussian
 --------------------------------
 Symbolic Z-matrix:
 Charge =  0 Multiplicity = 1

                         Standard orientation:
 ---------------------------------------------------------------------
 Center     Atomic      Atomic             Coordinates (Angstroms)
 Number     Number       Type             X           Y           Z
 ---------------------------------------------------------------------
      1         12           0      -26.204528    0.648662   -0.050117
      2          6           0      -24.308233   -1.716796    1.591416
      3          6           0      -26.776997   -1.849088   -2.552399
      4          6           0      -27.740799    2.875346   -1.876293
      5          6           0      -25.295229    3.053136    2.264378
      6          7           0      -25.395602   -1.519819   -0.505972
      7          6           0      -24.846871   -2.281633    0.425388
      8          6           0      -25.000487   -3.788536    0.074333
      9          6           0      -25.268648   -3.676440   -1.467248
     10          6           0      -25.863667   -2.263488   -1.577409
     11          6           0      -23.958347   -3.841386   -2.316447
     12          6           0      -26.207985   -4.297741    0.892544
     13          6           0      -26.485664   -5.806158    0.837751
     14          1           0      -25.766591   -6.677510   -0.172440
     15          7           0      -27.226700    0.595207   -1.859600
     16          6           0      -27.368810   -0.554053   -2.711040
     17          6           0      -28.321877   -0.170634   -3.743563
     18          6           0      -28.693444    1.185371   -3.482914
     19          6           0      -27.852032    1.644175   -2.378581
     20          6           0      -28.855016   -1.127799   -4.873953
     21          6           0      -29.801738    2.015984   -4.210457
     22          8           0      -29.899246    3.182282   -3.943134
     23          6           0      -30.681692    1.376645   -5.234996
     24          7           0      -26.558194    2.683423    0.217288
     25          6           0      -27.237345    3.425817   -0.685961
     26          6           0      -27.294664    4.910025   -0.326334
     27          6           0      -26.628004    4.925282    1.068791
     28          6           0      -26.116592    3.432968    1.197187
     29          6           0      -26.604674    5.885720   -1.349020
     30          6           0      -27.436796    5.470909    2.217923
     31          6           0      -28.904136    5.035189    2.447340
     32          7           0      -25.043615    0.751858    1.597212
     33          6           0      -24.761679    1.775184    2.456285
     34          6           0      -23.990270    1.216259    3.546414
     35          6           0      -23.785573   -0.185383    3.302641
     36          6           0      -24.456666   -0.396166    2.067040
     37          6           0      -23.494584    2.010022    4.714690
     38          6           0      -23.160773   -1.389073    3.737908
     39          8           0      -22.435461   -1.665592    4.718105
     40          6           0      -23.285158   -2.358048    2.439562
     41          6           0      -23.526848   -3.770310    2.975001
     42          8           0      -24.370359   -4.079724    3.726679
     43          8           0      -22.561674   -4.586490    2.457400
     44          6           0      -22.776823   -6.017593    2.518138
     45          1           0      -26.891492   -2.594050   -3.341999
     46          1           0      -28.197456    3.670056   -2.469916
     47          1           0      -24.957998    3.766636    3.018133
     48          1           0      -24.073909   -4.343258    0.221381
     49          1           0      -26.015453   -4.449582   -1.649499
     50          1           0      -23.946454   -4.830202   -2.773271
     51          1           0      -23.108973   -3.696242   -1.648639
     52          1           0      -23.894245   -3.149530   -3.156332
     53          1           0      -27.100686   -3.835751    0.471737
     54          1           0      -26.198877   -3.920528    1.914693
     55          1           0      -27.542596   -6.051838    0.943284
     56          1           0      -26.175219   -6.168158    1.818074
     57          1           0      -28.770512   -0.684865   -5.866752
     58          1           0      -29.880620   -1.366753   -4.593099
     59          1           0      -28.327689   -2.081051   -4.821086
     60          1           0      -31.588044    1.977140   -5.154207
     61          1           0      -30.987535    0.368719   -4.956900
     62          1           0      -30.294910    1.133195   -6.224520
     63          1           0      -28.357691    5.142745   -0.267894
     64          1           0      -25.679313    5.461829    1.081116
     65          1           0      -26.173303    6.682837   -0.744110
     66          1           0      -27.452301    6.240357   -1.935787
     67          1           0      -25.932940    5.335146   -2.007537
     68          1           0      -27.587405    6.492483    1.870537
     69          1           0      -26.980668    5.457951    3.208380
     70          1           0      -29.682199    5.795560    2.394429
     71          1           0      -29.061997    4.695677    3.470989
     72          1           0      -29.170117    4.275144    1.712561
     73          1           0      -22.905848    1.313604    5.311080
     74          1           0      -24.334803    2.325150    5.334875
     75          1           0      -22.991724    2.943776    4.464751
     76          1           0      -22.343102   -2.228489    1.906389
     77          1           0      -21.810539   -6.167249    3.000012
     78          1           0      -22.984814   -6.472923    1.549651
     79          1           0      -23.558414   -6.327074    3.212484
     80         12           0       26.407877    0.628923   -0.089069
     81          6           0       24.357305   -1.822053   -1.575705
     82          6           0       27.905063   -1.939800    1.672954
     83          6           0       28.381760    2.901994    1.520752
     84          6           0       24.643101    3.049233   -1.604634
     85          7           0       26.176740   -1.657165    0.007026
     86          6           0       25.372942   -2.468949   -0.784250
     87          6           0       25.769052   -3.922995   -0.624215
     88          6           0       26.645738   -3.924739    0.680610
     89          6           0       26.930766   -2.442620    0.774523
     90          6           0       25.977993   -4.576725    1.954299
     91          6           0       26.592114   -4.459801   -1.804710
     92          6           0       26.313763   -5.915993   -2.192517
     93          1           0       26.760912   -7.040952   -1.218044
     94          7           0       27.983628    0.505406    1.314994
     95          6           0       28.369891   -0.649916    1.903657
     96          6           0       29.348191   -0.348566    2.897647
     97          6           0       29.662554    1.052528    2.825910
     98          6           0       28.640343    1.538950    1.916209
     99          6           0       29.939391   -1.408163    3.785522
    100          6           0       30.663907    1.914336    3.595195
    101          8           0       30.903649    3.096847    3.265437
    102          6           0       31.373362    1.424099    4.852337
    103          7           0       26.554024    2.651468   -0.120136
    104          6           0       27.396159    3.419427    0.678394
    105          6           0       27.099066    4.865686    0.448410
    106          6           0       25.943495    4.999302   -0.607556
    107          6           0       25.697019    3.501933   -0.853165
    108          6           0       26.917975    5.707920    1.747008
    109          6           0       26.310389    5.750590   -1.905674
    110          6           0       25.905141    7.237204   -1.891232
    111          7           0       24.828126    0.679729   -1.277663
    112          6           0       24.195916    1.744282   -1.918564
    113          6           0       23.100805    1.292095   -2.854536
    114          6           0       23.158462   -0.100028   -2.679017
    115          6           0       24.226129   -0.426304   -1.782316
    116          6           0       22.216460    2.174593   -3.716465
    117          6           0       22.516013   -1.325450   -3.129540
    118          8           0       21.560473   -1.506100   -3.885422
    119          6           0       23.382994   -2.495825   -2.497897
    120          6           0       22.366496   -3.420619   -1.799847
    121          8           0       21.396527   -3.072890   -1.158423
    122          8           0       22.642639   -4.737281   -2.163411
    123          6           0       21.725459   -5.701802   -1.556020
    124          1           0       28.409280   -2.781089    2.152610
    125          1           0       28.960528    3.711642    1.969639
    126          1           0       24.047078    3.892956   -1.957690
    127          1           0       24.935246   -4.605567   -0.461861
    128          1           0       27.581508   -4.477828    0.599373
    129          1           0       25.016069   -5.061423    1.784890
    130          1           0       25.753202   -3.906941    2.783990
    131          1           0       26.599760   -5.382107    2.345317
    132          1           0       27.661595   -4.373481   -1.614107
    133          1           0       26.370129   -3.901833   -2.714597
    134          1           0       26.694802   -6.152309   -3.185931
    135          1           0       25.248668   -6.086549   -2.347931
    136          1           0       29.045934   -1.921169    4.141730
    137          1           0       30.477899   -1.082381    4.675335
    138          1           0       30.567617   -2.136407    3.273103
    139          1           0       30.660657    1.001125    5.560516
    140          1           0       31.842182    2.338339    5.216015
    141          1           0       32.091942    0.638984    4.617124
    142          1           0       28.030039    5.322837    0.111768
    143          1           0       25.008846    5.409243   -0.222662
    144          1           0       26.985323    5.026330    2.595225
    145          1           0       25.923595    6.153508    1.740252
    146          1           0       27.751180    6.411016    1.721618
    147          1           0       25.919044    5.166517   -2.738330
    148          1           0       27.392247    5.825743   -2.017538
    149          1           0       25.827407    7.588173   -0.862027
    150          1           0       24.923203    7.479932   -2.297836
    151          1           0       26.704292    7.806593   -2.366768
    152          1           0       22.835519    2.551867   -4.530615
    153          1           0       21.797007    3.049631   -3.220403
    154          1           0       21.431288    1.520979   -4.096126
    155          1           0       23.967778   -3.084445   -3.204509
    156          1           0       22.042478   -6.086903   -0.586378
    157          1           0       21.652435   -6.492784   -2.302291
    158          1           0       20.705765   -5.393578   -1.325161
 ---------------------------------------------------------------------

 SCF Done:  E(RPBE1PBE) =  -4067.40287433     A.U. after   16 cycles

 Excitation energies and oscillator strengths:

 Excited State   1:      Singlet-A      1.8492 eV  670.47 nm  f=0.3666  <S**2>=0.000
     309 -> 316        0.18115
     312 -> 313        0.69137
     312 <- 313       -0.10447
 This state for optimization and/or second-order correction.
 Total Energy, E(TD-HF/TD-DFT) =  -4067.33491744
 Copying the excited state density for this state as the 1-particle RhoCI density.

 Excited State   2:      Singlet-A      1.8859 eV  657.44 nm  f=0.3646  <S**2>=0.000
     310 -> 315       -0.19014
     311 -> 314        0.68805
     311 <- 314       -0.10014

 Excited State   3:      Singlet-A      2.0148 eV  615.36 nm  f=0.0000  <S**2>=0.000
     311 -> 313        0.70711

 Excited State   4:      Singlet-A      2.0454 eV  606.15 nm  f=0.0000  <S**2>=0.000
     312 -> 314        0.70711

 Excited State   5:      Singlet-A      2.2137 eV  560.07 nm  f=0.0892  <S**2>=0.000
     310 -> 314        0.64979
     311 -> 315        0.26393

 The electronic state is 1-A.
 Alpha  occ. eigenvalues --  -46.91644 -46.91070 -19.26403 -19.25005 -19.20612
 Alpha  occ. eigenvalues --  -19.20379 -19.19364 -19.19334 -19.19331 -19.19179
 Alpha  occ. eigenvalues --  -14.42029 -14.41233 -14.41156 -14.40962 -14.39592
 Alpha  occ. eigenvalues --  -14.39064 -14.38996 -14.38905 -10.36703 -10.35850
 Alpha  occ. eigenvalues --  -10.32893 -10.32444 -10.32273 -10.32137 -10.29296
 Alpha  occ. eigenvalues --  -10.28704 -10.28647 -10.28456 -10.28365 -10.28360
 Alpha  occ. eigenvalues --  -10.28354 -10.28271 -10.28231 -10.28222 -10.28191
 Alpha  occ. eigenvalues --  -10.28158 -10.28139 -10.27205 -10.27075 -10.27070
 Alpha  occ. eigenvalues --  -10.26917 -10.26678 -10.26623 -10.26598 -10.26457
 Alpha  occ. eigenvalues --  -10.26394 -10.26262 -10.26242 -10.26175 -10.26151
 Alpha  occ. eigenvalues --  -10.26150 -10.26132 -10.25855 -10.25757 -10.25615
 Alpha  occ. eigenvalues --  -10.25606 -10.25387 -10.25302 -10.25262 -10.25233
 Alpha  occ. eigenvalues --  -10.25112 -10.25096 -10.25036 -10.24975 -10.24500
 Alpha  occ. eigenvalues --  -10.24313 -10.24311 -10.24300 -10.24170 -10.24064
 Alpha  occ. eigenvalues --  -10.24043 -10.24020 -10.23933 -10.23799 -10.23780
 Alpha  occ. eigenvalues --  -10.23737 -10.23737 -10.23605 -10.23525 -10.23503
 Alpha  occ. eigenvalues --  -10.23365 -10.23165 -10.23137 -10.23030 -10.22671
 Alpha  occ. eigenvalues --  -10.22621  -3.13860  -3.13426  -1.86701  -1.86267
 Alpha  occ. eigenvalues --   -1.86250  -1.86074  -1.85778  -1.85695  -1.12326
 Alpha  occ. eigenvalues --   -1.11045  -1.06312  -1.04594  -1.04000  -1.03539
 Alpha  occ. eigenvalues --   -1.02993  -1.02655  -0.99858  -0.99254  -0.98639
 Alpha  occ. eigenvalues --   -0.98238  -0.97808  -0.97666  -0.96800  -0.96094
 Alpha  occ. eigenvalues --   -0.87319  -0.86934  -0.83675  -0.83643  -0.83315
 Alpha  occ. eigenvalues --   -0.83034  -0.82750  -0.82583  -0.81819  -0.81634
 Alpha  occ. eigenvalues --   -0.81217  -0.80687  -0.80496  -0.79931  -0.78639
 Alpha  occ. eigenvalues --   -0.78339  -0.77984  -0.77891  -0.76699  -0.76576
 Alpha  occ. eigenvalues --   -0.75944  -0.75840  -0.75714  -0.75253  -0.74589
 Alpha  occ. eigenvalues --   -0.74387  -0.72696  -0.72315  -0.71789  -0.71650
 Alpha  occ. eigenvalues --   -0.71563  -0.71057  -0.70459  -0.70162  -0.69879
 Alpha  occ. eigenvalues --   -0.69407  -0.67156  -0.67079  -0.66434  -0.66073
 Alpha  occ. eigenvalues --   -0.64617  -0.63707  -0.63276  -0.63259  -0.62641
 Alpha  occ. eigenvalues --   -0.62484  -0.61670  -0.60667  -0.60176  -0.59923
 Alpha  occ. eigenvalues --   -0.59642  -0.59402  -0.59004  -0.58802  -0.58770
 Alpha  occ. eigenvalues --   -0.58612  -0.57146  -0.56869  -0.55062  -0.54894
 Alpha  occ. eigenvalues --   -0.54623  -0.54179  -0.53700  -0.53510  -0.53358
 Alpha  occ. eigenvalues --   -0.53159  -0.52710  -0.52358  -0.52278  -0.52032
 Alpha  occ. eigenvalues --   -0.50742  -0.50621  -0.50568  -0.50226  -0.50010
 Alpha  occ. eigenvalues --   -0.49836  -0.49726  -0.49055  -0.48770  -0.48378
 Alpha  occ. eigenvalues --   -0.48260  -0.48087  -0.48053  -0.47694  -0.47648
 Alpha  occ. eigenvalues --   -0.47485  -0.47151  -0.46978  -0.46722  -0.46691
 Alpha  occ. eigenvalues --   -0.46581  -0.46421  -0.46242  -0.46201  -0.45805
 Alpha  occ. eigenvalues --   -0.45346  -0.45242  -0.45128  -0.44752  -0.44628
 Alpha  occ. eigenvalues --   -0.44610  -0.44571  -0.44398  -0.44250  -0.44099
 Alpha  occ. eigenvalues --   -0.43998  -0.43919  -0.43887  -0.43690  -0.43513
 Alpha  occ. eigenvalues --   -0.43333  -0.43145  -0.42898  -0.42792  -0.42774
 Alpha  occ. eigenvalues --   -0.42709  -0.42613  -0.42288  -0.42191  -0.42103
 Alpha  occ. eigenvalues --   -0.41522  -0.41493  -0.41403  -0.41379  -0.41243
 Alpha  occ. eigenvalues --   -0.41235  -0.40984  -0.40664  -0.40630  -0.40627
 Alpha  occ. eigenvalues --   -0.40249  -0.40219  -0.39917  -0.39730  -0.39676
 Alpha  occ. eigenvalues --   -0.39505  -0.39406  -0.39294  -0.39187  -0.39024
 Alpha  occ. eigenvalues --   -0.38679  -0.38398  -0.38302  -0.38173  -0.38146
 Alpha  occ. eigenvalues --   -0.37959  -0.37925  -0.37768  -0.37698  -0.37574
 Alpha  occ. eigenvalues --   -0.37474  -0.37203  -0.37160  -0.36929  -0.36803
 Alpha  occ. eigenvalues --   -0.36758  -0.36657  -0.36556  -0.36406  -0.36382
 Alpha  occ. eigenvalues --   -0.36288  -0.36070  -0.35887  -0.35815  -0.35449
 Alpha  occ. eigenvalues --   -0.35176  -0.35081  -0.34662  -0.34431  -0.34399
 Alpha  occ. eigenvalues --   -0.33698  -0.33326  -0.33312  -0.32934  -0.32786
 Alpha  occ. eigenvalues --   -0.32518  -0.32225  -0.32151  -0.31858  -0.31670
 Alpha  occ. eigenvalues --   -0.31273  -0.30863  -0.30348  -0.30115  -0.29857
 Alpha  occ. eigenvalues --   -0.29111  -0.28812  -0.28438  -0.26941  -0.26700
 Alpha  occ. eigenvalues --   -0.26318  -0.26059  -0.26019  -0.25790  -0.25607
 Alpha  occ. eigenvalues --   -0.25529  -0.25223  -0.24971  -0.20856  -0.20735
 Alpha  occ. eigenvalues --   -0.18715  -0.18697
 Alpha virt. eigenvalues --   -0.11059  -0.10926  -0.05330  -0.05244  -0.04226
 Alpha virt. eigenvalues --   -0.03992  -0.02631  -0.01791   0.00297   0.00305
 Alpha virt. eigenvalues --    0.00519   0.01307   0.01337   0.01495   0.01654

 Mulliken charges:
               1
     1  Mg  11.999996
     2  C    6.000067
     3  C    6.000039
     4  C    5.999931
     5  C    5.999937
     6  N    7.000013
     7  C    5.999996
     8  C    6.000002
     9  C    6.000004
    10  C    5.999966
    11  C    6.000002
    12  C    5.999986
    13  C    6.000000
    14  H    1.000027
    15  N    7.000010
    16  C    5.999938
    17  C    6.000008
    18  C    5.999975
    19  C    6.000021
    20  C    5.999994
    21  C    5.999971
    22  O    7.999970
    23  C    6.000009
    24  N    6.999988
    25  C    6.000018
    26  C    5.999997
    27  C    5.999994
    28  C    6.000051
    29  C    6.000017
    30  C    6.000002
    31  C    6.000002
    32  N    6.999994
    33  C    6.000085
    34  C    5.999972
    35  C    6.000036
    36  C    5.999984
    37  C    6.000015
    38  C    6.000014
    39  O    8.000038
    40  C    6.000002
    41  C    6.000004
    42  O    7.999985
    43  O    8.000014
    44  C    5.999999
    45  H    0.999993
    46  H    0.999995
    47  H    1.000007
    48  H    1.000016
    49  H    0.999987
    50  H    1.000005
    51  H    1.000006
    52  H    1.000025
    53  H    1.000003
    54  H    0.999981
    55  H    0.999984
    56  H    0.999988
    57  H    0.999990
    58  H    0.999964
    59  H    0.999984
    60  H    0.999958
    61  H    0.999981
    62  H    0.999993
    63  H    0.999979
    64  H    1.000009
    65  H    0.999980
    66  H    0.999988
    67  H    1.000023
    68  H    1.000005
    69  H    0.999983
    70  H    0.999984
    71  H    0.999974
    72  H    1.000013
    73  H    1.000018
    74  H    1.000003
    75  H    1.000043
    76  H    1.000042
    77  H    1.000022
    78  H    1.000017
    79  H    0.999982
    80  Mg  12.000462
    81  C    6.017475
    82  C    5.989489
    83  C    5.982294
    84  C    6.009150
    85  N    7.006499
    86  C    5.968457
    87  C    6.009254
    88  C    5.989415
    89  C    6.031966
    90  C    5.997012
    91  C    6.003134
    92  C    6.001375
    93  H    0.990706
    94  N    6.996199
    95  C    6.034923
    96  C    6.024499
    97  C    6.013147
    98  C    6.028507
    99  C    5.997848
   100  C    6.010944
   101  O    8.026649
   102  C    5.996716
   103  N    6.994070
   104  C    6.032547
   105  C    5.991437
   106  C    6.011321
   107  C    5.969389
   108  C    5.998044
   109  C    6.003686
   110  C    5.999958
   111  N    6.999679
   112  C    5.965701
   113  C    5.968175
   114  C    6.000465
   115  C    5.970433
   116  C    5.999392
   117  C    5.983368
   118  O    7.971136
   119  C    5.999917
   120  C    5.993918
   121  O    7.997545
   122  O    7.997833
   123  C    6.002331
   124  H    1.009571
   125  H    1.006221
   126  H    0.990669
   127  H    0.999655
   128  H    1.000866
   129  H    1.013142
   130  H    0.999025
   131  H    1.002229
   132  H    0.988526
   133  H    1.006539
   134  H    0.999573
   135  H    1.003858
   136  H    1.015393
   137  H    1.014940
   138  H    1.020608
   139  H    1.006529
   140  H    1.012619
   141  H    1.007439
   142  H    1.000848
   143  H    0.998660
   144  H    0.995083
   145  H    1.010201
   146  H    1.001331
   147  H    1.005651
   148  H    0.990106
   149  H    0.994085
   150  H    1.001659
   151  H    0.995860
   152  H    0.982101
   153  H    0.982251
   154  H    0.988459
   155  H    0.992154
   156  H    0.992961
   157  H    0.996448
   158  H    0.998273
 Sum of Mulliken charges = 624.00000

 Dipole moment (field-independent basis, Debye):
    X=              7.5226    Y=             -0.3956    Z=              6.9151  Tot=             10.2257
 Quadrupole moment (field-independent basis, Debye-Ang):
   XX=            394.8410   YY=             -3.4273   ZZ=              1.4893
   XY=             -7.0279   XZ=            182.5821   YZ=              3.0890

 Normal termination of Gaussian 16 at Thu Oct 14 08:07:21 2021.
