 Gaussian 16, Revision A.03,
 Gaussian 16:  ES64L-G16RevA.03 25-Dec-2016

 --------------------------------------------------------
 #p PBE1PBE/Def2SVP td=(nstates=5) density=(transition=1)
 --------------------------------------------------------

 --------------------------------
 TDDFT excited states in gaussian
 --------------------------------
 Symbolic Z-matrix:
 Charge =  0 Multiplicity = 1

                         Standard orientation:
 ---------------------------------------------------------------------
 Center     Atomic      Atomic             Coordinates (Angstroms)
 Number     Number       Type             X           Y           Z
 ---------------------------------------------------------------------
      1         12           0       17.881803   -0.099323    0.072317
      2          6           0       14.389159   -0.174821   -0.529736
      3          6           0       17.953970    2.941155   -1.436957
      4          6           0       20.995688    0.311567    1.373959
      5          6           0       17.502779   -2.940974    2.020162
      6          7           0       16.223722    1.220394   -0.712337
      7          6           0       14.898390    0.987775   -0.968199
      8          6           0       14.273623    2.100210   -1.725235
      9          6           0       15.534907    2.913643   -2.282165
     10          6           0       16.629438    2.356637   -1.437443
     11          6           0       15.731857    2.702177   -3.774639
     12          6           0       13.328769    2.834432   -0.760979
     13          6           0       11.818644    3.020081   -1.211503
     14          1           0       11.153801    4.428887   -1.255700
     15          7           0       19.335738    1.359568   -0.018583
     16          6           0       19.184599    2.521106   -0.788651
     17          6           0       20.452349    3.186268   -0.824954
     18          6           0       21.376864    2.474102    0.011535
     19          6           0       20.596073    1.281851    0.437497
     20          6           0       20.653770    4.436209   -1.671991
     21          6           0       22.811454    2.814488    0.348205
     22          8           0       23.257039    3.809065   -0.294250
     23          6           0       23.734173    2.181298    1.427775
     24          7           0       19.122675   -1.171235    1.510811
     25          6           0       20.380807   -0.812585    1.849015
     26          6           0       21.021666   -1.752841    2.903971
     27          6           0       19.924511   -2.866360    3.022288
     28          6           0       18.731910   -2.248447    2.151207
     29          6           0       22.363409   -2.250214    2.396735
     30          6           0       19.463529   -3.168881    4.415394
     31          6           0       19.860002   -4.535512    4.904325
     32          7           0       16.407589   -1.417255    0.521357
     33          6           0       16.353223   -2.588335    1.287766
     34          6           0       15.172523   -3.266776    1.109615
     35          6           0       14.372537   -2.373826    0.367802
     36          6           0       15.141068   -1.241717    0.106808
     37          6           0       14.956461   -4.703256    1.536454
     38          6           0       13.054541   -2.237682   -0.307393
     39          8           0       12.155038   -3.016991   -0.371060
     40          6           0       13.069615   -0.746440   -0.815574
     41          6           0       12.432693   -0.742046   -2.188146
     42          8           0       11.290636   -0.350380   -2.428459
     43          8           0       13.354451   -1.201975   -3.159782
     44          6           0       12.828527   -1.098084   -4.520607
     45          1           0       18.037542    3.802123   -2.103823
     46          1           0       22.025367    0.350829    1.737096
     47          1           0       17.255217   -3.692505    2.771887
     48          1           0       13.686116    1.693332   -2.548367
     49          1           0       15.355042    3.974889   -2.112476
     50          1           0       15.509918    1.686068   -4.097877
     51          1           0       16.790239    2.834972   -4.001371
     52          1           0       15.199834    3.423359   -4.395041
     53          1           0       13.760051    3.819044   -0.580905
     54          1           0       13.325167    2.425359    0.249343
     55          1           0       11.321726    2.430903   -0.440326
     56          1           0       11.609416    2.436830   -2.107469
     57          1           0       19.876331    5.173969   -1.473436
     58          1           0       20.555786    4.115830   -2.709156
     59          1           0       21.559095    5.020341   -1.501213
     60          1           0       23.931285    1.185960    1.030870
     61          1           0       23.183014    2.128266    2.366735
     62          1           0       24.640686    2.762866    1.597543
     63          1           0       21.213356   -1.277300    3.865521
     64          1           0       20.230073   -3.749037    2.461080
     65          1           0       22.940631   -1.380298    2.082971
     66          1           0       22.181570   -2.902583    1.542055
     67          1           0       22.966062   -2.902012    3.028114
     68          1           0       18.379640   -3.155760    4.529935
     69          1           0       19.779134   -2.478552    5.197413
     70          1           0       20.389105   -4.411710    5.848414
     71          1           0       20.579291   -5.026598    4.248916
     72          1           0       19.029995   -5.237272    4.992978
     73          1           0       14.088210   -5.054166    0.977759
     74          1           0       14.762341   -4.792841    2.605016
     75          1           0       15.881612   -5.212570    1.267566
     76          1           0       12.305725   -0.289494   -0.185408
     77          1           0       13.642654   -0.990741   -5.237514
     78          1           0       12.279297   -0.168734   -4.664634
     79          1           0       12.170287   -1.924832   -4.789058
     80         12           0      -17.796479    0.263899    0.365026
     81          6           0      -14.728837   -0.512751   -1.060022
     82          6           0      -19.031197   -2.711636   -0.632865
     83          6           0      -20.755051    1.200246    1.620011
     84          6           0      -16.471761    3.391583    1.216314
     85          7           0      -16.887474   -1.409613   -0.711332
     86          6           0      -15.647117   -1.566965   -1.107574
     87          6           0      -15.526561   -3.028377   -1.742563
     88          6           0      -16.961054   -3.179571   -2.202811
     89          6           0      -17.722990   -2.408399   -1.078501
     90          6           0      -17.123879   -2.631500   -3.636972
     91          6           0      -14.874626   -4.039019   -0.703891
     92          6           0      -14.280677   -5.303758   -1.331609
     93          1           0      -14.564695   -5.597648   -2.794533
     94          7           0      -19.562685   -0.685550    0.634495
     95          6           0      -19.849837   -1.978738    0.203978
     96          6           0      -21.165641   -2.367219    0.794654
     97          6           0      -21.732182   -1.177859    1.423126
     98          6           0      -20.679662   -0.163399    1.150175
     99          6           0      -21.751491   -3.751628    0.648297
    100          6           0      -23.084373   -0.961094    2.247056
    101          8           0      -23.393453    0.105269    2.789479
    102          6           0      -24.003258   -2.159398    2.362497
    103          7           0      -18.528203    2.028144    1.161188
    104          6           0      -19.775704    2.185932    1.595454
    105          6           0      -20.075008    3.645336    2.057911
    106          6           0      -18.645427    4.200131    2.135626
    107          6           0      -17.790313    3.136238    1.522277
    108          6           0      -21.025052    4.441662    1.120376
    109          6           0      -18.138650    4.799376    3.522317
    110          6           0      -17.208683    3.960641    4.335903
    111          7           0      -16.060539    1.359547   -0.028893
    112          6           0      -15.635250    2.563607    0.421976
    113          6           0      -14.329880    2.898416   -0.023950
    114          6           0      -13.900805    1.678053   -0.634451
    115          6           0      -14.989905    0.838621   -0.578437
    116          6           0      -13.481856    4.141465    0.052865
    117          6           0      -12.837025    0.970352   -1.282475
    118          8           0      -11.707586    1.296561   -1.577841
    119          6           0      -13.245877   -0.527119   -1.456502
    120          6           0      -13.000978   -0.945384   -2.840049
    121          8           0      -13.565528   -0.426283   -3.790940
    122          8           0      -11.930414   -1.865142   -2.980463
    123          6           0      -11.566379   -2.226446   -4.359503
    124          1           0      -19.411601   -3.653828   -1.030096
    125          1           0      -21.743354    1.489330    1.981416
    126          1           0      -16.110005    4.393695    1.454369
    127          1           0      -14.814388   -3.013911   -2.566509
    128          1           0      -17.345315   -4.197909   -2.149852
    129          1           0      -17.338949   -3.537843   -4.204003
    130          1           0      -16.220828   -2.149755   -4.014138
    131          1           0      -18.030593   -2.027101   -3.623396
    132          1           0      -15.620934   -4.363095    0.021987
    133          1           0      -14.038071   -3.491077   -0.269630
    134          1           0      -14.626146   -6.141293   -0.726347
    135          1           0      -13.201895   -5.247661   -1.188141
    136          1           0      -20.972177   -4.514375    0.631244
    137          1           0      -22.401180   -3.928347   -0.208280
    138          1           0      -22.333092   -3.973387    1.542970
    139          1           0      -24.126117   -2.483528    1.329353
    140          1           0      -25.001398   -1.932249    2.735836
    141          1           0      -23.562082   -2.900129    3.029620
    142          1           0      -20.548946    3.661745    3.039225
    143          1           0      -18.590610    4.961372    1.358276
    144          1           0      -20.578188    5.433128    1.042905
    145          1           0      -22.068308    4.517778    1.422903
    146          1           0      -21.068030    3.914730    0.167135
    147          1           0      -19.008110    5.126875    4.092420
    148          1           0      -17.526060    5.678239    3.322531
    149          1           0      -16.238010    4.457078    4.333764
    150          1           0      -16.919377    3.002829    3.901714
    151          1           0      -17.495840    3.849814    5.381599
    152          1           0      -14.020029    4.986080    0.484537
    153          1           0      -13.049490    4.335483   -0.929154
    154          1           0      -12.639939    4.113921    0.744950
    155          1           0      -12.679403   -1.181028   -0.793999
    156          1           0      -10.867138   -3.057426   -4.449099
    157          1           0      -11.121403   -1.308158   -4.743670
    158          1           0      -12.513276   -2.386696   -4.873727
 ---------------------------------------------------------------------

 SCF Done:  E(RPBE1PBE) =  -4067.38472587     A.U. after   16 cycles

 Excitation energies and oscillator strengths:

 Excited State   1:      Singlet-A      1.8485 eV  670.73 nm  f=0.3545  <S**2>=0.000
     309 -> 315        0.16635
     311 -> 313        0.69413
     311 <- 313       -0.11255
 This state for optimization and/or second-order correction.
 Total Energy, E(TD-HF/TD-DFT) =  -4067.31679452
 Copying the excited state density for this state as the 1-particle RhoCI density.

 Excited State   2:      Singlet-A      1.8588 eV  667.00 nm  f=0.0000  <S**2>=0.000
     312 -> 313        0.70710

 Excited State   3:      Singlet-A      1.8722 eV  662.23 nm  f=0.3704  <S**2>=0.000
     310 -> 316        0.17561
     312 -> 314        0.69302
     312 <- 314       -0.10656

 Excited State   4:      Singlet-A      2.0755 eV  597.36 nm  f=0.0000  <S**2>=0.000
     311 -> 314        0.70710

 Excited State   5:      Singlet-A      2.2174 eV  559.14 nm  f=0.1427  <S**2>=0.000
     310 -> 314        0.66464
     312 -> 316       -0.23649

 The electronic state is 1-A.
 Alpha  occ. eigenvalues --  -46.92387 -46.91137 -19.26252 -19.24569 -19.21225
 Alpha  occ. eigenvalues --  -19.20452 -19.20068 -19.19675 -19.18498 -19.18292
 Alpha  occ. eigenvalues --  -14.41899 -14.41659 -14.41342 -14.41056 -14.39680
 Alpha  occ. eigenvalues --  -14.39598 -14.38702 -14.38386 -10.37381 -10.35868
 Alpha  occ. eigenvalues --  -10.34157 -10.32812 -10.32646 -10.31382 -10.29656
 Alpha  occ. eigenvalues --  -10.28886 -10.28863 -10.28836 -10.28510 -10.28496
 Alpha  occ. eigenvalues --  -10.28359 -10.28288 -10.28274 -10.28259 -10.28257
 Alpha  occ. eigenvalues --  -10.28253 -10.28114 -10.27774 -10.27613 -10.26808
 Alpha  occ. eigenvalues --  -10.26764 -10.26625 -10.26439 -10.26296 -10.26165
 Alpha  occ. eigenvalues --  -10.26158 -10.26097 -10.26081 -10.25995 -10.25994
 Alpha  occ. eigenvalues --  -10.25989 -10.25933 -10.25875 -10.25797 -10.25713
 Alpha  occ. eigenvalues --  -10.25409 -10.25338 -10.25330 -10.25273 -10.25272
 Alpha  occ. eigenvalues --  -10.25207 -10.25013 -10.25006 -10.24741 -10.24660
 Alpha  occ. eigenvalues --  -10.24645 -10.24624 -10.24587 -10.24584 -10.24324
 Alpha  occ. eigenvalues --  -10.24245 -10.24025 -10.23994 -10.23940 -10.23744
 Alpha  occ. eigenvalues --  -10.23715 -10.23547 -10.23385 -10.23239 -10.23188
 Alpha  occ. eigenvalues --  -10.23038 -10.22873 -10.22780 -10.22602 -10.22146
 Alpha  occ. eigenvalues --  -10.21973  -3.14529  -3.13476  -1.87350  -1.86909
 Alpha  occ. eigenvalues --   -1.86758  -1.86330  -1.85815  -1.85748  -1.10307
 Alpha  occ. eigenvalues --   -1.09210  -1.06824  -1.04978  -1.04473  -1.02764
 Alpha  occ. eigenvalues --   -1.02291  -1.01555  -1.00333  -0.99856  -0.99394
 Alpha  occ. eigenvalues --   -0.98924  -0.98751  -0.97968  -0.97674  -0.97380
 Alpha  occ. eigenvalues --   -0.87666  -0.86557  -0.84180  -0.83612  -0.83509
 Alpha  occ. eigenvalues --   -0.83333  -0.82766  -0.82476  -0.82164  -0.81540
 Alpha  occ. eigenvalues --   -0.81391  -0.81240  -0.80708  -0.80214  -0.79079
 Alpha  occ. eigenvalues --   -0.78592  -0.78477  -0.77982  -0.76971  -0.76909
 Alpha  occ. eigenvalues --   -0.76550  -0.76076  -0.75293  -0.74992  -0.74803
 Alpha  occ. eigenvalues --   -0.74403  -0.72707  -0.72121  -0.71726  -0.71567
 Alpha  occ. eigenvalues --   -0.71157  -0.70972  -0.70774  -0.70091  -0.69845
 Alpha  occ. eigenvalues --   -0.69387  -0.67965  -0.67299  -0.66648  -0.65582
 Alpha  occ. eigenvalues --   -0.63756  -0.63654  -0.63357  -0.63108  -0.62320
 Alpha  occ. eigenvalues --   -0.62091  -0.61656  -0.60845  -0.60675  -0.60127
 Alpha  occ. eigenvalues --   -0.59918  -0.59545  -0.59476  -0.59127  -0.58732
 Alpha  occ. eigenvalues --   -0.58370  -0.57654  -0.55846  -0.55055  -0.55020
 Alpha  occ. eigenvalues --   -0.54601  -0.54188  -0.54169  -0.53701  -0.53621
 Alpha  occ. eigenvalues --   -0.52694  -0.52653  -0.52507  -0.52054  -0.51355
 Alpha  occ. eigenvalues --   -0.50810  -0.50356  -0.50312  -0.50196  -0.50186
 Alpha  occ. eigenvalues --   -0.49967  -0.49404  -0.49283  -0.48954  -0.48424
 Alpha  occ. eigenvalues --   -0.48379  -0.48206  -0.48164  -0.47785  -0.47683
 Alpha  occ. eigenvalues --   -0.47423  -0.47367  -0.47094  -0.46883  -0.46812
 Alpha  occ. eigenvalues --   -0.46595  -0.46496  -0.46395  -0.46180  -0.45798
 Alpha  occ. eigenvalues --   -0.45706  -0.45494  -0.45155  -0.45130  -0.45049
 Alpha  occ. eigenvalues --   -0.45003  -0.44812  -0.44648  -0.44471  -0.44348
 Alpha  occ. eigenvalues --   -0.44251  -0.44055  -0.43826  -0.43567  -0.43558
 Alpha  occ. eigenvalues --   -0.43436  -0.43271  -0.43188  -0.43059  -0.42978
 Alpha  occ. eigenvalues --   -0.42620  -0.42401  -0.42295  -0.41962  -0.41864
 Alpha  occ. eigenvalues --   -0.41624  -0.41608  -0.41304  -0.41216  -0.41146
 Alpha  occ. eigenvalues --   -0.41091  -0.40795  -0.40709  -0.40627  -0.40475
 Alpha  occ. eigenvalues --   -0.40452  -0.40434  -0.40179  -0.40055  -0.39920
 Alpha  occ. eigenvalues --   -0.39649  -0.39626  -0.39393  -0.39092  -0.38921
 Alpha  occ. eigenvalues --   -0.38788  -0.38655  -0.38503  -0.38456  -0.38299
 Alpha  occ. eigenvalues --   -0.38115  -0.38030  -0.37892  -0.37740  -0.37542
 Alpha  occ. eigenvalues --   -0.37364  -0.37297  -0.37243  -0.37180  -0.36929
 Alpha  occ. eigenvalues --   -0.36882  -0.36621  -0.36537  -0.36380  -0.36224
 Alpha  occ. eigenvalues --   -0.36188  -0.35980  -0.35870  -0.35761  -0.35465
 Alpha  occ. eigenvalues --   -0.35030  -0.34937  -0.34833  -0.34068  -0.34020
 Alpha  occ. eigenvalues --   -0.33736  -0.33174  -0.33127  -0.33005  -0.32738
 Alpha  occ. eigenvalues --   -0.32515  -0.32363  -0.32164  -0.31656  -0.31421
 Alpha  occ. eigenvalues --   -0.31181  -0.30509  -0.30267  -0.29828  -0.29650
 Alpha  occ. eigenvalues --   -0.28984  -0.28827  -0.28523  -0.27395  -0.26810
 Alpha  occ. eigenvalues --   -0.26581  -0.26131  -0.25956  -0.25646  -0.25461
 Alpha  occ. eigenvalues --   -0.25422  -0.25200  -0.25077  -0.21352  -0.20793
 Alpha  occ. eigenvalues --   -0.19250  -0.18928
 Alpha virt. eigenvalues --   -0.11718  -0.11249  -0.05343  -0.04758  -0.04154
 Alpha virt. eigenvalues --   -0.03956  -0.02086  -0.01981  -0.00928  -0.00435
 Alpha virt. eigenvalues --    0.00181   0.00753   0.00921   0.01433   0.01452

 Mulliken charges:
               1
     1  Mg  12.001270
     2  C    5.977182
     3  C    5.993014
     4  C    6.033298
     5  C    6.018965
     6  N    6.973287
     7  C    6.026263
     8  C    5.990617
     9  C    6.015138
    10  C    5.976689
    11  C    6.004143
    12  C    5.995817
    13  C    6.000328
    14  H    1.004852
    15  N    7.006098
    16  C    5.966985
    17  C    5.979589
    18  C    5.992504
    19  C    5.959959
    20  C    6.002509
    21  C    5.988309
    22  O    7.981377
    23  C    5.997652
    24  N    7.017370
    25  C    5.963534
    26  C    6.009819
    27  C    5.994048
    28  C    6.018729
    29  C    6.002977
    30  C    5.994876
    31  C    5.998216
    32  N    7.000328
    33  C    6.022345
    34  C    6.027752
    35  C    6.003269
    36  C    6.033016
    37  C    6.000757
    38  C    6.018999
    39  O    8.024684
    40  C    6.002338
    41  C    6.003488
    42  O    8.006068
    43  O    7.998337
    44  C    5.997275
    45  H    0.985670
    46  H    0.998508
    47  H    1.014531
    48  H    0.997991
    49  H    0.995151
    50  H    0.986060
    51  H    1.004415
    52  H    0.990043
    53  H    1.009643
    54  H    0.996412
    55  H    0.995452
    56  H    0.998431
    57  H    0.984241
    58  H    0.983391
    59  H    0.986469
    60  H    0.990632
    61  H    0.990591
    62  H    0.990282
    63  H    1.000042
    64  H    1.001778
    65  H    1.008179
    66  H    0.995726
    67  H    0.994451
    68  H    0.995472
    69  H    1.010035
    70  H    1.006711
    71  H    1.004907
    72  H    0.998164
    73  H    1.013321
    74  H    1.018496
    75  H    1.014373
    76  H    1.004701
    77  H    1.006325
    78  H    1.005238
    79  H    1.000094
    80  Mg  11.999950
    81  C    6.000363
    82  C    5.999765
    83  C    5.999737
    84  C    6.000123
    85  N    7.000190
    86  C    5.999351
    87  C    6.000065
    88  C    5.999942
    89  C    6.000492
    90  C    6.000068
    91  C    6.000027
    92  C    6.000034
    93  H    0.999963
    94  N    6.999927
    95  C    6.000711
    96  C    6.000316
    97  C    6.000357
    98  C    6.000456
    99  C    5.999916
   100  C    6.000283
   101  O    8.000569
   102  C    5.999911
   103  N    6.999964
   104  C    6.000567
   105  C    5.999821
   106  C    6.000126
   107  C    5.999487
   108  C    5.999968
   109  C    6.000000
   110  C    6.000041
   111  N    6.999916
   112  C    5.999499
   113  C    5.999489
   114  C    5.999922
   115  C    5.999632
   116  C    6.000075
   117  C    5.999700
   118  O    7.999362
   119  C    5.999930
   120  C    5.999926
   121  O    7.999979
   122  O    7.999877
   123  C    6.000015
   124  H    1.000190
   125  H    1.000145
   126  H    0.999852
   127  H    0.999993
   128  H    0.999953
   129  H    1.000038
   130  H    1.000217
   131  H    1.000007
   132  H    0.999814
   133  H    1.000068
   134  H    0.999896
   135  H    0.999918
   136  H    1.000248
   137  H    1.000409
   138  H    1.000269
   139  H    1.000098
   140  H    1.000314
   141  H    1.000136
   142  H    1.000012
   143  H    1.000024
   144  H    1.000246
   145  H    1.000013
   146  H    0.999989
   147  H    0.999888
   148  H    1.000056
   149  H    1.000028
   150  H    0.999968
   151  H    0.999861
   152  H    0.999760
   153  H    0.999732
   154  H    0.999565
   155  H    0.999737
   156  H    0.999765
   157  H    1.000004
   158  H    0.999975
 Sum of Mulliken charges = 624.00000

 Dipole moment (field-independent basis, Debye):
    X=             -6.2010    Y=             -7.5394    Z=              2.4178  Tot=             10.0569
 Quadrupole moment (field-independent basis, Debye-Ang):
   XX=           -208.2555   YY=              0.9447   ZZ=              1.8034
   XY=           -132.3213   XZ=             42.0150   YZ=             -1.4628

 Normal termination of Gaussian 16 at Fri Oct 15 00:45:08 2021.
