 Gaussian 16, Revision A.03,
 Gaussian 16:  ES64L-G16RevA.03 25-Dec-2016

 --------------------------------------------------------
 #p PBE1PBE/Def2SVP td=(nstates=5) density=(transition=1)
 --------------------------------------------------------

 --------------------------------
 TDDFT excited states in gaussian
 --------------------------------
 Symbolic Z-matrix:
 Charge =  0 Multiplicity = 1

                         Standard orientation:
 ---------------------------------------------------------------------
 Center     Atomic      Atomic             Coordinates (Angstroms)
 Number     Number       Type             X           Y           Z
 ---------------------------------------------------------------------
      1         12           0      -27.990313   -0.073656   -0.314827
      2          6           0      -24.765402    0.807928    0.577524
      3          6           0      -27.415072   -3.272552    0.868356
      4          6           0      -31.314102   -0.633287   -0.499426
      5          6           0      -28.468879    3.320778   -1.143343
      6          7           0      -26.357899   -1.030982    0.883937
      7          6           0      -25.127144   -0.512683    0.921707
      8          6           0      -24.167816   -1.469642    1.694756
      9          6           0      -24.936777   -2.865156    1.534491
     10          6           0      -26.336820   -2.394183    0.983389
     11          6           0      -24.151500   -3.892060    0.683423
     12          6           0      -24.092867   -1.076926    3.152690
     13          6           0      -22.711157   -1.157231    3.782799
     14          1           0      -22.476074   -1.633310    5.265774
     15          7           0      -29.156439   -1.837878   -0.020845
     16          6           0      -28.787060   -3.009677    0.524322
     17          6           0      -29.926252   -3.868840    0.508771
     18          6           0      -31.046074   -3.183701   -0.052893
     19          6           0      -30.545668   -1.819192   -0.260627
     20          6           0      -29.817856   -5.310829    0.842289
     21          6           0      -32.417101   -3.754143   -0.138317
     22          8           0      -32.621374   -4.911214    0.189373
     23          6           0      -33.584140   -2.948237   -0.696097
     24          7           0      -29.700783    1.221468   -0.865684
     25          6           0      -30.958293    0.704998   -0.775224
     26          6           0      -31.982291    1.787461   -0.886163
     27          6           0      -31.039735    3.066688   -1.087481
     28          6           0      -29.621412    2.553137   -1.107605
     29          6           0      -33.044672    1.562422   -1.978318
     30          6           0      -31.246765    4.256099   -0.048548
     31          6           0      -31.475285    5.702994   -0.545429
     32          7           0      -26.896010    1.682227   -0.325337
     33          6           0      -27.194783    2.939242   -0.748299
     34          6           0      -26.023818    3.680063   -0.914309
     35          6           0      -24.987174    2.895235   -0.428682
     36          6           0      -25.575075    1.725824   -0.016094
     37          6           0      -25.974897    5.153939   -1.413392
     38          6           0      -23.620850    2.811035   -0.201682
     39          8           0      -22.778932    3.693950   -0.323291
     40          6           0      -23.323170    1.419640    0.539604
     41          6           0      -22.513131    0.561605   -0.247495
     42          8           0      -22.786472   -0.127909   -1.232864
     43          8           0      -21.244298    0.604548    0.322134
     44          6           0      -20.149420   -0.166881   -0.240886
     45          1           0      -27.196435   -4.318479    1.092472
     46          1           0      -32.400829   -0.663528   -0.606610
     47          1           0      -28.709195    4.321850   -1.507722
     48          1           0      -23.185513   -1.405280    1.227563
     49          1           0      -25.225320   -3.324210    2.479510
     50          1           0      -23.253874   -3.454148    0.247286
     51          1           0      -24.796522   -4.278880   -0.106155
     52          1           0      -23.914550   -4.737743    1.328594
     53          1           0      -24.773718   -1.572264    3.845218
     54          1           0      -24.513569   -0.071839    3.182357
     55          1           0      -22.243738   -0.185860    3.622271
     56          1           0      -22.216266   -1.857717    3.110137
     57          1           0      -29.745219   -5.777303   -0.139993
     58          1           0      -30.685487   -5.658581    1.403317
     59          1           0      -28.938217   -5.548476    1.440602
     60          1           0      -33.907044   -2.298422    0.117416
     61          1           0      -34.399920   -3.660593   -0.816753
     62          1           0      -33.287758   -2.410216   -1.596444
     63          1           0      -32.414192    1.738987    0.112921
     64          1           0      -31.264857    3.587530   -2.018168
     65          1           0      -33.960321    1.293298   -1.450727
     66          1           0      -32.755440    0.799938   -2.702288
     67          1           0      -33.239355    2.504118   -2.490975
     68          1           0      -30.365868    4.305377    0.591362
     69          1           0      -32.121010    4.115495    0.587464
     70          1           0      -30.440386    6.042251   -0.588115
     71          1           0      -32.003361    6.283955    0.209583
     72          1           0      -31.802207    5.886189   -1.568897
     73          1           0      -26.331211    5.800164   -0.612203
     74          1           0      -26.630815    5.400108   -2.248647
     75          1           0      -24.954848    5.446255   -1.664231
     76          1           0      -22.893196    1.686718    1.505072
     77          1           0      -19.235113    0.393842   -0.049097
     78          1           0      -20.278247   -0.465691   -1.281523
     79          1           0      -20.036153   -1.064458    0.367248
     80         12           0       27.923620    0.493340   -0.314602
     81          6           0       25.732523   -2.261789   -0.272217
     82          6           0       25.163748    2.458746    0.469043
     83          6           0       29.949091    3.102172    0.113218
     84          6           0       30.568218   -1.749277   -0.172611
     85          7           0       25.723277    0.043568    0.210324
     86          6           0       24.992128   -1.117073    0.048383
     87          6           0       23.489217   -0.937169    0.004497
     88          6           0       23.308389    0.584470    0.219326
     89          6           0       24.784053    1.091263    0.325657
     90          6           0       22.491198    1.312508   -0.923791
     91          6           0       22.641779   -1.766449    1.069525
     92          6           0       23.287418   -2.059871    2.433584
     93          1           0       22.817946   -1.232233    3.666543
     94          7           0       27.600696    2.458307    0.197573
     95          6           0       26.407704    3.085434    0.419407
     96          6           0       26.626861    4.526238    0.609230
     97          6           0       28.035575    4.738848    0.504196
     98          6           0       28.595209    3.372687    0.267606
     99          6           0       25.502066    5.527568    0.843629
    100          6           0       28.614682    6.179770    0.762071
    101          8           0       27.831097    7.063360    1.080370
    102          6           0       30.179058    6.436025    0.697986
    103          7           0       29.917658    0.626967    0.054637
    104          6           0       30.586837    1.848616    0.039961
    105          6           0       32.202167    1.620398    0.072455
    106          6           0       32.266906   -0.000759    0.134792
    107          6           0       30.829023   -0.382739   -0.010519
    108          6           0       32.920483    2.237217   -1.163713
    109          6           0       32.902006   -0.604149    1.460240
    110          6           0       34.032118   -1.638286    1.340184
    111          7           0       28.168370   -1.603596   -0.359999
    112          6           0       29.281531   -2.401069   -0.285437
    113          6           0       28.848416   -3.814228   -0.303966
    114          6           0       27.433180   -3.768088   -0.419736
    115          6           0       27.094097   -2.386353   -0.397969
    116          6           0       29.710314   -5.041989   -0.201187
    117          6           0       26.240106   -4.635123   -0.445474
    118          8           0       26.092575   -5.862586   -0.537284
    119          6           0       25.090769   -3.643991   -0.552634
    120          6           0       24.377963   -3.751613   -1.780856
    121          8           0       24.812812   -3.251588   -2.850523
    122          8           0       23.157622   -4.435412   -1.611932
    123          6           0       22.233338   -4.488507   -2.740052
    124          1           0       24.319027    3.146222    0.544058
    125          1           0       30.632646    3.952954    0.090056
    126          1           0       31.455688   -2.384726   -0.185476
    127          1           0       23.242663   -1.266280   -1.004247
    128          1           0       22.917082    0.690590    1.230469
    129          1           0       21.527470    1.635903   -0.530512
    130          1           0       22.365912    0.575022   -1.717036
    131          1           0       23.016423    2.196053   -1.288061
    132          1           0       22.530254   -2.719381    0.550687
    133          1           0       21.660026   -1.305365    1.179928
    134          1           0       24.371660   -1.959155    2.374587
    135          1           0       23.146988   -3.117584    2.652402
    136          1           0       25.395042    5.861246    1.875789
    137          1           0       24.582585    5.205880    0.354416
    138          1           0       25.666404    6.435010    0.262823
    139          1           0       30.536018    5.972272   -0.221899
    140          1           0       30.620058    5.972580    1.580103
    141          1           0       30.466208    7.472471    0.875258
    142          1           0       32.566270    2.199343    0.920667
    143          1           0       32.797676   -0.329959   -0.758810
    144          1           0       33.029342    1.445875   -1.905059
    145          1           0       33.857137    2.731690   -0.906011
    146          1           0       32.383360    3.066919   -1.622976
    147          1           0       32.073136   -0.999511    2.048282
    148          1           0       33.310374    0.292186    1.927042
    149          1           0       34.147586   -2.226612    2.250896
    150          1           0       34.903193   -1.007002    1.166108
    151          1           0       33.735812   -2.257480    0.493223
    152          1           0       30.590300   -4.700538    0.343248
    153          1           0       29.991480   -5.213261   -1.240263
    154          1           0       29.209526   -5.932954    0.178761
    155          1           0       24.474872   -3.939906    0.296318
    156          1           0       22.554917   -5.035073   -3.626631
    157          1           0       21.970267   -3.477627   -3.052905
    158          1           0       21.280152   -4.832448   -2.338168
 ---------------------------------------------------------------------

 SCF Done:  E(RPBE1PBE) =  -4067.34722295     A.U. after   15 cycles

 Excitation energies and oscillator strengths:

 Excited State   1:      Singlet-A      1.7942 eV  691.03 nm  f=0.0000  <S**2>=0.000
     312 -> 313        0.70711
 This state for optimization and/or second-order correction.
 Total Energy, E(TD-HF/TD-DFT) =  -4067.28128743
 Copying the excited state density for this state as the 1-particle RhoCI density.

 Excited State   2:      Singlet-A      1.8605 eV  666.39 nm  f=0.3790  <S**2>=0.000
     309 -> 315       -0.17786
     311 -> 313        0.69223
     311 <- 313       -0.11024

 Excited State   3:      Singlet-A      1.8697 eV  663.14 nm  f=0.3758  <S**2>=0.000
     310 -> 316        0.17513
     312 -> 314        0.69201
     312 <- 314       -0.10390

 Excited State   4:      Singlet-A      2.2365 eV  554.38 nm  f=0.0963  <S**2>=0.000
     309 -> 313        0.64820
     311 -> 315        0.26581

 Excited State   5:      Singlet-A      2.2408 eV  553.30 nm  f=0.0000  <S**2>=0.000
     311 -> 314        0.70711

 The electronic state is 1-A.
 Alpha  occ. eigenvalues --  -46.93070 -46.92349 -19.26410 -19.25271 -19.20430
 Alpha  occ. eigenvalues --  -19.20347 -19.19793 -19.19520 -19.19466 -19.18609
 Alpha  occ. eigenvalues --  -14.42057 -14.41885 -14.41721 -14.41509 -14.39526
 Alpha  occ. eigenvalues --  -14.39474 -14.39015 -14.38885 -10.36970 -10.36524
 Alpha  occ. eigenvalues --  -10.33641 -10.32534 -10.32366 -10.31791 -10.29556
 Alpha  occ. eigenvalues --  -10.29309 -10.29279 -10.29155 -10.29077 -10.29050
 Alpha  occ. eigenvalues --  -10.28876 -10.28782 -10.28632 -10.28456 -10.28437
 Alpha  occ. eigenvalues --  -10.28436 -10.27964 -10.27490 -10.27445 -10.27150
 Alpha  occ. eigenvalues --  -10.27124 -10.26491 -10.26337 -10.26317 -10.26241
 Alpha  occ. eigenvalues --  -10.26213 -10.26210 -10.26154 -10.26127 -10.26116
 Alpha  occ. eigenvalues --  -10.26095 -10.26009 -10.25993 -10.25963 -10.25931
 Alpha  occ. eigenvalues --  -10.25904 -10.25668 -10.25482 -10.25478 -10.25465
 Alpha  occ. eigenvalues --  -10.25374 -10.25172 -10.25079 -10.25017 -10.24654
 Alpha  occ. eigenvalues --  -10.24630 -10.24479 -10.24468 -10.24427 -10.24413
 Alpha  occ. eigenvalues --  -10.24377 -10.24364 -10.24263 -10.24254 -10.24061
 Alpha  occ. eigenvalues --  -10.23960 -10.23644 -10.23532 -10.23389 -10.23362
 Alpha  occ. eigenvalues --  -10.23358 -10.23316 -10.23023 -10.22839 -10.22541
 Alpha  occ. eigenvalues --  -10.22400  -3.14980  -3.14550  -1.87832  -1.87348
 Alpha  occ. eigenvalues --   -1.87347  -1.87194  -1.86941  -1.86776  -1.10439
 Alpha  occ. eigenvalues --   -1.09676  -1.05112  -1.04799  -1.04759  -1.03815
 Alpha  occ. eigenvalues --   -1.02272  -1.01773  -1.00202  -0.98858  -0.98716
 Alpha  occ. eigenvalues --   -0.98489  -0.98178  -0.97317  -0.97220  -0.96488
 Alpha  occ. eigenvalues --   -0.88284  -0.87522  -0.83818  -0.83485  -0.83394
 Alpha  occ. eigenvalues --   -0.83091  -0.82698  -0.82337  -0.82252  -0.81248
 Alpha  occ. eigenvalues --   -0.81129  -0.80563  -0.80450  -0.79810  -0.79725
 Alpha  occ. eigenvalues --   -0.78910  -0.78825  -0.78172  -0.77337  -0.77057
 Alpha  occ. eigenvalues --   -0.76481  -0.75860  -0.75836  -0.75234  -0.75097
 Alpha  occ. eigenvalues --   -0.74422  -0.72531  -0.72522  -0.71939  -0.71504
 Alpha  occ. eigenvalues --   -0.71007  -0.70879  -0.70837  -0.70794  -0.69545
 Alpha  occ. eigenvalues --   -0.69272  -0.67943  -0.66881  -0.66812  -0.66189
 Alpha  occ. eigenvalues --   -0.64335  -0.63671  -0.63647  -0.63338  -0.62836
 Alpha  occ. eigenvalues --   -0.62555  -0.61779  -0.61235  -0.60564  -0.60337
 Alpha  occ. eigenvalues --   -0.60201  -0.60068  -0.59680  -0.59432  -0.59110
 Alpha  occ. eigenvalues --   -0.58738  -0.57246  -0.57033  -0.55063  -0.54786
 Alpha  occ. eigenvalues --   -0.54519  -0.54138  -0.53714  -0.53614  -0.53517
 Alpha  occ. eigenvalues --   -0.53224  -0.52834  -0.52627  -0.52345  -0.51774
 Alpha  occ. eigenvalues --   -0.50950  -0.50665  -0.50665  -0.50103  -0.50072
 Alpha  occ. eigenvalues --   -0.49501  -0.49376  -0.48982  -0.48927  -0.48796
 Alpha  occ. eigenvalues --   -0.48391  -0.48238  -0.47998  -0.47607  -0.47180
 Alpha  occ. eigenvalues --   -0.47174  -0.46950  -0.46913  -0.46729  -0.46675
 Alpha  occ. eigenvalues --   -0.46525  -0.46361  -0.46165  -0.46111  -0.45859
 Alpha  occ. eigenvalues --   -0.45802  -0.45478  -0.45178  -0.45015  -0.44943
 Alpha  occ. eigenvalues --   -0.44731  -0.44555  -0.44546  -0.44255  -0.44086
 Alpha  occ. eigenvalues --   -0.43947  -0.43926  -0.43841  -0.43719  -0.43680
 Alpha  occ. eigenvalues --   -0.43544  -0.43223  -0.43044  -0.42956  -0.42930
 Alpha  occ. eigenvalues --   -0.42843  -0.42213  -0.42099  -0.41789  -0.41606
 Alpha  occ. eigenvalues --   -0.41523  -0.41427  -0.41352  -0.41340  -0.41137
 Alpha  occ. eigenvalues --   -0.40987  -0.40941  -0.40842  -0.40689  -0.40562
 Alpha  occ. eigenvalues --   -0.40536  -0.40239  -0.40098  -0.40082  -0.39800
 Alpha  occ. eigenvalues --   -0.39757  -0.39533  -0.39499  -0.39438  -0.39308
 Alpha  occ. eigenvalues --   -0.39299  -0.38931  -0.38709  -0.38702  -0.38460
 Alpha  occ. eigenvalues --   -0.38273  -0.38039  -0.37978  -0.37815  -0.37796
 Alpha  occ. eigenvalues --   -0.37767  -0.37455  -0.37258  -0.37070  -0.37043
 Alpha  occ. eigenvalues --   -0.36903  -0.36888  -0.36806  -0.36686  -0.36507
 Alpha  occ. eigenvalues --   -0.36387  -0.35969  -0.35886  -0.35531  -0.35240
 Alpha  occ. eigenvalues --   -0.35214  -0.34792  -0.34657  -0.34655  -0.33857
 Alpha  occ. eigenvalues --   -0.33271  -0.33180  -0.32973  -0.32608  -0.32521
 Alpha  occ. eigenvalues --   -0.32429  -0.32252  -0.32087  -0.32059  -0.31604
 Alpha  occ. eigenvalues --   -0.31157  -0.30697  -0.29986  -0.29817  -0.29563
 Alpha  occ. eigenvalues --   -0.29072  -0.29049  -0.28860  -0.27447  -0.26900
 Alpha  occ. eigenvalues --   -0.26424  -0.26207  -0.25981  -0.25929  -0.25618
 Alpha  occ. eigenvalues --   -0.25505  -0.25327  -0.25097  -0.21513  -0.21040
 Alpha  occ. eigenvalues --   -0.19219  -0.18487
 Alpha virt. eigenvalues --   -0.11655  -0.10746  -0.05771  -0.05278  -0.04410
 Alpha virt. eigenvalues --   -0.03978  -0.02395  -0.02107  -0.01171  -0.01031
 Alpha virt. eigenvalues --   -0.00431  -0.00216   0.00475   0.00814   0.01105

 Mulliken charges:
               1
     1  Mg  12.000000
     2  C    6.000000
     3  C    6.000000
     4  C    6.000000
     5  C    6.000000
     6  N    7.000000
     7  C    6.000000
     8  C    6.000000
     9  C    6.000000
    10  C    6.000000
    11  C    6.000000
    12  C    6.000000
    13  C    6.000000
    14  H    1.000000
    15  N    7.000000
    16  C    6.000000
    17  C    6.000000
    18  C    6.000000
    19  C    6.000000
    20  C    6.000000
    21  C    6.000000
    22  O    8.000000
    23  C    6.000000
    24  N    7.000000
    25  C    6.000000
    26  C    6.000000
    27  C    6.000000
    28  C    6.000000
    29  C    6.000000
    30  C    6.000000
    31  C    6.000000
    32  N    7.000000
    33  C    6.000000
    34  C    6.000000
    35  C    6.000000
    36  C    6.000000
    37  C    6.000000
    38  C    6.000000
    39  O    8.000000
    40  C    6.000000
    41  C    6.000000
    42  O    8.000000
    43  O    8.000000
    44  C    6.000000
    45  H    1.000000
    46  H    1.000000
    47  H    1.000000
    48  H    1.000000
    49  H    1.000000
    50  H    1.000000
    51  H    1.000000
    52  H    1.000000
    53  H    1.000000
    54  H    1.000000
    55  H    1.000000
    56  H    1.000000
    57  H    1.000000
    58  H    1.000000
    59  H    1.000000
    60  H    1.000000
    61  H    1.000000
    62  H    1.000000
    63  H    1.000000
    64  H    1.000000
    65  H    1.000000
    66  H    1.000000
    67  H    1.000000
    68  H    1.000000
    69  H    1.000000
    70  H    1.000000
    71  H    1.000000
    72  H    1.000000
    73  H    1.000000
    74  H    1.000000
    75  H    1.000000
    76  H    1.000000
    77  H    1.000000
    78  H    1.000000
    79  H    1.000000
    80  Mg  12.000000
    81  C    6.000000
    82  C    6.000000
    83  C    6.000000
    84  C    6.000000
    85  N    7.000000
    86  C    6.000000
    87  C    6.000000
    88  C    6.000000
    89  C    6.000000
    90  C    6.000000
    91  C    6.000000
    92  C    6.000000
    93  H    1.000000
    94  N    7.000000
    95  C    6.000000
    96  C    6.000000
    97  C    6.000000
    98  C    6.000000
    99  C    6.000000
   100  C    6.000000
   101  O    8.000000
   102  C    6.000000
   103  N    7.000000
   104  C    6.000000
   105  C    6.000000
   106  C    6.000000
   107  C    6.000000
   108  C    6.000000
   109  C    6.000000
   110  C    6.000000
   111  N    7.000000
   112  C    6.000000
   113  C    6.000000
   114  C    6.000000
   115  C    6.000000
   116  C    6.000000
   117  C    6.000000
   118  O    8.000000
   119  C    6.000000
   120  C    6.000000
   121  O    8.000000
   122  O    8.000000
   123  C    6.000000
   124  H    1.000000
   125  H    1.000000
   126  H    1.000000
   127  H    1.000000
   128  H    1.000000
   129  H    1.000000
   130  H    1.000000
   131  H    1.000000
   132  H    1.000000
   133  H    1.000000
   134  H    1.000000
   135  H    1.000000
   136  H    1.000000
   137  H    1.000000
   138  H    1.000000
   139  H    1.000000
   140  H    1.000000
   141  H    1.000000
   142  H    1.000000
   143  H    1.000000
   144  H    1.000000
   145  H    1.000000
   146  H    1.000000
   147  H    1.000000
   148  H    1.000000
   149  H    1.000000
   150  H    1.000000
   151  H    1.000000
   152  H    1.000000
   153  H    1.000000
   154  H    1.000000
   155  H    1.000000
   156  H    1.000000
   157  H    1.000000
   158  H    1.000000
 Sum of Mulliken charges = 624.00000

 Dipole moment (field-independent basis, Debye):
    X=             -0.0000    Y=             -0.0000    Z=              0.0000  Tot=              0.0000
 Quadrupole moment (field-independent basis, Debye-Ang):
   XX=              0.0000   YY=              0.0000   ZZ=             -0.0000
   XY=              0.0000   XZ=             -0.0000   YZ=              0.0000

 Normal termination of Gaussian 16 at Thu Oct 14 10:56:54 2021.
