 Gaussian 16, Revision A.03,
 Gaussian 16:  ES64L-G16RevA.03 25-Dec-2016

 --------------------------------------------------------
 #p PBE1PBE/Def2SVP td=(nstates=5) density=(transition=1)
 --------------------------------------------------------

 --------------------------------
 TDDFT excited states in gaussian
 --------------------------------
 Symbolic Z-matrix:
 Charge =  0 Multiplicity = 1

                         Standard orientation:
 ---------------------------------------------------------------------
 Center     Atomic      Atomic             Coordinates (Angstroms)
 Number     Number       Type             X           Y           Z
 ---------------------------------------------------------------------
      1         12           0       12.305904   -0.123216    0.517839
      2          6           0        9.000825   -0.380275   -0.684052
      3          6           0       13.224534    1.184252   -2.524867
      4          6           0       15.492510    0.081567    1.559055
      5          6           0       11.442545   -1.974871    3.358468
      6          7           0       11.155828    0.430283   -1.257618
      7          6           0        9.879708    0.288154   -1.604182
      8          6           0        9.481059    0.814593   -2.998639
      9          6           0       10.970560    1.005966   -3.565187
     10          6           0       11.863445    0.814260   -2.363663
     11          6           0       11.321874    0.055026   -4.683500
     12          6           0        8.632611    2.203505   -2.973630
     13          6           0        7.729392    2.377832   -4.198070
     14          1           0        6.218763    2.475852   -3.863016
     15          7           0       14.127496    0.699400   -0.293972
     16          6           0       14.275267    1.152756   -1.628221
     17          6           0       15.564358    1.802360   -1.705609
     18          6           0       16.243203    1.520650   -0.523491
     19          6           0       15.294880    0.750118    0.340660
     20          6           0       16.114489    2.442320   -2.966263
     21          6           0       17.620771    1.912072   -0.039902
     22          8           0       17.967906    1.617106    1.066361
     23          6           0       18.553899    2.730452   -0.875404
     24          7           0       13.378820   -0.999391    2.100953
     25          6           0       14.684057   -0.705129    2.368324
     26          6           0       15.013444   -1.378613    3.729456
     27          6           0       13.696252   -1.485892    4.476733
     28          6           0       12.733742   -1.520269    3.266294
     29          6           0       15.567874   -2.780281    3.478904
     30          6           0       13.436545   -0.386616    5.439102
     31          6           0       13.666545    1.039405    5.003614
     32          7           0       10.593017   -0.991382    1.262847
     33          6           0       10.366004   -1.721671    2.414204
     34          6           0        8.943884   -2.094497    2.466055
     35          6           0        8.390210   -1.563340    1.288178
     36          6           0        9.397771   -0.925303    0.617575
     37          6           0        8.290103   -2.896011    3.507252
     38          6           0        7.169569   -1.297684    0.575183
     39          8           0        5.968429   -1.586016    0.852842
     40          6           0        7.558756   -0.472164   -0.740910
     41          6           0        7.130130   -1.315791   -1.913470
     42          8           0        7.384185   -2.480330   -2.002939
     43          8           0        6.448249   -0.623042   -2.950322
     44          6           0        6.315194   -1.374767   -4.235245
     45          1           0       13.546239    1.552353   -3.500726
     46          1           0       16.532810    0.037294    1.889200
     47          1           0       11.067774   -2.400049    4.292146
     48          1           0        8.845725    0.086686   -3.504762
     49          1           0       10.978875    2.033707   -3.930296
     50          1           0       11.169365    0.608902   -5.609676
     51          1           0       10.784509   -0.891394   -4.619636
     52          1           0       12.405210   -0.040865   -4.611500
     53          1           0        9.315383    3.053357   -2.948411
     54          1           0        8.048933    2.280012   -2.056037
     55          1           0        8.002299    1.505642   -4.792487
     56          1           0        8.031408    3.224642   -4.814052
     57          1           0       15.232889    2.621402   -3.580573
     58          1           0       16.677876    1.628353   -3.421610
     59          1           0       16.631204    3.381131   -2.765875
     60          1           0       18.042995    3.691873   -0.820253
     61          1           0       18.616965    2.423964   -1.919175
     62          1           0       19.545604    2.755443   -0.422443
     63          1           0       15.776690   -0.877378    4.323695
     64          1           0       13.583284   -2.373931    5.097720
     65          1           0       14.925588   -3.649654    3.619848
     66          1           0       16.438738   -2.903243    4.122698
     67          1           0       15.943623   -2.813456    2.455620
     68          1           0       13.966955   -0.535871    6.379872
     69          1           0       12.376295   -0.488983    5.669634
     70          1           0       12.676957    1.494910    4.957159
     71          1           0       14.156023    1.315196    4.069092
     72          1           0       14.197825    1.554284    5.803921
     73          1           0        8.645139   -3.922527    3.416676
     74          1           0        7.227262   -2.759267    3.308146
     75          1           0        8.580026   -2.566809    4.505991
     76          1           0        7.047649    0.483491   -0.622864
     77          1           0        5.517826   -2.114034   -4.159813
     78          1           0        7.234987   -1.878727   -4.535554
     79          1           0        5.991217   -0.792492   -5.097379
     80         12           0      -12.147913   -0.420124   -0.762103
     81          6           0      -11.938593    3.007963    0.176803
     82          6           0       -9.205741   -0.101445   -2.486870
     83          6           0      -11.827364   -3.904992   -0.762049
     84          6           0      -14.816634   -0.804502    1.491483
     85          7           0      -10.603543    1.328546   -0.856724
     86          6           0      -10.833545    2.631449   -0.625880
     87          6           0       -9.875330    3.465649   -1.456242
     88          6           0       -8.926995    2.467875   -2.279674
     89          6           0       -9.757821    1.129052   -1.939304
     90          6           0       -8.965714    2.863378   -3.772944
     91          6           0       -9.079200    4.414173   -0.574445
     92          6           0       -8.631924    3.875587    0.805286
     93          1           0       -7.123816    3.544326    0.973085
     94          7           0      -10.736040   -1.849185   -1.609601
     95          6           0       -9.590526   -1.448357   -2.262153
     96          6           0       -9.024388   -2.637693   -2.817077
     97          6           0       -9.686278   -3.804397   -2.274546
     98          6           0      -10.845220   -3.242211   -1.535912
     99          6           0       -7.748099   -2.631224   -3.626245
    100          6           0       -9.214655   -5.258653   -2.320406
    101          8           0       -8.148131   -5.536516   -2.834049
    102          6           0       -9.961456   -6.348501   -1.767320
    103          7           0      -13.102171   -2.117950    0.297963
    104          6           0      -12.885578   -3.390710    0.000692
    105          6           0      -13.749586   -4.352250    0.800350
    106          6           0      -14.446814   -3.321815    1.789129
    107          6           0      -14.179248   -2.007638    1.148786
    108          6           0      -14.795875   -5.182264   -0.092187
    109          6           0      -13.889177   -3.507730    3.274958
    110          6           0      -14.776706   -4.046241    4.361151
    111          7           0      -13.301533    0.803125    0.338912
    112          6           0      -14.443284    0.521460    1.116449
    113          6           0      -15.051800    1.767993    1.617348
    114          6           0      -14.101210    2.714301    1.234941
    115          6           0      -12.975580    2.117101    0.567035
    116          6           0      -16.448655    1.998220    2.290960
    117          6           0      -13.815841    4.150105    1.321036
    118          8           0      -14.436247    5.111987    1.803512
    119          6           0      -12.433553    4.412106    0.637045
    120          6           0      -11.666017    4.918359    1.809233
    121          8           0      -11.488321    4.316675    2.837238
    122          8           0      -11.311641    6.184580    1.609679
    123          6           0      -10.450380    6.879535    2.629089
    124          1           0       -8.457037    0.047596   -3.267501
    125          1           0      -11.890302   -4.994546   -0.730730
    126          1           0      -15.564450   -1.046119    2.250370
    127          1           0      -10.613056    4.008940   -2.046793
    128          1           0       -7.906606    2.448141   -1.895973
    129          1           0       -7.951217    3.112272   -4.083665
    130          1           0       -9.571752    3.742627   -3.992955
    131          1           0       -9.293795    1.971953   -4.306898
    132          1           0       -9.664686    5.314265   -0.386783
    133          1           0       -8.144761    4.695000   -1.061177
    134          1           0       -9.015063    2.904766    1.119325
    135          1           0       -8.931455    4.653122    1.508105
    136          1           0       -7.313846   -1.633239   -3.691088
    137          1           0       -7.965034   -3.101641   -4.585893
    138          1           0       -7.067748   -3.343477   -3.160743
    139          1           0      -10.095796   -6.322709   -0.685723
    140          1           0       -9.454579   -7.285280   -1.998094
    141          1           0      -10.935210   -6.236998   -2.245487
    142          1           0      -13.185126   -5.026240    1.444231
    143          1           0      -15.459267   -3.724048    1.828765
    144          1           0      -14.642853   -4.945589   -1.145527
    145          1           0      -15.793811   -4.839673    0.182074
    146          1           0      -14.803407   -6.262722    0.059584
    147          1           0      -13.632824   -2.547694    3.723117
    148          1           0      -12.998397   -4.134372    3.282112
    149          1           0      -15.172987   -3.280370    5.027910
    150          1           0      -14.054291   -4.670579    4.887937
    151          1           0      -15.506003   -4.786920    4.032679
    152          1           0      -16.380112    1.647215    3.320257
    153          1           0      -17.187011    1.478604    1.680060
    154          1           0      -16.629524    3.071547    2.345990
    155          1           0      -12.627516    5.124868   -0.165325
    156          1           0      -11.027669    7.308654    3.448365
    157          1           0       -9.873146    7.685104    2.173441
    158          1           0       -9.764538    6.109047    2.981279
 ---------------------------------------------------------------------

 SCF Done:  E(RPBE1PBE) =  -4067.33160365     A.U. after   16 cycles

 Excitation energies and oscillator strengths:

 Excited State   1:      Singlet-A      1.8247 eV  679.49 nm  f=0.3858  <S**2>=0.000
     310 -> 316       -0.17143
     311 -> 313        0.69264
     311 <- 313       -0.10887
 This state for optimization and/or second-order correction.
 Total Energy, E(TD-HF/TD-DFT) =  -4067.26454803
 Copying the excited state density for this state as the 1-particle RhoCI density.

 Excited State   2:      Singlet-A      1.8535 eV  668.91 nm  f=0.3227  <S**2>=0.000
     309 -> 315        0.19362
     312 -> 314        0.68537

 Excited State   3:      Singlet-A      1.8810 eV  659.14 nm  f=0.0000  <S**2>=0.000
     312 -> 313        0.70709

 Excited State   4:      Singlet-A      1.9655 eV  630.81 nm  f=0.0000  <S**2>=0.000
     311 -> 314        0.70710

 Excited State   5:      Singlet-A      2.1781 eV  569.22 nm  f=0.1121  <S**2>=0.000
     310 -> 313        0.65707
     311 -> 316        0.25120

 The electronic state is 1-A.
 Alpha  occ. eigenvalues --  -46.93458 -46.92000 -19.25591 -19.25133 -19.20208
 Alpha  occ. eigenvalues --  -19.19018 -19.19017 -19.18959 -19.18688 -19.18110
 Alpha  occ. eigenvalues --  -14.42687 -14.41800 -14.41336 -14.41038 -14.39722
 Alpha  occ. eigenvalues --  -14.39213 -14.39065 -14.38858 -10.36417 -10.35618
 Alpha  occ. eigenvalues --  -10.32074 -10.32071 -10.32038 -10.31262 -10.29645
 Alpha  occ. eigenvalues --  -10.29558 -10.29313 -10.29015 -10.29002 -10.28894
 Alpha  occ. eigenvalues --  -10.28792 -10.28674 -10.28482 -10.28423 -10.28381
 Alpha  occ. eigenvalues --  -10.28237 -10.28232 -10.27918 -10.27587 -10.27465
 Alpha  occ. eigenvalues --  -10.27344 -10.26695 -10.26651 -10.26589 -10.26453
 Alpha  occ. eigenvalues --  -10.26411 -10.26348 -10.26303 -10.26089 -10.25923
 Alpha  occ. eigenvalues --  -10.25919 -10.25899 -10.25800 -10.25738 -10.25629
 Alpha  occ. eigenvalues --  -10.25548 -10.25547 -10.25532 -10.25437 -10.25380
 Alpha  occ. eigenvalues --  -10.25214 -10.24965 -10.24885 -10.24873 -10.24854
 Alpha  occ. eigenvalues --  -10.24590 -10.24553 -10.24493 -10.24436 -10.24334
 Alpha  occ. eigenvalues --  -10.24204 -10.24034 -10.23971 -10.23755 -10.23649
 Alpha  occ. eigenvalues --  -10.23537 -10.23438 -10.23323 -10.23047 -10.22857
 Alpha  occ. eigenvalues --  -10.22780 -10.22771 -10.22549 -10.22375 -10.22314
 Alpha  occ. eigenvalues --  -10.21881  -3.15352  -3.14078  -1.88153  -1.87756
 Alpha  occ. eigenvalues --   -1.87551  -1.86941  -1.86428  -1.86317  -1.11711
 Alpha  occ. eigenvalues --   -1.10322  -1.06609  -1.04781  -1.03460  -1.02402
 Alpha  occ. eigenvalues --   -1.02195  -1.01525  -0.99802  -0.99092  -0.98150
 Alpha  occ. eigenvalues --   -0.97945  -0.97807  -0.96962  -0.96386  -0.96095
 Alpha  occ. eigenvalues --   -0.87382  -0.86185  -0.84234  -0.83692  -0.83130
 Alpha  occ. eigenvalues --   -0.82966  -0.82923  -0.82439  -0.81966  -0.81279
 Alpha  occ. eigenvalues --   -0.81268  -0.80763  -0.80360  -0.79474  -0.78867
 Alpha  occ. eigenvalues --   -0.78785  -0.78218  -0.77873  -0.76955  -0.76795
 Alpha  occ. eigenvalues --   -0.76704  -0.76541  -0.75469  -0.75310  -0.74478
 Alpha  occ. eigenvalues --   -0.74190  -0.72958  -0.72123  -0.71639  -0.71518
 Alpha  occ. eigenvalues --   -0.71474  -0.70572  -0.70549  -0.70431  -0.69306
 Alpha  occ. eigenvalues --   -0.69175  -0.67179  -0.66975  -0.66061  -0.65723
 Alpha  occ. eigenvalues --   -0.64027  -0.63264  -0.63101  -0.62812  -0.62409
 Alpha  occ. eigenvalues --   -0.62277  -0.61376  -0.61008  -0.60174  -0.59890
 Alpha  occ. eigenvalues --   -0.59492  -0.59412  -0.59215  -0.58801  -0.58445
 Alpha  occ. eigenvalues --   -0.57866  -0.56891  -0.56354  -0.54742  -0.54728
 Alpha  occ. eigenvalues --   -0.54428  -0.53730  -0.53726  -0.53587  -0.53468
 Alpha  occ. eigenvalues --   -0.53031  -0.52963  -0.52274  -0.52256  -0.51706
 Alpha  occ. eigenvalues --   -0.50887  -0.50624  -0.50300  -0.50232  -0.49473
 Alpha  occ. eigenvalues --   -0.49364  -0.49210  -0.49040  -0.48988  -0.48611
 Alpha  occ. eigenvalues --   -0.48468  -0.48343  -0.48081  -0.47966  -0.47910
 Alpha  occ. eigenvalues --   -0.47663  -0.47561  -0.47092  -0.47087  -0.46788
 Alpha  occ. eigenvalues --   -0.46533  -0.46489  -0.46288  -0.46014  -0.45964
 Alpha  occ. eigenvalues --   -0.45926  -0.45443  -0.45319  -0.45098  -0.44710
 Alpha  occ. eigenvalues --   -0.44691  -0.44580  -0.44270  -0.44238  -0.44159
 Alpha  occ. eigenvalues --   -0.43937  -0.43917  -0.43808  -0.43691  -0.43687
 Alpha  occ. eigenvalues --   -0.43386  -0.42993  -0.42990  -0.42803  -0.42797
 Alpha  occ. eigenvalues --   -0.42355  -0.42334  -0.42159  -0.41896  -0.41835
 Alpha  occ. eigenvalues --   -0.41520  -0.41483  -0.41413  -0.41198  -0.41032
 Alpha  occ. eigenvalues --   -0.40915  -0.40724  -0.40412  -0.40389  -0.40162
 Alpha  occ. eigenvalues --   -0.40116  -0.39968  -0.39966  -0.39805  -0.39695
 Alpha  occ. eigenvalues --   -0.39584  -0.39436  -0.39091  -0.39018  -0.38844
 Alpha  occ. eigenvalues --   -0.38635  -0.38540  -0.38456  -0.38362  -0.38214
 Alpha  occ. eigenvalues --   -0.37991  -0.37860  -0.37809  -0.37626  -0.37618
 Alpha  occ. eigenvalues --   -0.37298  -0.37252  -0.37132  -0.36757  -0.36651
 Alpha  occ. eigenvalues --   -0.36369  -0.36219  -0.36088  -0.35988  -0.35847
 Alpha  occ. eigenvalues --   -0.35797  -0.35599  -0.35241  -0.35174  -0.34891
 Alpha  occ. eigenvalues --   -0.34839  -0.34680  -0.34613  -0.34422  -0.33535
 Alpha  occ. eigenvalues --   -0.33261  -0.32805  -0.32670  -0.32313  -0.32285
 Alpha  occ. eigenvalues --   -0.32080  -0.31977  -0.31647  -0.31419  -0.31291
 Alpha  occ. eigenvalues --   -0.31177  -0.30576  -0.29782  -0.29492  -0.29152
 Alpha  occ. eigenvalues --   -0.29008  -0.28776  -0.28714  -0.27097  -0.26896
 Alpha  occ. eigenvalues --   -0.25958  -0.25903  -0.25553  -0.25419  -0.25255
 Alpha  occ. eigenvalues --   -0.25225  -0.25219  -0.24353  -0.21103  -0.20998
 Alpha  occ. eigenvalues --   -0.18928  -0.18864
 Alpha virt. eigenvalues --   -0.11404  -0.11144  -0.05806  -0.05218  -0.03845
 Alpha virt. eigenvalues --   -0.03782  -0.02201  -0.01942  -0.01554   0.00065
 Alpha virt. eigenvalues --    0.00536   0.00772   0.00971   0.01101   0.01371

 Mulliken charges:
               1
     1  Mg  11.995547
     2  C    6.017073
     3  C    5.987972
     4  C    5.986000
     5  C    6.009874
     6  N    7.011144
     7  C    5.962025
     8  C    6.013777
     9  C    5.983612
    10  C    6.037224
    11  C    5.996539
    12  C    6.001018
    13  C    6.000185
    14  H    1.003348
    15  N    6.992861
    16  C    6.042231
    17  C    6.012269
    18  C    6.021121
    19  C    6.027333
    20  C    5.999560
    21  C    6.011422
    22  O    8.028067
    23  C    5.997321
    24  N    6.999157
    25  C    6.025927
    26  C    5.996670
    27  C    6.003963
    28  C    5.972770
    29  C    6.001669
    30  C    6.006025
    31  C    5.999637
    32  N    6.998103
    33  C    5.962397
    34  C    5.967304
    35  C    5.999655
    36  C    5.974012
    37  C    6.000435
    38  C    5.986486
    39  O    7.971054
    40  C    5.996902
    41  C    5.994465
    42  O    7.997942
    43  O    7.997148
    44  C    6.002081
    45  H    1.010356
    46  H    1.004392
    47  H    0.992193
    48  H    1.002169
    49  H    1.005445
    50  H    1.007855
    51  H    1.013542
    52  H    0.994294
    53  H    0.989387
    54  H    1.005953
    55  H    0.997167
    56  H    0.994734
    57  H    1.014064
    58  H    1.014215
    59  H    1.013649
    60  H    1.007559
    61  H    1.007103
    62  H    1.013640
    63  H    0.998763
    64  H    0.999582
    65  H    1.011239
    66  H    1.001472
    67  H    0.993648
    68  H    0.992986
    69  H    1.006306
    70  H    1.005911
    71  H    0.984804
    72  H    0.997289
    73  H    0.979161
    74  H    0.987289
    75  H    0.980712
    76  H    0.994090
    77  H    0.998464
    78  H    0.994750
    79  H    0.994492
    80  Mg  12.000263
    81  C    6.000854
    82  C    5.998642
    83  C    5.999003
    84  C    6.001136
    85  N    7.000504
    86  C    5.998290
    87  C    6.000018
    88  C    5.999096
    89  C    6.002729
    90  C    5.999901
    91  C    6.000227
    92  C    6.000134
    93  H    0.999988
    94  N    6.999377
    95  C    6.003093
    96  C    6.001311
    97  C    6.000769
    98  C    6.002651
    99  C    5.999697
   100  C    6.000880
   101  O    8.001635
   102  C    5.999717
   103  N    7.000239
   104  C    6.001875
   105  C    5.999167
   106  C    6.001057
   107  C    5.997396
   108  C    5.999816
   109  C    6.000064
   110  C    6.000059
   111  N    7.000278
   112  C    5.997168
   113  C    5.997933
   114  C    5.999831
   115  C    5.997879
   116  C    5.999642
   117  C    5.998822
   118  O    7.997275
   119  C    5.999969
   120  C    5.999672
   121  O    7.999891
   122  O    7.999806
   123  C    6.000092
   124  H    1.000613
   125  H    1.000694
   126  H    0.999137
   127  H    1.000136
   128  H    1.000830
   129  H    1.000477
   130  H    1.000473
   131  H    0.999599
   132  H    1.000092
   133  H    0.999535
   134  H    1.000081
   135  H    1.000122
   136  H    1.001574
   137  H    1.001155
   138  H    1.001732
   139  H    1.000899
   140  H    1.000951
   141  H    1.000181
   142  H    1.000212
   143  H    0.999482
   144  H    0.999683
   145  H    1.000642
   146  H    1.000018
   147  H    1.000315
   148  H    0.999290
   149  H    1.000056
   150  H    0.999749
   151  H    0.999502
   152  H    0.998804
   153  H    0.998793
   154  H    0.999100
   155  H    0.999092
   156  H    0.999683
   157  H    0.999501
   158  H    0.999953
 Sum of Mulliken charges = 624.00000

 Dipole moment (field-independent basis, Debye):
    X=              9.1391    Y=              3.3456    Z=             -4.0985  Tot=             10.5600
 Quadrupole moment (field-independent basis, Debye-Ang):
   XX=            199.7660   YY=             -1.0476   ZZ=             -3.4231
   XY=             52.1407   XZ=            -38.8855   YZ=              2.9115

 Normal termination of Gaussian 16 at Wed Oct 13 20:24:04 2021.
