 Gaussian 16, Revision A.03,
 Gaussian 16:  ES64L-G16RevA.03 25-Dec-2016

 --------------------------------------------------------
 #p PBE1PBE/Def2SVP td=(nstates=5) density=(transition=1)
 --------------------------------------------------------

 --------------------------------
 TDDFT excited states in gaussian
 --------------------------------
 Symbolic Z-matrix:
 Charge =  0 Multiplicity = 1

                         Standard orientation:
 ---------------------------------------------------------------------
 Center     Atomic      Atomic             Coordinates (Angstroms)
 Number     Number       Type             X           Y           Z
 ---------------------------------------------------------------------
      1         12           0      -26.718792   -0.597207   -0.039187
      2          6           0      -25.430795    2.296597   -1.537322
      3          6           0      -27.053425    1.237158    2.970649
      4          6           0      -27.640715   -3.462707    1.531944
      5          6           0      -25.657432   -2.406877   -2.781383
      6          7           0      -26.439304    1.525757    0.532498
      7          6           0      -26.063801    2.546881   -0.345170
      8          6           0      -26.432856    3.934780    0.292172
      9          6           0      -26.842306    3.547957    1.718023
     10          6           0      -26.729699    1.984422    1.773951
     11          6           0      -25.908733    4.230978    2.753474
     12          6           0      -27.507499    4.592983   -0.564512
     13          6           0      -27.578444    6.111177   -0.580112
     14          1           0      -26.788056    6.891416    0.494554
     15          7           0      -27.289403   -1.095357    1.955730
     16          6           0      -27.332712   -0.206165    3.046386
     17          6           0      -27.720833   -0.904206    4.259441
     18          6           0      -27.979328   -2.285241    3.899506
     19          6           0      -27.617203   -2.330406    2.418006
     20          6           0      -27.996016   -0.216351    5.602710
     21          6           0      -28.479270   -3.451401    4.730390
     22          8           0      -28.648689   -4.548723    4.215722
     23          6           0      -28.957191   -3.188404    6.106684
     24          7           0      -26.706245   -2.649734   -0.616355
     25          6           0      -27.226006   -3.623150    0.182219
     26          6           0      -27.294714   -4.960649   -0.600344
     27          6           0      -26.714222   -4.621521   -2.027920
     28          6           0      -26.424500   -3.105374   -1.880237
     29          6           0      -26.514387   -6.058052    0.145252
     30          6           0      -27.696385   -4.857283   -3.206005
     31          6           0      -27.337519   -6.165786   -3.903393
     32          7           0      -25.640613   -0.249695   -1.798281
     33          6           0      -25.206801   -1.055406   -2.797591
     34          6           0      -24.309913   -0.247510   -3.659369
     35          6           0      -24.445071    1.057600   -3.286044
     36          6           0      -25.236662    0.990558   -2.111102
     37          6           0      -23.595108   -0.857684   -4.853303
     38          6           0      -24.109872    2.457343   -3.579826
     39          8           0      -23.403930    2.913486   -4.471130
     40          6           0      -24.812577    3.271127   -2.510372
     41          6           0      -23.783151    4.165145   -1.957074
     42          8           0      -22.873236    3.934966   -1.149108
     43          8           0      -23.933586    5.394355   -2.565732
     44          6           0      -22.970646    6.415824   -2.215767
     45          1           0      -27.218793    1.854763    3.855648
     46          1           0      -28.049436   -4.312823    2.082193
     47          1           0      -25.276289   -3.062314   -3.567346
     48          1           0      -25.463916    4.433463    0.247061
     49          1           0      -27.808736    4.022526    1.887740
     50          1           0      -25.244869    3.553539    3.290829
     51          1           0      -26.549528    4.534347    3.580908
     52          1           0      -25.282603    4.999238    2.300197
     53          1           0      -28.434793    4.124228   -0.233725
     54          1           0      -27.410139    4.232014   -1.587711
     55          1           0      -28.625614    6.409600   -0.554558
     56          1           0      -27.202760    6.327463   -1.580821
     57          1           0      -27.722925    0.838849    5.623581
     58          1           0      -27.435403   -0.713741    6.395302
     59          1           0      -29.038481   -0.384435    5.870520
     60          1           0      -29.843273   -2.555597    6.050687
     61          1           0      -28.137709   -2.875595    6.753710
     62          1           0      -29.337473   -4.092271    6.582717
     63          1           0      -28.337059   -5.278290   -0.614423
     64          1           0      -25.771954   -5.167894   -2.086401
     65          1           0      -25.711997   -6.547022   -0.406419
     66          1           0      -27.319588   -6.780918    0.274708
     67          1           0      -26.001765   -5.719179    1.045083
     68          1           0      -27.491478   -4.154341   -4.013658
     69          1           0      -28.744903   -4.873159   -2.907980
     70          1           0      -28.297724   -6.670335   -4.009709
     71          1           0      -26.774627   -6.863807   -3.284173
     72          1           0      -26.848730   -6.061900   -4.872501
     73          1           0      -23.599201   -1.947282   -4.892444
     74          1           0      -22.558159   -0.533361   -4.931745
     75          1           0      -24.171313   -0.623482   -5.749116
     76          1           0      -25.619241    3.822653   -2.992200
     77          1           0      -21.976232    5.986020   -2.338921
     78          1           0      -23.069070    6.774683   -1.191016
     79          1           0      -22.969985    7.093740   -3.068632
     80         12           0       26.774044   -0.557393    0.093380
     81          6           0       24.532486    2.035620    0.943043
     82          6           0       28.767888    1.704961   -1.514258
     83          6           0       28.417436   -3.101487   -1.209285
     84          6           0       24.390495   -2.858850    1.361385
     85          7           0       26.689587    1.651560   -0.130929
     86          6           0       25.724310    2.441201    0.296713
     87          6           0       26.221000    3.874458    0.237790
     88          6           0       27.311536    3.830743   -0.900891
     89          6           0       27.631630    2.289570   -0.878450
     90          6           0       26.762983    4.441335   -2.246260
     91          6           0       26.886133    4.327817    1.562754
     92          6           0       26.973227    5.901152    1.788445
     93          1           0       26.464653    6.898715    0.744234
     94          7           0       28.458902   -0.676394   -0.992794
     95          6           0       29.234408    0.378265   -1.539072
     96          6           0       30.429132   -0.212715   -2.185981
     97          6           0       30.274111   -1.645300   -2.163764
     98          6           0       29.014799   -1.914564   -1.436287
     99          6           0       31.552300    0.589393   -2.742066
    100          6           0       31.166599   -2.829613   -2.703943
    101          8           0       30.919916   -4.028184   -2.512630
    102          6           0       32.308220   -2.498171   -3.620776
    103          7           0       26.388495   -2.708358   -0.022247
    104          6           0       27.240577   -3.537388   -0.564299
    105          6           0       26.886353   -4.992950   -0.441917
    106          6           0       25.559215   -4.937403    0.393502
    107          6           0       25.462975   -3.407072    0.690118
    108          6           0       26.871967   -5.692067   -1.804465
    109          6           0       25.583294   -5.747935    1.683309
    110          6           0       24.271375   -6.530417    2.049099
    111          7           0       24.835846   -0.511130    1.068013
    112          6           0       24.017049   -1.545521    1.561937
    113          6           0       22.939717   -0.966584    2.288395
    114          6           0       22.971800    0.422648    1.945170
    115          6           0       24.140601    0.648970    1.263439
    116          6           0       22.027491   -1.695601    3.232758
    117          6           0       22.414509    1.784707    2.125905
    118          8           0       21.413229    2.147024    2.707819
    119          6           0       23.298580    2.794697    1.250620
    120          6           0       23.321281    4.152301    1.873107
    121          8           0       23.747900    4.436109    2.953439
    122          8           0       22.670318    5.098894    1.060051
    123          6           0       22.000587    6.218570    1.755200
    124          1           0       29.343026    2.327056   -2.203840
    125          1           0       28.959538   -4.012054   -1.470506
    126          1           0       23.715993   -3.592414    1.808078
    127          1           0       25.299277    4.444644    0.122444
    128          1           0       28.205815    4.388784   -0.621446
    129          1           0       25.727761    4.757568   -2.122594
    130          1           0       26.702729    3.577518   -2.908332
    131          1           0       27.312985    5.308454   -2.612128
    132          1           0       27.899409    3.928638    1.501908
    133          1           0       26.347289    3.838496    2.374040
    134          1           0       28.030894    6.088546    1.979868
    135          1           0       26.460734    6.071543    2.735552
    136          1           0       31.599178    1.656880   -2.529750
    137          1           0       31.573124    0.572677   -3.831379
    138          1           0       32.437161    0.136320   -2.294329
    139          1           0       33.240115   -2.267376   -3.104849
    140          1           0       31.866681   -1.651706   -4.148180
    141          1           0       32.405309   -3.348280   -4.295488
    142          1           0       27.708101   -5.369540    0.167053
    143          1           0       24.676135   -5.259766   -0.156808
    144          1           0       26.678535   -5.022199   -2.642863
    145          1           0       26.033927   -6.386373   -1.757876
    146          1           0       27.800241   -6.223708   -2.014825
    147          1           0       25.802371   -5.113355    2.541870
    148          1           0       26.496743   -6.337109    1.603552
    149          1           0       23.451615   -6.270354    1.379643
    150          1           0       24.023802   -6.185701    3.052863
    151          1           0       24.303134   -7.619561    2.093123
    152          1           0       21.703347   -2.577775    2.680458
    153          1           0       21.142936   -1.134212    3.534154
    154          1           0       22.592431   -2.048344    4.096198
    155          1           0       22.763771    3.007323    0.325500
    156          1           0       22.508796    7.139330    1.468416
    157          1           0       21.997811    6.091889    2.838370
    158          1           0       20.977570    6.215142    1.379086
 ---------------------------------------------------------------------

 SCF Done:  E(RPBE1PBE) =  -4067.36091167     A.U. after   16 cycles

 Excitation energies and oscillator strengths:

 Excited State   1:      Singlet-A      1.8264 eV  678.86 nm  f=0.3818  <S**2>=0.000
     309 -> 316       -0.16180
     312 -> 313        0.69458
     312 <- 313       -0.11149
 This state for optimization and/or second-order correction.
 Total Energy, E(TD-HF/TD-DFT) =  -4067.29379445
 Copying the excited state density for this state as the 1-particle RhoCI density.

 Excited State   2:      Singlet-A      1.8894 eV  656.20 nm  f=0.3607  <S**2>=0.000
     310 -> 315        0.18731
     311 -> 314        0.68568

 Excited State   3:      Singlet-A      1.9841 eV  624.89 nm  f=0.0000  <S**2>=0.000
     312 -> 314        0.70711

 Excited State   4:      Singlet-A      2.0469 eV  605.71 nm  f=0.0000  <S**2>=0.000
     311 -> 313        0.70711

 Excited State   5:      Singlet-A      2.1350 eV  580.72 nm  f=0.0936  <S**2>=0.000
     310 -> 314        0.65947
     311 -> 315       -0.23135

 The electronic state is 1-A.
 Alpha  occ. eigenvalues --  -46.92507 -46.91918 -19.25150 -19.24048 -19.20178
 Alpha  occ. eigenvalues --  -19.20063 -19.19864 -19.19632 -19.19217 -19.18896
 Alpha  occ. eigenvalues --  -14.41706 -14.41462 -14.41252 -14.41119 -14.39680
 Alpha  occ. eigenvalues --  -14.39292 -14.38924 -14.37896 -10.36407 -10.35676
 Alpha  occ. eigenvalues --  -10.33609 -10.32656 -10.32393 -10.32264 -10.29636
 Alpha  occ. eigenvalues --  -10.29569 -10.28824 -10.28786 -10.28635 -10.28539
 Alpha  occ. eigenvalues --  -10.28515 -10.28210 -10.28186 -10.28161 -10.28029
 Alpha  occ. eigenvalues --  -10.27999 -10.27984 -10.27835 -10.27760 -10.27345
 Alpha  occ. eigenvalues --  -10.26960 -10.26542 -10.26494 -10.26486 -10.26257
 Alpha  occ. eigenvalues --  -10.26075 -10.25931 -10.25921 -10.25840 -10.25794
 Alpha  occ. eigenvalues --  -10.25765 -10.25683 -10.25573 -10.25532 -10.25521
 Alpha  occ. eigenvalues --  -10.25516 -10.25504 -10.25497 -10.25428 -10.25412
 Alpha  occ. eigenvalues --  -10.25359 -10.25215 -10.25164 -10.25087 -10.24865
 Alpha  occ. eigenvalues --  -10.24570 -10.24384 -10.24212 -10.23968 -10.23923
 Alpha  occ. eigenvalues --  -10.23895 -10.23852 -10.23813 -10.23652 -10.23610
 Alpha  occ. eigenvalues --  -10.23461 -10.23378 -10.23312 -10.23239 -10.23058
 Alpha  occ. eigenvalues --  -10.22963 -10.22859 -10.22730 -10.22671 -10.22566
 Alpha  occ. eigenvalues --  -10.22468  -3.14488  -3.13962  -1.87342  -1.86820
 Alpha  occ. eigenvalues --   -1.86815  -1.86742  -1.86336  -1.86182  -1.10587
 Alpha  occ. eigenvalues --   -1.10050  -1.04991  -1.04863  -1.04850  -1.04584
 Alpha  occ. eigenvalues --   -1.01945  -1.01707  -0.99688  -0.99151  -0.99112
 Alpha  occ. eigenvalues --   -0.97389  -0.97200  -0.96663  -0.96168  -0.95277
 Alpha  occ. eigenvalues --   -0.87816  -0.86349  -0.83557  -0.83515  -0.83085
 Alpha  occ. eigenvalues --   -0.83071  -0.82199  -0.81981  -0.81599  -0.81475
 Alpha  occ. eigenvalues --   -0.81449  -0.81055  -0.80054  -0.79947  -0.78585
 Alpha  occ. eigenvalues --   -0.78174  -0.78134  -0.78106  -0.77024  -0.76781
 Alpha  occ. eigenvalues --   -0.76426  -0.75917  -0.75252  -0.75050  -0.74374
 Alpha  occ. eigenvalues --   -0.74211  -0.72713  -0.72250  -0.71610  -0.71502
 Alpha  occ. eigenvalues --   -0.71118  -0.70792  -0.70286  -0.69760  -0.69408
 Alpha  occ. eigenvalues --   -0.68895  -0.67011  -0.67006  -0.66143  -0.65446
 Alpha  occ. eigenvalues --   -0.64201  -0.63469  -0.62984  -0.62876  -0.62341
 Alpha  occ. eigenvalues --   -0.61756  -0.61422  -0.60960  -0.60412  -0.59794
 Alpha  occ. eigenvalues --   -0.59583  -0.59308  -0.59166  -0.59048  -0.58460
 Alpha  occ. eigenvalues --   -0.58052  -0.56742  -0.55725  -0.54561  -0.54508
 Alpha  occ. eigenvalues --   -0.54235  -0.53750  -0.53579  -0.53324  -0.53098
 Alpha  occ. eigenvalues --   -0.52996  -0.52664  -0.52252  -0.52199  -0.51493
 Alpha  occ. eigenvalues --   -0.50916  -0.50521  -0.50302  -0.50038  -0.49735
 Alpha  occ. eigenvalues --   -0.49640  -0.49306  -0.48766  -0.48168  -0.48017
 Alpha  occ. eigenvalues --   -0.47865  -0.47768  -0.47732  -0.47725  -0.47657
 Alpha  occ. eigenvalues --   -0.47514  -0.47445  -0.47374  -0.46772  -0.46615
 Alpha  occ. eigenvalues --   -0.46521  -0.46361  -0.46308  -0.46010  -0.45930
 Alpha  occ. eigenvalues --   -0.45713  -0.45405  -0.45346  -0.45038  -0.44838
 Alpha  occ. eigenvalues --   -0.44818  -0.44510  -0.44325  -0.44142  -0.44016
 Alpha  occ. eigenvalues --   -0.44009  -0.43770  -0.43709  -0.43650  -0.43257
 Alpha  occ. eigenvalues --   -0.42967  -0.42944  -0.42863  -0.42666  -0.42489
 Alpha  occ. eigenvalues --   -0.42465  -0.42157  -0.42067  -0.41946  -0.41755
 Alpha  occ. eigenvalues --   -0.41697  -0.41462  -0.41066  -0.41063  -0.41037
 Alpha  occ. eigenvalues --   -0.40905  -0.40810  -0.40572  -0.40377  -0.40296
 Alpha  occ. eigenvalues --   -0.39978  -0.39850  -0.39746  -0.39685  -0.39472
 Alpha  occ. eigenvalues --   -0.39227  -0.39154  -0.39124  -0.39029  -0.38649
 Alpha  occ. eigenvalues --   -0.38524  -0.38406  -0.38167  -0.38024  -0.37956
 Alpha  occ. eigenvalues --   -0.37945  -0.37811  -0.37666  -0.37514  -0.37390
 Alpha  occ. eigenvalues --   -0.37334  -0.37260  -0.36974  -0.36852  -0.36741
 Alpha  occ. eigenvalues --   -0.36566  -0.36436  -0.36375  -0.36279  -0.36148
 Alpha  occ. eigenvalues --   -0.36026  -0.35845  -0.35838  -0.35241  -0.35108
 Alpha  occ. eigenvalues --   -0.34897  -0.34814  -0.33956  -0.33873  -0.33650
 Alpha  occ. eigenvalues --   -0.33457  -0.32980  -0.32938  -0.32753  -0.32743
 Alpha  occ. eigenvalues --   -0.32520  -0.31558  -0.31452  -0.31252  -0.30897
 Alpha  occ. eigenvalues --   -0.30811  -0.30397  -0.29381  -0.29374  -0.29080
 Alpha  occ. eigenvalues --   -0.29018  -0.28429  -0.28239  -0.26913  -0.26649
 Alpha  occ. eigenvalues --   -0.26429  -0.26356  -0.26138  -0.25925  -0.25758
 Alpha  occ. eigenvalues --   -0.25529  -0.25339  -0.24246  -0.20717  -0.20572
 Alpha  occ. eigenvalues --   -0.18877  -0.18563
 Alpha virt. eigenvalues --   -0.11104  -0.11023  -0.05490  -0.05039  -0.04177
 Alpha virt. eigenvalues --   -0.04025  -0.02426  -0.01745  -0.00418  -0.00003
 Alpha virt. eigenvalues --    0.00269   0.00580   0.01095   0.01342   0.01499

 Mulliken charges:
               1
     1  Mg  11.999683
     2  C    6.023045
     3  C    5.996575
     4  C    5.977661
     5  C    6.005190
     6  N    7.014308
     7  C    5.966743
     8  C    6.005216
     9  C    5.988764
    10  C    6.029570
    11  C    5.998204
    12  C    6.004185
    13  C    5.999808
    14  H    0.993579
    15  N    6.995438
    16  C    6.035887
    17  C    6.018501
    18  C    6.017341
    19  C    6.028175
    20  C    5.997685
    21  C    6.014532
    22  O    8.030375
    23  C    5.992430
    24  N    6.993570
    25  C    6.031356
    26  C    5.993044
    27  C    6.011042
    28  C    5.972732
    29  C    5.997735
    30  C    6.004281
    31  C    6.001499
    32  N    7.001129
    33  C    5.966397
    34  C    5.969509
    35  C    5.999523
    36  C    5.966464
    37  C    6.002965
    38  C    5.980540
    39  O    7.973543
    40  C    5.999633
    41  C    5.996795
    42  O    7.992143
    43  O    7.999366
    44  C    6.001221
    45  H    1.013094
    46  H    1.002061
    47  H    0.989122
    48  H    1.002871
    49  H    1.006157
    50  H    0.998861
    51  H    0.999241
    52  H    1.012845
    53  H    0.990891
    54  H    1.007535
    55  H    0.996970
    56  H    1.004335
    57  H    1.015635
    58  H    1.016701
    59  H    1.016408
    60  H    1.007363
    61  H    1.007572
    62  H    1.014673
    63  H    0.998101
    64  H    0.996421
    65  H    1.008126
    66  H    0.999784
    67  H    0.994822
    68  H    1.004458
    69  H    0.990748
    70  H    0.994556
    71  H    0.994723
    72  H    1.001193
    73  H    0.982675
    74  H    0.982281
    75  H    0.979722
    76  H    0.992628
    77  H    0.999361
    78  H    0.993313
    79  H    0.997372
    80  Mg  11.999996
    81  C    6.000052
    82  C    6.000009
    83  C    5.999974
    84  C    5.999986
    85  N    7.000030
    86  C    5.999985
    87  C    5.999997
    88  C    5.999999
    89  C    5.999975
    90  C    5.999999
    91  C    5.999995
    92  C    6.000001
    93  H    1.000023
    94  N    6.999981
    95  C    5.999977
    96  C    6.000023
    97  C    5.999982
    98  C    6.000009
    99  C    5.999998
   100  C    5.999984
   101  O    7.999980
   102  C    6.000001
   103  N    6.999977
   104  C    6.000020
   105  C    6.000003
   106  C    5.999998
   107  C    6.000028
   108  C    6.000010
   109  C    6.000001
   110  C    6.000003
   111  N    7.000016
   112  C    6.000028
   113  C    5.999989
   114  C    5.999986
   115  C    5.999991
   116  C    6.000008
   117  C    6.000024
   118  O    8.000018
   119  C    6.000001
   120  C    6.000003
   121  O    7.999987
   122  O    8.000011
   123  C    5.999992
   124  H    1.000001
   125  H    0.999989
   126  H    0.999999
   127  H    1.000010
   128  H    0.999991
   129  H    1.000008
   130  H    1.000013
   131  H    1.000001
   132  H    0.999999
   133  H    0.999986
   134  H    0.999991
   135  H    0.999989
   136  H    0.999983
   137  H    0.999991
   138  H    0.999974
   139  H    0.999979
   140  H    1.000009
   141  H    0.999987
   142  H    0.999982
   143  H    1.000014
   144  H    1.000017
   145  H    0.999990
   146  H    0.999992
   147  H    0.999985
   148  H    0.999993
   149  H    1.000017
   150  H    0.999983
   151  H    0.999993
   152  H    1.000023
   153  H    1.000019
   154  H    0.999993
   155  H    1.000026
   156  H    1.000009
   157  H    0.999987
   158  H    1.000029
 Sum of Mulliken charges = 624.00000

 Dipole moment (field-independent basis, Debye):
    X=             -4.0439    Y=             -1.7477    Z=              9.5313  Tot=             10.5001
 Quadrupole moment (field-independent basis, Debye-Ang):
   XX=            209.8432   YY=             -0.3956   ZZ=              6.2976
   XY=             47.7077   XZ=           -250.8607   YZ=             -7.2617

 Normal termination of Gaussian 16 at Fri Oct 15 01:22:47 2021.
