 Gaussian 16, Revision A.03,
 Gaussian 16:  ES64L-G16RevA.03 25-Dec-2016

 --------------------------------------------------------
 #p PBE1PBE/Def2SVP td=(nstates=5) density=(transition=1)
 --------------------------------------------------------

 --------------------------------
 TDDFT excited states in gaussian
 --------------------------------
 Symbolic Z-matrix:
 Charge =  0 Multiplicity = 1

                         Standard orientation:
 ---------------------------------------------------------------------
 Center     Atomic      Atomic             Coordinates (Angstroms)
 Number     Number       Type             X           Y           Z
 ---------------------------------------------------------------------
      1         12           0       25.734265   -0.679627    0.474989
      2          6           0       25.912747    2.151305   -1.431814
      3          6           0       25.601679    1.119451    3.276425
      4          6           0       25.801746   -3.491612    2.121418
      5          6           0       26.484703   -2.473054   -2.512153
      6          7           0       25.928107    1.438737    0.905142
      7          6           0       25.719953    2.383847   -0.045361
      8          6           0       25.309223    3.701087    0.553682
      9          6           0       25.501598    3.399308    2.094044
     10          6           0       25.776648    1.911361    2.117199
     11          6           0       26.573252    4.269153    2.793965
     12          6           0       23.823552    4.231695    0.075534
     13          6           0       23.675509    5.693487   -0.373347
     14          1           0       24.726179    6.710356    0.173432
     15          7           0       25.536797   -1.112540    2.336368
     16          6           0       25.497286   -0.272077    3.403026
     17          6           0       25.502025   -0.960548    4.670786
     18          6           0       25.353588   -2.276404    4.351357
     19          6           0       25.685834   -2.339185    2.894131
     20          6           0       25.684035   -0.115371    5.918230
     21          6           0       25.135954   -3.480208    5.289499
     22          8           0       25.075951   -4.628409    4.915661
     23          6           0       25.038576   -3.110022    6.740036
     24          7           0       26.271225   -2.679433   -0.131573
     25          6           0       26.077480   -3.658075    0.770806
     26          6           0       26.254036   -5.037384    0.128092
     27          6           0       26.155543   -4.723997   -1.403527
     28          6           0       26.341532   -3.193079   -1.372691
     29          6           0       27.538053   -5.890137    0.509984
     30          6           0       24.787548   -5.071996   -2.102535
     31          6           0       23.472998   -4.484194   -1.661300
     32          7           0       26.048408   -0.346413   -1.603849
     33          6           0       26.431969   -1.133688   -2.694365
     34          6           0       26.578898   -0.331512   -3.915553
     35          6           0       26.372223    0.980955   -3.465049
     36          6           0       26.057373    0.878073   -2.073471
     37          6           0       26.827523   -0.807946   -5.323644
     38          6           0       26.342452    2.323311   -3.828954
     39          8           0       26.570332    2.909741   -4.875505
     40          6           0       25.817433    3.116995   -2.604627
     41          6           0       26.761581    4.255697   -2.533656
     42          8           0       27.895192    4.215921   -2.049333
     43          8           0       26.264598    5.349345   -3.181457
     44          6           0       27.154978    6.474207   -3.484803
     45          1           0       25.365341    1.733078    4.148498
     46          1           0       25.779958   -4.473620    2.596983
     47          1           0       26.667997   -3.150827   -3.349403
     48          1           0       26.046404    4.471899    0.328667
     49          1           0       24.543366    3.522730    2.598214
     50          1           0       27.473159    3.671280    2.937722
     51          1           0       26.195748    4.558530    3.774718
     52          1           0       26.764451    5.114901    2.133361
     53          1           0       23.179051    4.054856    0.936694
     54          1           0       23.472715    3.659886   -0.782982
     55          1           0       22.741248    6.109553    0.002739
     56          1           0       23.591584    5.738907   -1.459096
     57          1           0       26.623395    0.435107    5.972297
     58          1           0       25.815625   -0.587699    6.891541
     59          1           0       24.773991    0.484067    5.893035
     60          1           0       24.246222   -2.378793    6.898213
     61          1           0       26.060256   -2.799736    6.958130
     62          1           0       24.745631   -3.874240    7.459049
     63          1           0       25.397507   -5.577450    0.533132
     64          1           0       27.027699   -5.147087   -1.902457
     65          1           0       28.139658   -5.336246    1.230261
     66          1           0       28.206200   -5.985500   -0.345106
     67          1           0       27.359041   -6.902801    0.874527
     68          1           0       24.798048   -6.155733   -1.983540
     69          1           0       24.799297   -4.841476   -3.167339
     70          1           0       23.611927   -3.943896   -0.723971
     71          1           0       22.749461   -5.274222   -1.460750
     72          1           0       23.027173   -3.740493   -2.321490
     73          1           0       27.838349   -0.588234   -5.664369
     74          1           0       26.103353   -0.352828   -5.999541
     75          1           0       26.761672   -1.892076   -5.228489
     76          1           0       24.768701    3.392398   -2.717557
     77          1           0       26.813111    7.049426   -4.346050
     78          1           0       28.201002    6.172320   -3.506309
     79          1           0       27.212568    7.193662   -2.668203
     80         12           0      -25.606556   -0.530894   -0.644879
     81          6           0      -26.753085    1.856588    1.657396
     82          6           0      -24.899461    1.851124   -2.869179
     83          6           0      -24.669316   -2.881706   -2.662027
     84          6           0      -27.345904   -2.958220    1.397530
     85          7           0      -25.923098    1.599785   -0.597010
     86          6           0      -26.224893    2.389636    0.441194
     87          6           0      -26.263047    3.844530    0.050474
     88          6           0      -26.066032    3.779833   -1.517251
     89          6           0      -25.589123    2.350179   -1.685304
     90          6           0      -27.282296    4.126490   -2.435990
     91          6           0      -25.033738    4.643546    0.724123
     92          6           0      -25.462787    5.982213    1.409423
     93          1           0      -24.272081    6.589312    2.331398
     94          7           0      -24.679201   -0.504122   -2.353236
     95          6           0      -24.415871    0.598162   -3.148463
     96          6           0      -23.518675    0.198763   -4.197549
     97          6           0      -23.363636   -1.247777   -4.187073
     98          6           0      -24.161927   -1.634296   -2.961233
     99          6           0      -23.034730    1.266971   -5.219834
    100          6           0      -22.621562   -2.273890   -5.035798
    101          8           0      -22.535008   -3.494582   -4.810671
    102          6           0      -21.871401   -1.650151   -6.158975
    103          7           0      -26.129792   -2.570110   -0.647093
    104          6           0      -25.560641   -3.298130   -1.662620
    105          6           0      -26.036848   -4.750776   -1.627732
    106          6           0      -26.612815   -4.847708   -0.190628
    107          6           0      -26.774073   -3.380280    0.211066
    108          6           0      -26.996443   -5.034517   -2.850767
    109          6           0      -25.742187   -5.663752    0.856582
    110          6           0      -26.488106   -6.260756    2.060656
    111          7           0      -26.783087   -0.599464    1.183049
    112          6           0      -27.381288   -1.634474    1.835667
    113          6           0      -27.942281   -1.203341    3.096504
    114          6           0      -27.637009    0.169874    3.073841
    115          6           0      -26.994004    0.505273    1.873732
    116          6           0      -28.684465   -1.967613    4.216879
    117          6           0      -27.748778    1.370771    3.853792
    118          8           0      -28.065826    1.590571    4.993422
    119          6           0      -27.310426    2.561201    2.852606
    120          6           0      -26.471124    3.368988    3.741499
    121          8           0      -25.261701    3.212979    4.046466
    122          8           0      -27.282749    4.338666    4.197399
    123          6           0      -26.740098    5.303035    5.155301
    124          1           0      -24.580834    2.629282   -3.566098
    125          1           0      -24.290993   -3.683755   -3.299553
    126          1           0      -27.771645   -3.746852    2.021436
    127          1           0      -27.165159    4.381132    0.345642
    128          1           0      -25.249134    4.377400   -1.922281
    129          1           0      -27.606612    3.203871   -2.917303
    130          1           0      -26.885334    4.816547   -3.180327
    131          1           0      -28.176723    4.550936   -1.981324
    132          1           0      -24.182932    4.845548    0.072340
    133          1           0      -24.564490    3.945444    1.417436
    134          1           0      -26.336388    5.825252    2.041768
    135          1           0      -25.674525    6.805623    0.727743
    136          1           0      -22.112803    1.702331   -4.836795
    137          1           0      -23.642148    2.172840   -5.227349
    138          1           0      -23.065192    0.994162   -6.274444
    139          1           0      -21.098801   -0.945460   -5.853442
    140          1           0      -22.674979   -1.200026   -6.743132
    141          1           0      -21.399786   -2.372610   -6.825708
    142          1           0      -25.134654   -5.349457   -1.753840
    143          1           0      -27.569063   -5.369795   -0.222745
    144          1           0      -28.027387   -5.122620   -2.508228
    145          1           0      -26.836448   -5.934670   -3.443689
    146          1           0      -27.097637   -4.239098   -3.589417
    147          1           0      -25.112498   -4.889464    1.295678
    148          1           0      -25.114902   -6.468917    0.473453
    149          1           0      -26.185672   -5.798948    3.001428
    150          1           0      -26.426175   -7.333284    2.246044
    151          1           0      -27.523615   -5.945579    1.940167
    152          1           0      -29.124627   -2.840862    3.735426
    153          1           0      -29.453705   -1.344246    4.674631
    154          1           0      -27.920980   -2.283103    4.927897
    155          1           0      -28.185662    3.152640    2.583210
    156          1           0      -26.660003    6.271373    4.661639
    157          1           0      -25.830200    4.942294    5.633756
    158          1           0      -27.486405    5.464662    5.933021
 ---------------------------------------------------------------------

 SCF Done:  E(RPBE1PBE) =  -4067.36220955     A.U. after   16 cycles

 Excitation energies and oscillator strengths:

 Excited State   1:      Singlet-A      1.8754 eV  661.09 nm  f=0.3643  <S**2>=0.000
     309 -> 315       -0.18965
     311 -> 313        0.68797
 This state for optimization and/or second-order correction.
 Total Energy, E(TD-HF/TD-DFT) =  -4067.29328851
 Copying the excited state density for this state as the 1-particle RhoCI density.

 Excited State   2:      Singlet-A      1.8950 eV  654.26 nm  f=0.3693  <S**2>=0.000
     310 -> 316        0.18697
     312 -> 314        0.68802

 Excited State   3:      Singlet-A      1.9047 eV  650.93 nm  f=0.0000  <S**2>=0.000
     312 -> 313        0.70711

 Excited State   4:      Singlet-A      2.2055 eV  562.15 nm  f=0.0000  <S**2>=0.000
     311 -> 314        0.70711

 Excited State   5:      Singlet-A      2.2462 eV  551.98 nm  f=0.0671  <S**2>=0.000
     309 -> 313        0.63544
     311 -> 315        0.29950

 The electronic state is 1-A.
 Alpha  occ. eigenvalues --  -46.91356 -46.91001 -19.25528 -19.24613 -19.19924
 Alpha  occ. eigenvalues --  -19.19828 -19.19305 -19.18697 -19.18638 -19.18087
 Alpha  occ. eigenvalues --  -14.42078 -14.41298 -14.41172 -14.40560 -14.39533
 Alpha  occ. eigenvalues --  -14.39132 -14.38488 -14.38106 -10.35569 -10.35318
 Alpha  occ. eigenvalues --  -10.33042 -10.32895 -10.31854 -10.30821 -10.29456
 Alpha  occ. eigenvalues --  -10.28998 -10.28500 -10.28312 -10.28287 -10.28240
 Alpha  occ. eigenvalues --  -10.28234 -10.28084 -10.28075 -10.27923 -10.27826
 Alpha  occ. eigenvalues --  -10.27736 -10.27618 -10.27513 -10.27038 -10.26974
 Alpha  occ. eigenvalues --  -10.26926 -10.26725 -10.26584 -10.26539 -10.26288
 Alpha  occ. eigenvalues --  -10.26231 -10.26192 -10.25935 -10.25734 -10.25693
 Alpha  occ. eigenvalues --  -10.25680 -10.25618 -10.25591 -10.25558 -10.25520
 Alpha  occ. eigenvalues --  -10.25485 -10.25415 -10.25406 -10.25272 -10.25234
 Alpha  occ. eigenvalues --  -10.25211 -10.25127 -10.25066 -10.25032 -10.25006
 Alpha  occ. eigenvalues --  -10.24944 -10.24461 -10.24145 -10.24118 -10.24079
 Alpha  occ. eigenvalues --  -10.23990 -10.23972 -10.23953 -10.23649 -10.23517
 Alpha  occ. eigenvalues --  -10.23509 -10.23479 -10.23462 -10.23388 -10.23271
 Alpha  occ. eigenvalues --  -10.23130 -10.22850 -10.22725 -10.22645 -10.22246
 Alpha  occ. eigenvalues --  -10.22015  -3.13783  -3.13414  -1.86591  -1.86242
 Alpha  occ. eigenvalues --   -1.86173  -1.86040  -1.85801  -1.85654  -1.10721
 Alpha  occ. eigenvalues --   -1.09657  -1.06073  -1.05577  -1.04039  -1.03915
 Alpha  occ. eigenvalues --   -1.00780  -1.00328  -1.00138  -0.99862  -0.99273
 Alpha  occ. eigenvalues --   -0.99001  -0.98837  -0.98286  -0.97780  -0.97050
 Alpha  occ. eigenvalues --   -0.87117  -0.86816  -0.83790  -0.83439  -0.82689
 Alpha  occ. eigenvalues --   -0.82545  -0.82367  -0.82272  -0.82244  -0.81815
 Alpha  occ. eigenvalues --   -0.81807  -0.81185  -0.81014  -0.80634  -0.78828
 Alpha  occ. eigenvalues --   -0.78633  -0.78132  -0.77894  -0.76871  -0.76717
 Alpha  occ. eigenvalues --   -0.76705  -0.76473  -0.75643  -0.75400  -0.74824
 Alpha  occ. eigenvalues --   -0.74639  -0.73210  -0.72474  -0.71853  -0.71649
 Alpha  occ. eigenvalues --   -0.71315  -0.71223  -0.70251  -0.70028  -0.69750
 Alpha  occ. eigenvalues --   -0.69543  -0.67261  -0.67151  -0.66611  -0.66112
 Alpha  occ. eigenvalues --   -0.63995  -0.63609  -0.63431  -0.63218  -0.62631
 Alpha  occ. eigenvalues --   -0.62318  -0.61659  -0.61635  -0.60493  -0.60019
 Alpha  occ. eigenvalues --   -0.59835  -0.59476  -0.59446  -0.59253  -0.59026
 Alpha  occ. eigenvalues --   -0.58338  -0.56367  -0.56353  -0.55541  -0.54791
 Alpha  occ. eigenvalues --   -0.54389  -0.53918  -0.53809  -0.53774  -0.53278
 Alpha  occ. eigenvalues --   -0.52641  -0.52575  -0.52377  -0.52125  -0.51574
 Alpha  occ. eigenvalues --   -0.50921  -0.50837  -0.50408  -0.50058  -0.49871
 Alpha  occ. eigenvalues --   -0.49626  -0.49174  -0.48893  -0.48726  -0.48504
 Alpha  occ. eigenvalues --   -0.48214  -0.47948  -0.47815  -0.47679  -0.47471
 Alpha  occ. eigenvalues --   -0.47303  -0.47108  -0.47040  -0.46886  -0.46829
 Alpha  occ. eigenvalues --   -0.46781  -0.46240  -0.46149  -0.45966  -0.45824
 Alpha  occ. eigenvalues --   -0.45604  -0.45244  -0.45237  -0.45050  -0.44979
 Alpha  occ. eigenvalues --   -0.44843  -0.44776  -0.44585  -0.44040  -0.44000
 Alpha  occ. eigenvalues --   -0.43929  -0.43733  -0.43729  -0.43530  -0.43409
 Alpha  occ. eigenvalues --   -0.43152  -0.43092  -0.42723  -0.42721  -0.42661
 Alpha  occ. eigenvalues --   -0.42651  -0.42389  -0.42133  -0.41979  -0.41853
 Alpha  occ. eigenvalues --   -0.41607  -0.41492  -0.41344  -0.41242  -0.41214
 Alpha  occ. eigenvalues --   -0.41114  -0.40614  -0.40525  -0.40490  -0.40284
 Alpha  occ. eigenvalues --   -0.40253  -0.40049  -0.39957  -0.39668  -0.39662
 Alpha  occ. eigenvalues --   -0.39275  -0.38927  -0.38876  -0.38713  -0.38617
 Alpha  occ. eigenvalues --   -0.38592  -0.38405  -0.38294  -0.38111  -0.37946
 Alpha  occ. eigenvalues --   -0.37935  -0.37748  -0.37719  -0.37683  -0.37668
 Alpha  occ. eigenvalues --   -0.37438  -0.37210  -0.37061  -0.37054  -0.36877
 Alpha  occ. eigenvalues --   -0.36762  -0.36697  -0.36421  -0.36243  -0.36088
 Alpha  occ. eigenvalues --   -0.36027  -0.35920  -0.35705  -0.35635  -0.35532
 Alpha  occ. eigenvalues --   -0.35415  -0.35212  -0.34529  -0.34485  -0.34154
 Alpha  occ. eigenvalues --   -0.33691  -0.33466  -0.33184  -0.32842  -0.32451
 Alpha  occ. eigenvalues --   -0.32070  -0.32029  -0.31503  -0.31377  -0.30487
 Alpha  occ. eigenvalues --   -0.30368  -0.30115  -0.29578  -0.29468  -0.29193
 Alpha  occ. eigenvalues --   -0.28728  -0.27882  -0.27866  -0.27680  -0.26993
 Alpha  occ. eigenvalues --   -0.26417  -0.26353  -0.26133  -0.25982  -0.25583
 Alpha  occ. eigenvalues --   -0.25524  -0.25222  -0.25120  -0.21121  -0.20671
 Alpha  occ. eigenvalues --   -0.18802  -0.18273
 Alpha virt. eigenvalues --   -0.11018  -0.10442  -0.05755  -0.05224  -0.04479
 Alpha virt. eigenvalues --   -0.03928  -0.01961  -0.01865  -0.00059   0.00159
 Alpha virt. eigenvalues --    0.00830   0.00945   0.00946   0.01479   0.01665

 Mulliken charges:
               1
     1  Mg  11.999988
     2  C    6.000280
     3  C    5.999961
     4  C    5.999710
     5  C    5.999973
     6  N    7.000095
     7  C    5.999660
     8  C    6.000128
     9  C    5.999900
    10  C    6.000307
    11  C    5.999968
    12  C    6.000011
    13  C    6.000012
    14  H    0.999989
    15  N    6.999951
    16  C    6.000277
    17  C    6.000261
    18  C    6.000122
    19  C    6.000341
    20  C    5.999938
    21  C    6.000132
    22  O    8.000251
    23  C    5.999932
    24  N    6.999978
    25  C    6.000341
    26  C    5.999914
    27  C    6.000072
    28  C    5.999738
    29  C    6.000003
    30  C    6.000077
    31  C    6.000062
    32  N    7.000003
    33  C    5.999801
    34  C    5.999663
    35  C    6.000003
    36  C    5.999698
    37  C    6.000046
    38  C    5.999836
    39  O    7.999687
    40  C    5.999963
    41  C    5.999966
    42  O    7.999950
    43  O    7.999985
    44  C    6.000028
    45  H    1.000111
    46  H    1.000064
    47  H    0.999882
    48  H    0.999999
    49  H    1.000006
    50  H    1.000021
    51  H    1.000020
    52  H    1.000125
    53  H    0.999911
    54  H    1.000035
    55  H    0.999960
    56  H    1.000025
    57  H    1.000197
    58  H    1.000172
    59  H    1.000123
    60  H    1.000058
    61  H    1.000070
    62  H    1.000158
    63  H    0.999962
    64  H    0.999990
    65  H    0.999976
    66  H    1.000095
    67  H    1.000008
    68  H    0.999894
    69  H    1.000014
    70  H    0.999890
    71  H    0.999920
    72  H    1.000017
    73  H    0.999817
    74  H    0.999811
    75  H    0.999849
    76  H    0.999915
    77  H    0.999956
    78  H    1.000000
    79  H    0.999945
    80  Mg  11.997777
    81  C    6.015470
    82  C    5.987043
    83  C    5.990727
    84  C    6.016040
    85  N    7.004404
    86  C    5.965660
    87  C    6.012491
    88  C    5.992357
    89  C    6.035436
    90  C    5.998313
    91  C    6.002185
    92  C    6.001281
    93  H    0.996893
    94  N    6.995099
    95  C    6.032390
    96  C    6.021539
    97  C    6.020120
    98  C    6.019924
    99  C    5.997040
   100  C    6.014064
   101  O    8.031732
   102  C    5.994466
   103  N    7.005176
   104  C    6.024114
   105  C    5.994554
   106  C    6.007615
   107  C    5.966700
   108  C    5.995335
   109  C    6.002344
   110  C    6.000787
   111  N    7.001282
   112  C    5.964938
   113  C    5.969636
   114  C    5.999417
   115  C    5.971253
   116  C    5.998274
   117  C    5.984006
   118  O    7.972103
   119  C    5.997717
   120  C    5.997335
   121  O    7.992110
   122  O    7.999713
   123  C    6.002454
   124  H    1.007845
   125  H    1.005526
   126  H    0.991862
   127  H    0.998550
   128  H    0.997780
   129  H    0.999475
   130  H    1.001201
   131  H    1.012726
   132  H    0.987889
   133  H    1.002923
   134  H    1.004526
   135  H    0.994646
   136  H    1.018075
   137  H    1.017185
   138  H    1.015046
   139  H    1.008529
   140  H    1.005913
   141  H    1.014755
   142  H    0.997629
   143  H    0.996367
   144  H    1.011656
   145  H    1.001902
   146  H    0.994696
   147  H    0.998756
   148  H    0.988770
   149  H    1.003053
   150  H    0.994823
   151  H    1.002600
   152  H    0.985084
   153  H    0.986934
   154  H    0.983235
   155  H    0.992517
   156  H    0.993650
   157  H    0.997325
   158  H    0.997236
 Sum of Mulliken charges = 624.00000

 Dipole moment (field-independent basis, Debye):
    X=              4.7803    Y=             -0.2256    Z=             -8.9192  Tot=             10.1220
 Quadrupole moment (field-independent basis, Debye-Ang):
   XX=           -243.9458   YY=             -3.1350   ZZ=             10.3360
   XY=              0.3337   XZ=            229.4625   YZ=              2.9583

 Normal termination of Gaussian 16 at Wed Oct 13 21:45:40 2021.
