 Gaussian 16, Revision A.03,
 Gaussian 16:  ES64L-G16RevA.03 25-Dec-2016

 --------------------------------------------------------
 #p PBE1PBE/Def2SVP td=(nstates=5) density=(transition=1)
 --------------------------------------------------------

 --------------------------------
 TDDFT excited states in gaussian
 --------------------------------
 Symbolic Z-matrix:
 Charge =  0 Multiplicity = 1

                         Standard orientation:
 ---------------------------------------------------------------------
 Center     Atomic      Atomic             Coordinates (Angstroms)
 Number     Number       Type             X           Y           Z
 ---------------------------------------------------------------------
      1         12           0       -5.024165   -0.646073    0.380853
      2          6           0       -3.028425    2.069028    1.075732
      3          6           0       -7.691732    1.568394   -0.107832
      4          6           0       -7.074710   -3.258687   -0.222386
      5          6           0       -2.499100   -2.747645    1.232142
      6          7           0       -5.358001    1.581217    0.743738
      7          6           0       -4.298808    2.495938    0.795286
      8          6           0       -4.760659    3.934572    0.489937
      9          6           0       -6.293652    3.697728    0.228237
     10          6           0       -6.504261    2.198855    0.231399
     11          6           0       -7.188787    4.409520    1.234732
     12          6           0       -4.077595    4.737162   -0.673391
     13          6           0       -3.184292    6.028024   -0.257013
     14          1           0       -3.724035    7.307896   -0.902846
     15          7           0       -7.072117   -0.842110    0.011532
     16          6           0       -7.965672    0.200621   -0.282093
     17          6           0       -9.227622   -0.314251   -0.823729
     18          6           0       -9.132579   -1.809292   -0.807445
     19          6           0       -7.696059   -2.061073   -0.388569
     20          6           0      -10.372875    0.579685   -1.245438
     21          6           0      -10.101222   -2.841359   -1.147535
     22          8           0       -9.820785   -4.034280   -0.958934
     23          6           0      -11.493503   -2.531760   -1.669086
     24          7           0       -4.811388   -2.630533    0.577653
     25          6           0       -5.756716   -3.577284    0.141524
     26          6           0       -5.249508   -5.075874    0.137263
     27          6           0       -3.740445   -4.833625    0.659348
     28          6           0       -3.678951   -3.297281    0.815270
     29          6           0       -6.099098   -6.071586    1.071072
     30          6           0       -2.680535   -5.397358   -0.348452
     31          6           0       -1.452149   -6.042407    0.212743
     32          7           0       -3.141691   -0.373118    1.135924
     33          6           0       -2.178216   -1.353168    1.391169
     34          6           0       -0.916126   -0.762718    1.680151
     35          6           0       -1.191180    0.638730    1.467354
     36          6           0       -2.562787    0.780061    1.221420
     37          6           0        0.392517   -1.364403    1.979223
     38          6           0       -0.619638    1.943505    1.586502
     39          8           0        0.511056    2.385283    1.818803
     40          6           0       -1.860886    2.940358    1.474410
     41          6           0       -2.008545    3.666554    2.763501
     42          8           0       -2.747540    3.449895    3.641596
     43          8           0       -1.192620    4.795431    2.775400
     44          6           0       -1.637178    5.864037    3.645796
     45          1           0       -8.494637    2.269567   -0.344927
     46          1           0       -7.610540   -4.180817   -0.456670
     47          1           0       -1.644946   -3.415790    1.360133
     48          1           0       -4.665160    4.528815    1.398065
     49          1           0       -6.614140    4.135676   -0.717470
     50          1           0       -7.712944    3.660142    1.827251
     51          1           0       -7.891830    4.939565    0.593306
     52          1           0       -6.701178    5.159016    1.857744
     53          1           0       -4.862100    5.068433   -1.354228
     54          1           0       -3.379348    4.110992   -1.228962
     55          1           0       -2.226283    5.800372   -0.724781
     56          1           0       -3.145685    6.130271    0.827265
     57          1           0      -10.822332    0.961724   -0.328013
     58          1           0      -11.094354   -0.031863   -1.785083
     59          1           0      -10.052131    1.473703   -1.780621
     60          1           0      -12.069347   -3.444980   -1.517577
     61          1           0      -11.512659   -2.212389   -2.711596
     62          1           0      -12.103350   -1.840712   -1.087493
     63          1           0       -5.163224   -5.432907   -0.888471
     64          1           0       -3.489435   -5.340939    1.591146
     65          1           0       -5.407192   -6.760346    1.556264
     66          1           0       -6.766913   -6.767737    0.565091
     67          1           0       -6.691586   -5.549740    1.822825
     68          1           0       -2.355427   -4.675872   -1.097850
     69          1           0       -3.068635   -6.225300   -0.941431
     70          1           0       -0.640510   -5.369952   -0.064552
     71          1           0       -1.064154   -6.964340   -0.220397
     72          1           0       -1.536656   -6.114484    1.297563
     73          1           0        0.431634   -2.348957    1.512339
     74          1           0        0.384516   -1.485612    3.062366
     75          1           0        1.170864   -0.636555    1.749281
     76          1           0       -1.684957    3.667736    0.682296
     77          1           0       -1.359909    5.519988    4.641634
     78          1           0       -2.721837    5.892210    3.543002
     79          1           0       -1.126022    6.801344    3.424221
     80         12           0        5.080861   -0.583564   -0.441038
     81          6           0        2.871799    1.996937   -1.151979
     82          6           0        7.575905    1.646554   -0.022166
     83          6           0        7.152155   -3.166431    0.052336
     84          6           0        2.464658   -2.828830   -1.054417
     85          7           0        5.125688    1.600212   -0.561849
     86          6           0        4.139743    2.441529   -0.762720
     87          6           0        4.735574    3.919176   -0.640178
     88          6           0        6.155786    3.612080   -1.065792
     89          6           0        6.345776    2.178525   -0.475750
     90          6           0        6.296008    3.743550   -2.597707
     91          6           0        4.409560    4.538705    0.786411
     92          6           0        4.498185    6.066450    0.853587
     93          1           0        5.100614    6.817131   -0.321463
     94          7           0        7.016849   -0.732252    0.127638
     95          6           0        7.877000    0.344860    0.327905
     96          6           0        9.126891   -0.187590    0.948732
     97          6           0        9.044823   -1.644604    0.918815
     98          6           0        7.722459   -1.857966    0.272858
     99          6           0       10.248864    0.704875    1.424032
    100          6           0       10.040395   -2.769987    1.463441
    101          8           0        9.791715   -3.979922    1.430289
    102          6           0       11.343457   -2.284622    2.063492
    103          7           0        4.882690   -2.637248   -0.599033
    104          6           0        5.868991   -3.498798   -0.365184
    105          6           0        5.460933   -4.977125   -0.650400
    106          6           0        3.936855   -4.819757   -0.750183
    107          6           0        3.705774   -3.341285   -0.747145
    108          6           0        6.127534   -5.603928   -1.906765
    109          6           0        3.019822   -5.678476    0.229859
    110          6           0        2.407947   -4.972606    1.395018
    111          7           0        3.130616   -0.507814   -1.189309
    112          6           0        2.180393   -1.463554   -1.321782
    113          6           0        0.939763   -0.957434   -1.790415
    114          6           0        1.155191    0.455727   -1.738748
    115          6           0        2.471288    0.611566   -1.367904
    116          6           0       -0.347985   -1.593645   -2.245562
    117          6           0        0.594653    1.761841   -1.918377
    118          8           0       -0.507881    2.131260   -2.260771
    119          6           0        1.609041    2.832621   -1.404262
    120          6           0        1.776443    3.877462   -2.418858
    121          8           0        2.214331    3.642613   -3.534868
    122          8           0        1.219366    5.128926   -2.051054
    123          6           0        1.255615    6.179347   -3.080673
    124          1           0        8.369022    2.393157    0.039276
    125          1           0        7.862818   -3.985176    0.176994
    126          1           0        1.687998   -3.560381   -1.285498
    127          1           0        4.218109    4.583030   -1.331419
    128          1           0        6.914424    4.218205   -0.571267
    129          1           0        6.952206    4.609346   -2.692787
    130          1           0        5.344644    3.927997   -3.098427
    131          1           0        6.856475    2.866841   -2.921544
    132          1           0        5.101145    4.145687    1.532164
    133          1           0        3.365104    4.284482    0.968421
    134          1           0        5.061798    6.304464    1.755166
    135          1           0        3.485315    6.431855    1.021140
    136          1           0        9.868839    1.651363    1.810230
    137          1           0       11.037033    0.936289    0.708290
    138          1           0       10.724256    0.229448    2.281849
    139          1           0       11.747538   -1.629096    1.292425
    140          1           0       12.086778   -3.064415    2.226766
    141          1           0       11.151913   -1.805101    3.023566
    142          1           0        5.727649   -5.630169    0.180418
    143          1           0        3.692102   -5.049471   -1.786568
    144          1           0        5.327680   -6.150769   -2.406654
    145          1           0        6.984869   -6.253946   -1.738971
    146          1           0        6.531724   -4.789746   -2.508356
    147          1           0        3.575757   -6.567248    0.528613
    148          1           0        2.136913   -6.010581   -0.315813
    149          1           0        1.331944   -4.935357    1.223284
    150          1           0        2.612644   -3.904087    1.472397
    151          1           0        2.549968   -5.472522    2.353211
    152          1           0       -0.282175   -2.681395   -2.288141
    153          1           0       -0.664553   -1.123358   -3.176991
    154          1           0       -1.198459   -1.508309   -1.568823
    155          1           0        1.269845    3.301048   -0.480724
    156          1           0        0.986890    7.176189   -2.731980
    157          1           0        0.535145    5.824202   -3.817990
    158          1           0        2.250635    6.116746   -3.519689
 ---------------------------------------------------------------------

 SCF Done:  E(RPBE1PBE) =  -4067.38301259     A.U. after   16 cycles

 Excitation energies and oscillator strengths:

 Excited State   1:      Singlet-A      1.5544 eV  797.63 nm  f=0.0039  <S**2>=0.000
     312 -> 313        0.70494
 This state for optimization and/or second-order correction.
 Total Energy, E(TD-HF/TD-DFT) =  -4067.32588931
 Copying the excited state density for this state as the 1-particle RhoCI density.

 Excited State   2:      Singlet-A      1.7573 eV  705.54 nm  f=0.1372  <S**2>=0.000
     311 -> 313        0.33377
     311 -> 314        0.60897
     312 -> 314       -0.12157

 Excited State   3:      Singlet-A      1.7915 eV  692.07 nm  f=0.6710  <S**2>=0.000
     309 -> 315        0.11542
     311 -> 313        0.54240
     311 -> 314       -0.35660
     312 -> 314       -0.25737

 Excited State   4:      Singlet-A      1.8782 eV  660.11 nm  f=0.1136  <S**2>=0.000
     310 -> 316        0.15884
     311 -> 313        0.28127
     312 -> 314        0.63078

 Excited State   5:      Singlet-A      2.0543 eV  603.54 nm  f=0.0003  <S**2>=0.000
     310 -> 313        0.70466

 The electronic state is 1-A.
 Alpha  occ. eigenvalues --  -46.91075 -46.90797 -19.24349 -19.22786 -19.20207
 Alpha  occ. eigenvalues --  -19.19639 -19.19339 -19.18679 -19.18618 -19.18231
 Alpha  occ. eigenvalues --  -14.41827 -14.41247 -14.40972 -14.40766 -14.39616
 Alpha  occ. eigenvalues --  -14.39283 -14.38116 -14.38084 -10.35488 -10.34976
 Alpha  occ. eigenvalues --  -10.33913 -10.32025 -10.31568 -10.31161 -10.29233
 Alpha  occ. eigenvalues --  -10.28538 -10.28447 -10.28316 -10.28273 -10.28210
 Alpha  occ. eigenvalues --  -10.28202 -10.28123 -10.28030 -10.28014 -10.27861
 Alpha  occ. eigenvalues --  -10.27838 -10.27802 -10.27608 -10.27560 -10.27329
 Alpha  occ. eigenvalues --  -10.27107 -10.26969 -10.26547 -10.26432 -10.26148
 Alpha  occ. eigenvalues --  -10.26140 -10.25824 -10.25613 -10.25609 -10.25464
 Alpha  occ. eigenvalues --  -10.25445 -10.25362 -10.25244 -10.25102 -10.25066
 Alpha  occ. eigenvalues --  -10.25010 -10.24971 -10.24873 -10.24854 -10.24741
 Alpha  occ. eigenvalues --  -10.24591 -10.24585 -10.24554 -10.24473 -10.24429
 Alpha  occ. eigenvalues --  -10.24306 -10.24073 -10.24072 -10.24036 -10.24028
 Alpha  occ. eigenvalues --  -10.24023 -10.23861 -10.23611 -10.23501 -10.23388
 Alpha  occ. eigenvalues --  -10.23353 -10.23273 -10.23156 -10.23127 -10.23085
 Alpha  occ. eigenvalues --  -10.23003 -10.22928 -10.22670 -10.22278 -10.22098
 Alpha  occ. eigenvalues --  -10.21837  -3.13408  -3.13136  -1.86218  -1.85990
 Alpha  occ. eigenvalues --   -1.85794  -1.85651  -1.85476  -1.85410  -1.11444
 Alpha  occ. eigenvalues --   -1.08917  -1.04738  -1.04340  -1.03874  -1.03186
 Alpha  occ. eigenvalues --   -1.02526  -1.01270  -0.99989  -0.99243  -0.99000
 Alpha  occ. eigenvalues --   -0.98485  -0.97881  -0.97373  -0.96283  -0.94837
 Alpha  occ. eigenvalues --   -0.86786  -0.86077  -0.83394  -0.83359  -0.82748
 Alpha  occ. eigenvalues --   -0.82374  -0.82347  -0.82047  -0.81474  -0.81309
 Alpha  occ. eigenvalues --   -0.81262  -0.80962  -0.80558  -0.80431  -0.78156
 Alpha  occ. eigenvalues --   -0.78044  -0.77799  -0.77760  -0.76583  -0.76425
 Alpha  occ. eigenvalues --   -0.76291  -0.75635  -0.75007  -0.74977  -0.74353
 Alpha  occ. eigenvalues --   -0.74059  -0.72724  -0.72453  -0.71613  -0.71414
 Alpha  occ. eigenvalues --   -0.70686  -0.70655  -0.69691  -0.69462  -0.69265
 Alpha  occ. eigenvalues --   -0.69114  -0.67313  -0.67005  -0.65887  -0.65273
 Alpha  occ. eigenvalues --   -0.63618  -0.63371  -0.63164  -0.62820  -0.62090
 Alpha  occ. eigenvalues --   -0.61830  -0.61541  -0.60468  -0.60063  -0.59424
 Alpha  occ. eigenvalues --   -0.59250  -0.59138  -0.58876  -0.58403  -0.58286
 Alpha  occ. eigenvalues --   -0.57851  -0.55568  -0.55330  -0.54752  -0.54441
 Alpha  occ. eigenvalues --   -0.53872  -0.53737  -0.53358  -0.53339  -0.52870
 Alpha  occ. eigenvalues --   -0.52691  -0.52303  -0.52231  -0.52022  -0.51491
 Alpha  occ. eigenvalues --   -0.50804  -0.50103  -0.49912  -0.49854  -0.49746
 Alpha  occ. eigenvalues --   -0.49555  -0.49074  -0.48420  -0.48104  -0.48011
 Alpha  occ. eigenvalues --   -0.47603  -0.47492  -0.47468  -0.47394  -0.47213
 Alpha  occ. eigenvalues --   -0.47147  -0.47027  -0.46633  -0.46598  -0.46288
 Alpha  occ. eigenvalues --   -0.46242  -0.46181  -0.46062  -0.45861  -0.45693
 Alpha  occ. eigenvalues --   -0.45431  -0.44957  -0.44920  -0.44863  -0.44800
 Alpha  occ. eigenvalues --   -0.44663  -0.44585  -0.44260  -0.44239  -0.43975
 Alpha  occ. eigenvalues --   -0.43911  -0.43886  -0.43537  -0.43349  -0.43315
 Alpha  occ. eigenvalues --   -0.43199  -0.43089  -0.43078  -0.42999  -0.42763
 Alpha  occ. eigenvalues --   -0.42584  -0.42440  -0.41968  -0.41817  -0.41635
 Alpha  occ. eigenvalues --   -0.41504  -0.41313  -0.41265  -0.41131  -0.40888
 Alpha  occ. eigenvalues --   -0.40816  -0.40667  -0.40543  -0.40366  -0.40270
 Alpha  occ. eigenvalues --   -0.40168  -0.39947  -0.39813  -0.39568  -0.39319
 Alpha  occ. eigenvalues --   -0.39304  -0.39116  -0.38900  -0.38729  -0.38540
 Alpha  occ. eigenvalues --   -0.38346  -0.38179  -0.38117  -0.38059  -0.37941
 Alpha  occ. eigenvalues --   -0.37721  -0.37614  -0.37574  -0.37544  -0.37418
 Alpha  occ. eigenvalues --   -0.37059  -0.36983  -0.36689  -0.36523  -0.36396
 Alpha  occ. eigenvalues --   -0.36207  -0.36105  -0.36059  -0.35943  -0.35630
 Alpha  occ. eigenvalues --   -0.35602  -0.35506  -0.35370  -0.35356  -0.35075
 Alpha  occ. eigenvalues --   -0.34759  -0.34370  -0.34173  -0.33789  -0.33666
 Alpha  occ. eigenvalues --   -0.33239  -0.32779  -0.32669  -0.32483  -0.32292
 Alpha  occ. eigenvalues --   -0.32213  -0.31885  -0.31194  -0.31055  -0.30865
 Alpha  occ. eigenvalues --   -0.30285  -0.29727  -0.29375  -0.29283  -0.28980
 Alpha  occ. eigenvalues --   -0.28648  -0.28417  -0.28172  -0.26833  -0.26550
 Alpha  occ. eigenvalues --   -0.26269  -0.25859  -0.25647  -0.25383  -0.25152
 Alpha  occ. eigenvalues --   -0.25023  -0.25012  -0.24727  -0.21016  -0.20418
 Alpha  occ. eigenvalues --   -0.18832  -0.18620
 Alpha virt. eigenvalues --   -0.11482  -0.10931  -0.05575  -0.04436  -0.04085
 Alpha virt. eigenvalues --   -0.03832  -0.02180  -0.01582  -0.00202   0.00536
 Alpha virt. eigenvalues --    0.01111   0.01257   0.01692   0.01781   0.01901

 Mulliken charges:
               1
     1  Mg  11.999985
     2  C    6.000457
     3  C    6.000202
     4  C    5.999685
     5  C    6.000425
     6  N    7.000282
     7  C    5.999337
     8  C    6.000265
     9  C    5.999789
    10  C    6.000380
    11  C    5.999869
    12  C    5.999828
    13  C    5.999951
    14  H    1.000341
    15  N    6.999955
    16  C    6.000604
    17  C    6.000833
    18  C    6.000326
    19  C    6.000704
    20  C    5.999868
    21  C    6.000349
    22  O    8.000796
    23  C    5.999757
    24  N    6.999815
    25  C    6.000890
    26  C    5.999650
    27  C    6.000322
    28  C    5.999279
    29  C    5.999870
    30  C    5.999979
    31  C    6.000032
    32  N    7.000100
    33  C    5.998980
    34  C    6.000530
    35  C    5.999752
    36  C    5.999747
    37  C    5.999029
    38  C    5.999847
    39  O    8.000679
    40  C    6.000146
    41  C    5.999963
    42  O    8.000149
    43  O    8.000056
    44  C    5.999970
    45  H    1.000503
    46  H    1.000361
    47  H    0.999851
    48  H    1.000144
    49  H    1.000197
    50  H    1.000040
    51  H    1.000212
    52  H    1.000455
    53  H    1.000051
    54  H    1.000007
    55  H    1.000069
    56  H    1.000114
    57  H    1.000581
    58  H    1.000505
    59  H    1.000514
    60  H    1.000485
    61  H    1.000330
    62  H    1.000267
    63  H    1.000210
    64  H    1.000153
    65  H    1.000434
    66  H    1.000160
    67  H    1.000036
    68  H    0.999682
    69  H    1.000036
    70  H    1.000023
    71  H    1.000265
    72  H    1.000139
    73  H    1.000212
    74  H    1.001614
    75  H    1.000648
    76  H    1.000117
    77  H    1.000186
    78  H    0.999924
    79  H    1.000229
    80  Mg  11.999518
    81  C    5.999101
    82  C    5.999531
    83  C    6.001329
    84  C    6.001213
    85  N    6.999191
    86  C    6.000780
    87  C    6.000167
    88  C    6.000154
    89  C    5.998902
    90  C    5.999895
    91  C    5.999715
    92  C    6.000179
    93  H    1.000004
    94  N    7.000282
    95  C    5.998348
    96  C    5.998696
    97  C    5.999192
    98  C    5.998169
    99  C    6.000353
   100  C    5.999215
   101  O    7.998534
   102  C    6.000321
   103  N    7.000858
   104  C    5.997779
   105  C    6.000525
   106  C    6.000291
   107  C    5.998535
   108  C    6.000133
   109  C    6.000037
   110  C    5.999918
   111  N    7.000738
   112  C    5.999107
   113  C    6.003455
   114  C    5.999763
   115  C    6.000469
   116  C    5.999292
   117  C    6.000995
   118  O    8.001768
   119  C    5.999345
   120  C    6.000220
   121  O    8.000246
   122  O    7.999933
   123  C    5.999961
   124  H    0.999005
   125  H    0.999579
   126  H    0.999773
   127  H    0.999450
   128  H    0.999807
   129  H    0.999595
   130  H    0.999157
   131  H    1.000084
   132  H    1.000519
   133  H    0.999455
   134  H    1.000027
   135  H    0.999546
   136  H    0.999089
   137  H    0.998769
   138  H    0.999046
   139  H    0.999764
   140  H    0.999111
   141  H    0.999493
   142  H    0.999560
   143  H    0.999476
   144  H    0.999201
   145  H    0.999776
   146  H    0.999909
   147  H    1.000010
   148  H    0.999479
   149  H    0.999523
   150  H    1.000241
   151  H    1.000160
   152  H    1.000945
   153  H    1.000720
   154  H    1.001176
   155  H    1.000640
   156  H    1.000069
   157  H    0.999788
   158  H    1.000379
 Sum of Mulliken charges = 624.00000

 Dipole moment (field-independent basis, Debye):
    X=             -1.1495    Y=              0.0558    Z=             -0.0996  Tot=              1.1551
 Quadrupole moment (field-independent basis, Debye-Ang):
   XX=             -3.1783   YY=             -0.0935   ZZ=              0.1967
   XY=              0.8389   XZ=             -0.1530   YZ=              0.1161

 Normal termination of Gaussian 16 at Fri Oct 15 14:51:01 2021.
