 Gaussian 16, Revision A.03,
 Gaussian 16:  ES64L-G16RevA.03 25-Dec-2016

 --------------------------------------------------------
 #p PBE1PBE/Def2SVP td=(nstates=5) density=(transition=1)
 --------------------------------------------------------

 --------------------------------
 TDDFT excited states in gaussian
 --------------------------------
 Symbolic Z-matrix:
 Charge =  0 Multiplicity = 1

                         Standard orientation:
 ---------------------------------------------------------------------
 Center     Atomic      Atomic             Coordinates (Angstroms)
 Number     Number       Type             X           Y           Z
 ---------------------------------------------------------------------
      1         12           0       13.360526   -0.609194    0.109379
      2          6           0       12.370281    2.290402   -1.530472
      3          6           0       15.891106    1.087891    1.546591
      4          6           0       14.754013   -3.542712    1.053729
      5          6           0       11.241154   -2.457599   -2.045942
      6          7           0       13.912079    1.444735    0.028292
      7          6           0       13.324819    2.544216   -0.558901
      8          6           0       14.137461    3.829654   -0.241488
      9          6           0       15.485760    3.221551    0.253962
     10          6           0       15.052778    1.848932    0.747715
     11          6           0       16.591019    3.086192   -0.851786
     12          6           0       13.271842    4.721808    0.667008
     13          6           0       13.308893    6.161596    0.320608
     14          1           0       12.189999    6.948734    0.835006
     15          7           0       14.946185   -1.099896    1.332122
     16          6           0       15.835700   -0.229134    1.875285
     17          6           0       16.569815   -0.914126    2.909372
     18          6           0       16.224093   -2.306011    2.763541
     19          6           0       15.321381   -2.373520    1.610620
     20          6           0       17.563667   -0.249981    3.793446
     21          6           0       16.766107   -3.583671    3.483496
     22          8           0       16.347779   -4.717164    3.239196
     23          6           0       17.736315   -3.481543    4.627102
     24          7           0       13.244514   -2.691228   -0.706183
     25          6           0       13.865151   -3.751798    0.008653
     26          6           0       13.412109   -5.106256   -0.426087
     27          6           0       12.150506   -4.673370   -1.241504
     28          6           0       12.168621   -3.147691   -1.285203
     29          6           0       14.483120   -5.913782   -1.234839
     30          6           0       10.798356   -5.173702   -0.613886
     31          6           0       10.594363   -4.850044    0.888116
     32          7           0       11.985456   -0.207914   -1.393766
     33          6           0       11.158852   -1.055576   -2.147363
     34          6           0       10.402054   -0.222484   -3.004940
     35          6           0       10.832201    1.076650   -2.765237
     36          6           0       11.785850    1.021350   -1.802938
     37          6           0        9.321393   -0.682825   -3.930636
     38          6           0       10.692314    2.385650   -3.203473
     39          8           0        9.956941    2.846832   -4.095316
     40          6           0       11.671972    3.321576   -2.433321
     41          6           0       10.720595    4.334347   -1.722869
     42          8           0        9.946498    4.063359   -0.787650
     43          8           0       10.891126    5.577369   -2.322700
     44          6           0        9.914179    6.664251   -1.995872
     45          1           0       16.719925    1.720239    1.871864
     46          1           0       14.975341   -4.572858    1.343030
     47          1           0       10.426501   -2.950521   -2.580674
     48          1           0       14.257530    4.432788   -1.140811
     49          1           0       15.837269    3.788981    1.115176
     50          1           0       16.344452    3.497465   -1.831060
     51          1           0       16.766794    2.037983   -1.090171
     52          1           0       17.477471    3.630544   -0.526878
     53          1           0       13.731388    4.665348    1.652795
     54          1           0       12.256675    4.324379    0.649114
     55          1           0       13.237286    6.202804   -0.766382
     56          1           0       14.284569    6.558861    0.599804
     57          1           0       17.422275    0.830494    3.811389
     58          1           0       18.551067   -0.643433    3.549585
     59          1           0       17.383370   -0.552435    4.825065
     60          1           0       18.254581   -4.440719    4.627078
     61          1           0       17.208687   -3.386646    5.576435
     62          1           0       18.471785   -2.691679    4.471331
     63          1           0       13.082619   -5.746485    0.393432
     64          1           0       12.242039   -5.059951   -2.257042
     65          1           0       15.216749   -5.217493   -1.642025
     66          1           0       14.120846   -6.501940   -2.078152
     67          1           0       15.054750   -6.649160   -0.667928
     68          1           0       10.743224   -6.238410   -0.841373
     69          1           0       10.042619   -4.711910   -1.249179
     70          1           0        9.706170   -4.244741    1.070379
     71          1           0       11.495171   -4.333334    1.220430
     72          1           0       10.480623   -5.744950    1.499190
     73          1           0        9.610480   -0.328193   -4.919921
     74          1           0        8.379445   -0.267807   -3.572066
     75          1           0        9.222390   -1.763355   -4.035070
     76          1           0       12.274575    3.857942   -3.165835
     77          1           0        8.937157    6.293502   -2.305002
     78          1           0       10.061887    7.636863   -2.465141
     79          1           0       10.075715    6.663466   -0.917872
     80         12           0      -13.638801   -0.468725   -0.072916
     81          6           0      -11.359861    2.086579    0.562997
     82          6           0      -16.203429    1.820829    0.051481
     83          6           0      -15.735726   -3.092828   -0.418365
     84          6           0      -10.942004   -2.795117    0.218447
     85          7           0      -13.734272    1.657406    0.376470
     86          6           0      -12.698583    2.516613    0.577812
     87          6           0      -13.185173    3.968651    0.670024
     88          6           0      -14.765861    3.776264    0.642676
     89          6           0      -14.899552    2.285193    0.316000
     90          6           0      -15.408237    4.118165    1.981639
     91          6           0      -12.806098    4.897943   -0.537603
     92          6           0      -12.672731    6.372894   -0.260737
     93          1           0      -13.213431    6.927390    0.980596
     94          7           0      -15.641313   -0.593356   -0.256567
     95          6           0      -16.538538    0.489701   -0.167385
     96          6           0      -17.833120   -0.030753   -0.521261
     97          6           0      -17.744225   -1.432132   -0.717521
     98          6           0      -16.323676   -1.775085   -0.461172
     99          6           0      -19.104993    0.785734   -0.437107
    100          6           0      -18.753300   -2.421724   -1.126127
    101          8           0      -18.576026   -3.619514   -1.061025
    102          6           0      -20.202732   -1.962139   -1.524169
    103          7           0      -13.391848   -2.688000   -0.274313
    104          6           0      -14.402711   -3.498057   -0.377609
    105          6           0      -13.941091   -4.986417   -0.392937
    106          6           0      -12.429915   -4.916381   -0.268804
    107          6           0      -12.181436   -3.382431   -0.037118
    108          6           0      -14.731950   -5.828614    0.715424
    109          6           0      -11.693138   -5.520373   -1.482988
    110          6           0      -11.211490   -7.014487   -1.362435
    111          7           0      -11.617201   -0.422190    0.040161
    112          6           0      -10.636703   -1.438890    0.153877
    113          6           0       -9.338407   -0.889678    0.254415
    114          6           0       -9.618519    0.520887    0.503454
    115          6           0      -11.019083    0.700153    0.317114
    116          6           0       -8.056346   -1.667552    0.488635
    117          6           0       -8.945245    1.718780    0.846894
    118          8           0       -7.761121    1.975247    1.025068
    119          6           0      -10.139126    2.882529    0.810930
    120          6           0      -10.041288    3.583574    2.134005
    121          8           0      -10.162263    3.027860    3.230817
    122          8           0       -9.655754    4.950867    2.004642
    123          6           0       -9.525727    5.713888    3.285327
    124          1           0      -16.966362    2.601078    0.106647
    125          1           0      -16.484477   -3.883702   -0.343368
    126          1           0      -10.075359   -3.457380    0.264072
    127          1           0      -12.836337    4.343994    1.632327
    128          1           0      -15.257686    4.407565   -0.097256
    129          1           0      -14.720710    4.673714    2.618853
    130          1           0      -15.825209    3.245354    2.484807
    131          1           0      -16.200478    4.863599    1.912106
    132          1           0      -13.547212    4.735416   -1.319408
    133          1           0      -11.897957    4.481118   -0.973625
    134          1           0      -13.246534    6.890676   -1.029027
    135          1           0      -11.618627    6.647658   -0.299905
    136          1           0      -19.783688    0.443907    0.344246
    137          1           0      -19.580381    0.769491   -1.418736
    138          1           0      -18.983191    1.839407   -0.186547
    139          1           0      -20.736191   -1.820249   -0.583923
    140          1           0      -20.738791   -2.783398   -2.000048
    141          1           0      -20.177307   -1.013736   -2.059430
    142          1           0      -14.263269   -5.329394   -1.376308
    143          1           0      -12.080237   -5.349185    0.667219
    144          1           0      -14.034616   -6.313388    1.398527
    145          1           0      -15.287697   -6.672820    0.306826
    146          1           0      -15.328657   -5.085053    1.245384
    147          1           0      -10.815977   -4.892475   -1.643218
    148          1           0      -12.352598   -5.391344   -2.341351
    149          1           0      -10.236061   -7.007333   -0.874754
    150          1           0      -11.192025   -7.637040   -2.257150
    151          1           0      -11.913541   -7.385532   -0.616505
    152          1           0       -7.760136   -1.962883   -0.517573
    153          1           0       -8.235214   -2.558602    1.089249
    154          1           0       -7.310038   -1.192980    1.127040
    155          1           0       -9.963369    3.537879   -0.043037
    156          1           0       -8.737220    5.306382    3.916992
    157          1           0      -10.405511    5.813837    3.921565
    158          1           0       -9.187637    6.667172    2.879074
 ---------------------------------------------------------------------

 SCF Done:  E(RPBE1PBE) =  -4067.41132661     A.U. after   16 cycles

 Excitation energies and oscillator strengths:

 Excited State   1:      Singlet-A      1.8235 eV  679.92 nm  f=0.4220  <S**2>=0.000
     309 -> 316       -0.15359
     312 -> 314        0.69350
     312 <- 314       -0.11701
 This state for optimization and/or second-order correction.
 Total Energy, E(TD-HF/TD-DFT) =  -4067.34431384
 Copying the excited state density for this state as the 1-particle RhoCI density.

 Excited State   2:      Singlet-A      1.8436 eV  672.53 nm  f=0.0000  <S**2>=0.000
     312 -> 313        0.70709

 Excited State   3:      Singlet-A      1.8460 eV  671.64 nm  f=0.3060  <S**2>=0.000
     310 -> 315       -0.17382
     311 -> 313        0.68899
     311 <- 313       -0.10404

 Excited State   4:      Singlet-A      1.9747 eV  627.86 nm  f=0.0000  <S**2>=0.000
     311 -> 314        0.70710

 Excited State   5:      Singlet-A      2.2118 eV  560.56 nm  f=0.1326  <S**2>=0.000
     310 -> 313        0.66052
     311 -> 315        0.23944

 The electronic state is 1-A.
 Alpha  occ. eigenvalues --  -46.91630 -46.91356 -19.25305 -19.24853 -19.20126
 Alpha  occ. eigenvalues --  -19.19717 -19.19134 -19.18917 -19.18823 -19.17772
 Alpha  occ. eigenvalues --  -14.42093 -14.41466 -14.41160 -14.40845 -14.39689
 Alpha  occ. eigenvalues --  -14.39164 -14.38946 -14.38072 -10.36971 -10.36139
 Alpha  occ. eigenvalues --  -10.32393 -10.32252 -10.31756 -10.30643 -10.29068
 Alpha  occ. eigenvalues --  -10.29043 -10.28958 -10.28760 -10.28727 -10.28581
 Alpha  occ. eigenvalues --  -10.28432 -10.28344 -10.28288 -10.28276 -10.28050
 Alpha  occ. eigenvalues --  -10.27924 -10.27782 -10.27065 -10.26872 -10.26862
 Alpha  occ. eigenvalues --  -10.26848 -10.26807 -10.26059 -10.25962 -10.25930
 Alpha  occ. eigenvalues --  -10.25921 -10.25846 -10.25800 -10.25740 -10.25685
 Alpha  occ. eigenvalues --  -10.25635 -10.25583 -10.25441 -10.25427 -10.25403
 Alpha  occ. eigenvalues --  -10.25369 -10.25318 -10.25243 -10.25209 -10.25096
 Alpha  occ. eigenvalues --  -10.24914 -10.24907 -10.24850 -10.24766 -10.24562
 Alpha  occ. eigenvalues --  -10.24452 -10.24406 -10.24191 -10.24108 -10.24060
 Alpha  occ. eigenvalues --  -10.23937 -10.23887 -10.23830 -10.23538 -10.23512
 Alpha  occ. eigenvalues --  -10.23430 -10.23346 -10.23287 -10.23268 -10.23212
 Alpha  occ. eigenvalues --  -10.23192 -10.23168 -10.23003 -10.22891 -10.22722
 Alpha  occ. eigenvalues --  -10.21303  -3.13804  -3.13628  -1.86624  -1.86482
 Alpha  occ. eigenvalues --   -1.86181  -1.86029  -1.85995  -1.85872  -1.09045
 Alpha  occ. eigenvalues --   -1.08215  -1.05526  -1.04157  -1.03688  -1.02526
 Alpha  occ. eigenvalues --   -1.01343  -1.00691  -0.99754  -0.99360  -0.98694
 Alpha  occ. eigenvalues --   -0.98515  -0.98119  -0.98082  -0.96804  -0.96771
 Alpha  occ. eigenvalues --   -0.86800  -0.86570  -0.83529  -0.83379  -0.83227
 Alpha  occ. eigenvalues --   -0.83194  -0.82813  -0.82609  -0.82031  -0.81985
 Alpha  occ. eigenvalues --   -0.81704  -0.81352  -0.80762  -0.80699  -0.78804
 Alpha  occ. eigenvalues --   -0.78507  -0.77712  -0.77339  -0.76429  -0.76381
 Alpha  occ. eigenvalues --   -0.75723  -0.75683  -0.75161  -0.74636  -0.74553
 Alpha  occ. eigenvalues --   -0.74257  -0.72805  -0.72472  -0.71615  -0.71283
 Alpha  occ. eigenvalues --   -0.71146  -0.71128  -0.70247  -0.70163  -0.69744
 Alpha  occ. eigenvalues --   -0.69372  -0.67607  -0.67591  -0.66390  -0.66012
 Alpha  occ. eigenvalues --   -0.64051  -0.63793  -0.63334  -0.63103  -0.62546
 Alpha  occ. eigenvalues --   -0.61895  -0.61622  -0.60858  -0.60145  -0.59769
 Alpha  occ. eigenvalues --   -0.59690  -0.59438  -0.59196  -0.58997  -0.58939
 Alpha  occ. eigenvalues --   -0.58475  -0.56064  -0.56022  -0.54753  -0.54376
 Alpha  occ. eigenvalues --   -0.54227  -0.54224  -0.53898  -0.53678  -0.53194
 Alpha  occ. eigenvalues --   -0.53023  -0.52377  -0.52086  -0.51833  -0.51258
 Alpha  occ. eigenvalues --   -0.50781  -0.50479  -0.50056  -0.49795  -0.49498
 Alpha  occ. eigenvalues --   -0.49365  -0.49207  -0.49171  -0.48578  -0.47977
 Alpha  occ. eigenvalues --   -0.47808  -0.47683  -0.47562  -0.47468  -0.47342
 Alpha  occ. eigenvalues --   -0.47333  -0.47006  -0.46936  -0.46794  -0.46713
 Alpha  occ. eigenvalues --   -0.46625  -0.46409  -0.46172  -0.46020  -0.45942
 Alpha  occ. eigenvalues --   -0.45716  -0.45241  -0.44977  -0.44861  -0.44629
 Alpha  occ. eigenvalues --   -0.44407  -0.44149  -0.44036  -0.43956  -0.43840
 Alpha  occ. eigenvalues --   -0.43804  -0.43750  -0.43592  -0.43513  -0.43284
 Alpha  occ. eigenvalues --   -0.43122  -0.43099  -0.42988  -0.42820  -0.42654
 Alpha  occ. eigenvalues --   -0.42575  -0.42330  -0.42253  -0.42205  -0.41978
 Alpha  occ. eigenvalues --   -0.41856  -0.41740  -0.41622  -0.41583  -0.41524
 Alpha  occ. eigenvalues --   -0.41244  -0.40958  -0.40613  -0.40457  -0.40453
 Alpha  occ. eigenvalues --   -0.40183  -0.39940  -0.39811  -0.39460  -0.39289
 Alpha  occ. eigenvalues --   -0.39238  -0.39073  -0.38857  -0.38857  -0.38787
 Alpha  occ. eigenvalues --   -0.38687  -0.38441  -0.38232  -0.38226  -0.38140
 Alpha  occ. eigenvalues --   -0.37897  -0.37883  -0.37764  -0.37726  -0.37525
 Alpha  occ. eigenvalues --   -0.37505  -0.37024  -0.36996  -0.36807  -0.36700
 Alpha  occ. eigenvalues --   -0.36696  -0.36466  -0.36453  -0.36294  -0.36161
 Alpha  occ. eigenvalues --   -0.35885  -0.35682  -0.35680  -0.35392  -0.35053
 Alpha  occ. eigenvalues --   -0.35019  -0.34790  -0.34681  -0.34390  -0.33915
 Alpha  occ. eigenvalues --   -0.33568  -0.33122  -0.32941  -0.32767  -0.32312
 Alpha  occ. eigenvalues --   -0.32251  -0.32008  -0.31831  -0.31540  -0.31205
 Alpha  occ. eigenvalues --   -0.30896  -0.30736  -0.29677  -0.29216  -0.29150
 Alpha  occ. eigenvalues --   -0.29012  -0.28620  -0.28532  -0.26964  -0.26908
 Alpha  occ. eigenvalues --   -0.25998  -0.25679  -0.25578  -0.25455  -0.25227
 Alpha  occ. eigenvalues --   -0.25039  -0.24947  -0.24705  -0.21079  -0.21071
 Alpha  occ. eigenvalues --   -0.19103  -0.18758
 Alpha virt. eigenvalues --   -0.11500  -0.11341  -0.05200  -0.05050  -0.03942
 Alpha virt. eigenvalues --   -0.03582  -0.02001  -0.01932  -0.00415   0.00045
 Alpha virt. eigenvalues --    0.00477   0.00814   0.01175   0.01357   0.02275

 Mulliken charges:
               1
     1  Mg  11.997482
     2  C    6.024447
     3  C    5.997016
     4  C    5.967995
     5  C    5.983465
     6  N    7.021026
     7  C    5.968040
     8  C    6.003044
     9  C    5.993367
    10  C    6.023085
    11  C    5.996739
    12  C    6.005841
    13  C    5.999448
    14  H    1.001293
    15  N    6.993116
    16  C    6.034920
    17  C    6.019529
    18  C    6.012938
    19  C    6.037609
    20  C    5.996805
    21  C    6.012405
    22  O    8.028972
    23  C    5.995057
    24  N    6.983532
    25  C    6.041463
    26  C    5.985308
    27  C    6.007374
    28  C    5.982270
    29  C    6.000459
    30  C    6.007717
    31  C    6.005384
    32  N    7.002024
    33  C    5.972974
    34  C    5.969505
    35  C    5.999861
    36  C    5.972584
    37  C    6.002911
    38  C    5.985414
    39  O    7.971350
    40  C    5.996247
    41  C    5.996803
    42  O    7.996439
    43  O    7.998486
    44  C    6.000567
    45  H    1.013997
    46  H    1.004059
    47  H    0.984119
    48  H    1.001482
    49  H    1.001326
    50  H    1.015770
    51  H    0.999451
    52  H    1.003324
    53  H    0.988197
    54  H    1.005597
    55  H    1.003716
    56  H    0.994616
    57  H    1.014283
    58  H    1.018423
    59  H    1.017278
    60  H    1.012922
    61  H    1.010598
    62  H    1.003953
    63  H    1.000801
    64  H    0.997138
    65  H    0.999517
    66  H    1.009183
    67  H    0.996559
    68  H    0.990307
    69  H    1.006379
    70  H    1.002561
    71  H    0.986762
    72  H    0.993268
    73  H    0.982642
    74  H    0.981277
    75  H    0.983949
    76  H    0.991976
    77  H    1.000869
    78  H    0.995721
    79  H    0.995671
    80  Mg  12.000019
    81  C    5.997418
    82  C    6.000080
    83  C    6.001706
    84  C    6.000043
    85  N    6.998531
    86  C    6.003348
    87  C    5.998917
    88  C    6.001174
    89  C    5.997583
    90  C    6.000461
    91  C    5.999748
    92  C    6.000036
    93  H    1.000188
    94  N    7.000953
    95  C    5.996602
    96  C    5.997827
    97  C    5.998190
    98  C    5.997479
    99  C    6.000433
   100  C    5.999125
   101  O    7.996927
   102  C    6.000219
   103  N    7.000621
   104  C    5.997526
   105  C    6.000224
   106  C    5.999621
   107  C    6.002242
   108  C    6.000235
   109  C    5.999619
   110  C    6.000111
   111  N    6.999902
   112  C    6.003019
   113  C    6.002719
   114  C    6.000688
   115  C    6.002729
   116  C    6.000093
   117  C    6.001453
   118  O    8.003552
   119  C    6.000673
   120  C    6.000409
   121  O    8.000209
   122  O    8.000316
   123  C    5.999847
   124  H    0.998562
   125  H    0.999645
   126  H    1.001329
   127  H    0.999698
   128  H    0.999663
   129  H    0.998534
   130  H    1.000105
   131  H    0.999538
   132  H    1.000911
   133  H    0.999455
   134  H    1.000263
   135  H    0.999737
   136  H    0.998128
   137  H    0.998353
   138  H    0.998400
   139  H    0.999077
   140  H    0.998547
   141  H    0.999539
   142  H    1.000326
   143  H    0.999907
   144  H    0.999193
   145  H    0.999966
   146  H    1.000482
   147  H    0.999671
   148  H    1.000952
   149  H    0.999952
   150  H    1.000484
   151  H    1.000372
   152  H    1.001786
   153  H    1.001470
   154  H    1.001441
   155  H    1.000763
   156  H    1.000083
   157  H    1.000400
   158  H    1.000451
 Sum of Mulliken charges = 624.00000

 Dipole moment (field-independent basis, Debye):
    X=              8.6179    Y=             -1.5206    Z=              6.7429  Tot=             11.0475
 Quadrupole moment (field-independent basis, Debye-Ang):
   XX=            175.6537   YY=              0.2336   ZZ=             -0.1654
   XY=            -25.0223   XZ=             87.8668   YZ=             -5.0444

 Normal termination of Gaussian 16 at Thu Oct 14 17:08:32 2021.
