 Gaussian 16, Revision A.03,
 Gaussian 16:  ES64L-G16RevA.03 25-Dec-2016

 --------------------------------------------------------
 #p PBE1PBE/Def2SVP td=(nstates=5) density=(transition=1)
 --------------------------------------------------------

 --------------------------------
 TDDFT excited states in gaussian
 --------------------------------
 Symbolic Z-matrix:
 Charge =  0 Multiplicity = 1

                         Standard orientation:
 ---------------------------------------------------------------------
 Center     Atomic      Atomic             Coordinates (Angstroms)
 Number     Number       Type             X           Y           Z
 ---------------------------------------------------------------------
      1         12           0       32.068356    0.007907   -0.302127
      2          6           0       29.754872   -0.976817    2.165870
      3          6           0       32.847560    2.726877    1.576900
      4          6           0       34.188916    0.967739   -2.756081
      5          6           0       30.883986   -2.543704   -2.338076
      6          7           0       31.326108    0.830382    1.567881
      7          6           0       30.460004    0.200766    2.465998
      8          6           0       30.434237    0.968863    3.753219
      9          6           0       31.019859    2.338703    3.335658
     10          6           0       31.797560    1.938202    2.055514
     11          6           0       30.011314    3.482483    3.000409
     12          6           0       31.203343    0.312668    4.961043
     13          6           0       30.435938    0.289693    6.244542
     14          1           0       31.203363    0.708404    7.512504
     15          7           0       33.378549    1.533601   -0.482142
     16          6           0       33.642689    2.543232    0.458295
     17          6           0       34.676730    3.378457   -0.007657
     18          6           0       35.123380    2.880131   -1.320860
     19          6           0       34.253389    1.764177   -1.560248
     20          6           0       35.142197    4.646744    0.645881
     21          6           0       36.197579    3.412425   -2.365680
     22          8           0       36.413664    2.813853   -3.392674
     23          6           0       37.055408    4.630880   -2.055732
     24          7           0       32.395039   -0.630930   -2.314744
     25          6           0       33.322200   -0.043477   -3.114600
     26          6           0       33.325627   -0.738541   -4.559326
     27          6           0       32.475356   -2.061791   -4.318161
     28          6           0       31.859357   -1.741323   -2.890069
     29          6           0       32.758136    0.107719   -5.732321
     30          6           0       33.322310   -3.383991   -4.328553
     31          6           0       32.765457   -4.370467   -5.266888
     32          7           0       30.591891   -1.435871   -0.167431
     33          6           0       30.296688   -2.482753   -1.039366
     34          6           0       29.279143   -3.322068   -0.467692
     35          6           0       29.022066   -2.755213    0.763957
     36          6           0       29.823837   -1.669526    0.925250
     37          6           0       28.764989   -4.605910   -1.169797
     38          6           0       28.204633   -2.853699    1.959210
     39          8           0       27.276396   -3.603321    2.168297
     40          6           0       28.645270   -1.653489    2.935834
     41          6           0       27.474448   -0.796837    3.198869
     42          8           0       26.804087   -0.212059    2.307942
     43          8           0       27.238615   -0.792035    4.542438
     44          6           0       25.890001   -0.296778    4.925819
     45          1           0       33.014822    3.598093    2.213599
     46          1           0       34.831360    1.216423   -3.603159
     47          1           0       30.474029   -3.294653   -3.015908
     48          1           0       29.431160    1.219615    4.100384
     49          1           0       31.679938    2.776397    4.084735
     50          1           0       29.097764    3.455235    3.595805
     51          1           0       29.787758    3.404432    1.936125
     52          1           0       30.409807    4.495437    3.051186
     53          1           0       32.133833    0.874596    5.039544
     54          1           0       31.536449   -0.697919    4.722909
     55          1           0       30.111502   -0.750640    6.272777
     56          1           0       29.618357    1.008670    6.193905
     57          1           0       36.115113    4.596746    1.135290
     58          1           0       34.470268    4.891303    1.467574
     59          1           0       35.196946    5.551172    0.040577
     60          1           0       37.788902    4.683371   -2.859368
     61          1           0       37.449109    4.597699   -1.039437
     62          1           0       36.417944    5.506411   -1.929074
     63          1           0       34.351521   -0.914914   -4.883055
     64          1           0       31.685982   -2.102241   -5.070207
     65          1           0       32.331646    1.076665   -5.470727
     66          1           0       31.968832   -0.402433   -6.285011
     67          1           0       33.584357    0.273621   -6.424163
     68          1           0       33.268926   -3.836913   -3.337845
     69          1           0       34.362736   -3.254657   -4.625984
     70          1           0       33.345641   -4.336465   -6.189397
     71          1           0       31.700272   -4.344785   -5.493980
     72          1           0       32.826496   -5.364099   -4.822824
     73          1           0       29.475320   -4.892257   -1.945750
     74          1           0       27.726124   -4.500831   -1.485891
     75          1           0       28.828069   -5.371809   -0.397699
     76          1           0       29.048952   -2.028513    3.876654
     77          1           0       25.721370   -0.446945    5.992045
     78          1           0       25.193026   -0.979575    4.439416
     79          1           0       25.819487    0.730219    4.566390
     80         12           0      -32.013311    0.508405    0.145426
     81          6           0      -29.295619   -1.612595   -0.369419
     82          6           0      -30.265416    3.053130   -1.388787
     83          6           0      -34.719930    2.296931    0.639074
     84          6           0      -34.062238   -2.448219    0.730932
     85          7           0      -29.894704    0.663451   -0.740061
     86          6           0      -28.968676   -0.332822   -0.872488
     87          6           0      -27.711812    0.185910   -1.475769
     88          6           0      -28.049095    1.686040   -1.842640
     89          6           0      -29.518075    1.867129   -1.293893
     90          6           0      -26.988038    2.719070   -1.386731
     91          6           0      -27.256924   -0.620541   -2.716393
     92          6           0      -25.798052   -1.051902   -2.576832
     93          1           0      -24.828496   -0.697719   -3.744531
     94          7           0      -32.421744    2.435437   -0.288354
     95          6           0      -31.572539    3.366431   -0.884698
     96          6           0      -32.306466    4.625239   -0.870927
     97          6           0      -33.623526    4.440954   -0.240437
     98          6           0      -33.630327    2.995724    0.150123
     99          6           0      -31.839600    5.809732   -1.557114
    100          6           0      -34.650044    5.496649   -0.236738
    101          8           0      -34.482832    6.613201   -0.680902
    102          6           0      -36.051049    5.290623    0.223266
    103          7           0      -34.018645   -0.014119    0.557208
    104          6           0      -34.879403    0.960550    0.994443
    105          6           0      -36.214072    0.349107    1.365138
    106          6           0      -36.107248   -1.059595    0.914171
    107          6           0      -34.690921   -1.203173    0.651531
    108          6           0      -36.662416    0.573755    2.867249
    109          6           0      -36.844494   -1.331423   -0.441921
    110          6           0      -37.371448   -2.676702   -0.642768
    111          7           0      -31.775482   -1.625398    0.215316
    112          6           0      -32.651130   -2.674820    0.523301
    113          6           0      -31.892794   -3.868407    0.731026
    114          6           0      -30.595809   -3.533651    0.360220
    115          6           0      -30.572329   -2.137388    0.006593
    116          6           0      -32.479028   -5.154589    1.183641
    117          6           0      -29.299084   -4.047243    0.161919
    118          8           0      -28.871878   -5.168865    0.321570
    119          6           0      -28.411309   -2.852333   -0.251664
    120          6           0      -27.292834   -2.734026    0.697270
    121          8           0      -27.320751   -2.118404    1.776266
    122          8           0      -26.255886   -3.541195    0.288993
    123          6           0      -24.990332   -3.527854    1.004510
    124          1           0      -29.631450    3.825879   -1.827307
    125          1           0      -35.699837    2.753901    0.798208
    126          1           0      -34.709833   -3.302796    0.937857
    127          1           0      -27.040731    0.310906   -0.625522
    128          1           0      -28.091498    1.873011   -2.915207
    129          1           0      -26.110813    2.092052   -1.222749
    130          1           0      -27.258841    3.360488   -0.548005
    131          1           0      -26.762915    3.403246   -2.204489
    132          1           0      -27.243565   -0.043584   -3.640895
    133          1           0      -27.937360   -1.468451   -2.792730
    134          1           0      -25.930406   -2.132066   -2.636917
    135          1           0      -25.461801   -0.737882   -1.589790
    136          1           0      -30.861567    5.587245   -1.984323
    137          1           0      -31.649261    6.681597   -0.930518
    138          1           0      -32.519377    6.042463   -2.377527
    139          1           0      -35.848592    4.783676    1.166743
    140          1           0      -36.554952    4.628580   -0.481418
    141          1           0      -36.560993    6.241717    0.378010
    142          1           0      -36.919220    0.922618    0.764640
    143          1           0      -36.313182   -1.845080    1.641364
    144          1           0      -36.012476    1.300386    3.355139
    145          1           0      -36.818553   -0.339614    3.442314
    146          1           0      -37.599808    1.121995    2.957022
    147          1           0      -36.181344   -1.071935   -1.267238
    148          1           0      -37.701640   -0.667419   -0.552612
    149          1           0      -38.371253   -2.726653   -0.210129
    150          1           0      -36.713036   -3.444569   -0.235255
    151          1           0      -37.621091   -2.818798   -1.694733
    152          1           0      -33.253740   -4.992451    1.932942
    153          1           0      -31.744064   -5.872009    1.549011
    154          1           0      -33.016413   -5.511858    0.305139
    155          1           0      -27.868458   -3.028916   -1.180324
    156          1           0      -24.933565   -3.989619    1.990288
    157          1           0      -24.614135   -2.506430    1.057959
    158          1           0      -24.340268   -4.156189    0.396779
 ---------------------------------------------------------------------

 SCF Done:  E(RPBE1PBE) =  -4067.37068372     A.U. after   16 cycles

 Excitation energies and oscillator strengths:

 Excited State   1:      Singlet-A      1.8373 eV  674.81 nm  f=0.3524  <S**2>=0.000
     309 -> 315       -0.18256
     311 -> 313        0.68987
     311 <- 313       -0.10421
 This state for optimization and/or second-order correction.
 Total Energy, E(TD-HF/TD-DFT) =  -4067.30316304
 Copying the excited state density for this state as the 1-particle RhoCI density.

 Excited State   2:      Singlet-A      1.8995 eV  652.73 nm  f=0.3784  <S**2>=0.000
     310 -> 316       -0.17451
     312 -> 314        0.69181
     312 <- 314       -0.10894

 Excited State   3:      Singlet-A      1.9885 eV  623.49 nm  f=0.0000  <S**2>=0.000
     312 -> 313        0.70711

 Excited State   4:      Singlet-A      2.0665 eV  599.97 nm  f=0.0000  <S**2>=0.000
     311 -> 314        0.70711

 Excited State   5:      Singlet-A      2.1967 eV  564.42 nm  f=0.0976  <S**2>=0.000
     309 -> 313        0.64584
     311 -> 315        0.27298

 The electronic state is 1-A.
 Alpha  occ. eigenvalues --  -46.92311 -46.90616 -19.26318 -19.25507 -19.19986
 Alpha  occ. eigenvalues --  -19.19785 -19.19568 -19.19375 -19.18618 -19.17580
 Alpha  occ. eigenvalues --  -14.41822 -14.41499 -14.41441 -14.41068 -14.39911
 Alpha  occ. eigenvalues --  -14.38957 -14.38845 -14.38324 -10.36456 -10.36077
 Alpha  occ. eigenvalues --  -10.33390 -10.32303 -10.31343 -10.30795 -10.29392
 Alpha  occ. eigenvalues --  -10.29316 -10.29311 -10.29172 -10.28882 -10.28873
 Alpha  occ. eigenvalues --  -10.28711 -10.28697 -10.28305 -10.28275 -10.28238
 Alpha  occ. eigenvalues --  -10.28193 -10.28170 -10.27687 -10.27422 -10.27021
 Alpha  occ. eigenvalues --  -10.26824 -10.26484 -10.26425 -10.26390 -10.26188
 Alpha  occ. eigenvalues --  -10.26148 -10.26146 -10.26129 -10.26017 -10.25851
 Alpha  occ. eigenvalues --  -10.25781 -10.25740 -10.25730 -10.25671 -10.25586
 Alpha  occ. eigenvalues --  -10.25526 -10.25525 -10.25478 -10.25448 -10.25439
 Alpha  occ. eigenvalues --  -10.25330 -10.25128 -10.25040 -10.24920 -10.24776
 Alpha  occ. eigenvalues --  -10.24752 -10.24522 -10.24452 -10.24280 -10.24098
 Alpha  occ. eigenvalues --  -10.24093 -10.24090 -10.23933 -10.23932 -10.23693
 Alpha  occ. eigenvalues --  -10.23685 -10.23523 -10.23454 -10.23360 -10.22977
 Alpha  occ. eigenvalues --  -10.22811 -10.22503 -10.22465 -10.22245 -10.22197
 Alpha  occ. eigenvalues --  -10.22103  -3.14383  -3.12918  -1.87227  -1.86766
 Alpha  occ. eigenvalues --   -1.86596  -1.85765  -1.85281  -1.85168  -1.10536
 Alpha  occ. eigenvalues --   -1.10192  -1.06352  -1.05186  -1.04839  -1.04562
 Alpha  occ. eigenvalues --   -1.01485  -1.01137  -0.99584  -0.99523  -0.98461
 Alpha  occ. eigenvalues --   -0.98120  -0.97622  -0.97207  -0.96159  -0.95988
 Alpha  occ. eigenvalues --   -0.87014  -0.86997  -0.85102  -0.83845  -0.83462
 Alpha  occ. eigenvalues --   -0.83371  -0.82942  -0.82306  -0.82045  -0.81596
 Alpha  occ. eigenvalues --   -0.81378  -0.80658  -0.80545  -0.80228  -0.79519
 Alpha  occ. eigenvalues --   -0.78857  -0.78559  -0.78125  -0.77731  -0.77192
 Alpha  occ. eigenvalues --   -0.76792  -0.76226  -0.75726  -0.75508  -0.75149
 Alpha  occ. eigenvalues --   -0.75011  -0.73006  -0.72485  -0.72278  -0.71648
 Alpha  occ. eigenvalues --   -0.71405  -0.71109  -0.70614  -0.70053  -0.69733
 Alpha  occ. eigenvalues --   -0.69215  -0.67861  -0.67365  -0.66481  -0.65400
 Alpha  occ. eigenvalues --   -0.63794  -0.63467  -0.63056  -0.62490  -0.62340
 Alpha  occ. eigenvalues --   -0.61971  -0.61857  -0.60925  -0.60903  -0.60405
 Alpha  occ. eigenvalues --   -0.59954  -0.59803  -0.59607  -0.59267  -0.59093
 Alpha  occ. eigenvalues --   -0.58605  -0.56607  -0.56549  -0.55291  -0.54839
 Alpha  occ. eigenvalues --   -0.54612  -0.54068  -0.54002  -0.53854  -0.53628
 Alpha  occ. eigenvalues --   -0.52730  -0.52532  -0.52417  -0.52103  -0.51844
 Alpha  occ. eigenvalues --   -0.50982  -0.50689  -0.50382  -0.50277  -0.50045
 Alpha  occ. eigenvalues --   -0.50032  -0.49730  -0.49492  -0.49013  -0.48814
 Alpha  occ. eigenvalues --   -0.48416  -0.48058  -0.47989  -0.47897  -0.47456
 Alpha  occ. eigenvalues --   -0.47311  -0.47183  -0.47086  -0.46759  -0.46478
 Alpha  occ. eigenvalues --   -0.46449  -0.46447  -0.46328  -0.46269  -0.45961
 Alpha  occ. eigenvalues --   -0.45864  -0.45808  -0.45772  -0.45471  -0.45005
 Alpha  occ. eigenvalues --   -0.45004  -0.44673  -0.44642  -0.44358  -0.44186
 Alpha  occ. eigenvalues --   -0.44095  -0.44049  -0.44003  -0.43766  -0.43562
 Alpha  occ. eigenvalues --   -0.43476  -0.43365  -0.43217  -0.43095  -0.42664
 Alpha  occ. eigenvalues --   -0.42411  -0.42291  -0.41946  -0.41829  -0.41715
 Alpha  occ. eigenvalues --   -0.41488  -0.41436  -0.41334  -0.41266  -0.41174
 Alpha  occ. eigenvalues --   -0.41018  -0.40875  -0.40805  -0.40574  -0.40512
 Alpha  occ. eigenvalues --   -0.40491  -0.40103  -0.40075  -0.39851  -0.39742
 Alpha  occ. eigenvalues --   -0.39503  -0.39457  -0.39319  -0.39235  -0.39225
 Alpha  occ. eigenvalues --   -0.39145  -0.38868  -0.38511  -0.38273  -0.38210
 Alpha  occ. eigenvalues --   -0.38170  -0.38084  -0.37882  -0.37862  -0.37804
 Alpha  occ. eigenvalues --   -0.37648  -0.37458  -0.37406  -0.37031  -0.36950
 Alpha  occ. eigenvalues --   -0.36769  -0.36727  -0.36602  -0.36353  -0.36139
 Alpha  occ. eigenvalues --   -0.36116  -0.36048  -0.35860  -0.35578  -0.35345
 Alpha  occ. eigenvalues --   -0.35142  -0.34898  -0.34085  -0.34075  -0.33783
 Alpha  occ. eigenvalues --   -0.33513  -0.33351  -0.32844  -0.32840  -0.32670
 Alpha  occ. eigenvalues --   -0.32306  -0.32012  -0.31744  -0.31402  -0.31387
 Alpha  occ. eigenvalues --   -0.31231  -0.31061  -0.29521  -0.29488  -0.29132
 Alpha  occ. eigenvalues --   -0.28913  -0.28586  -0.28215  -0.27021  -0.26942
 Alpha  occ. eigenvalues --   -0.26475  -0.25897  -0.25686  -0.25634  -0.25477
 Alpha  occ. eigenvalues --   -0.25144  -0.25044  -0.24318  -0.21252  -0.20926
 Alpha  occ. eigenvalues --   -0.19213  -0.19120
 Alpha virt. eigenvalues --   -0.11605  -0.11413  -0.05959  -0.04838  -0.03938
 Alpha virt. eigenvalues --   -0.03550  -0.02038  -0.01687  -0.00189  -0.00178
 Alpha virt. eigenvalues --   -0.00043   0.00671   0.00753   0.01232   0.01444

 Mulliken charges:
               1
     1  Mg  12.000004
     2  C    5.999955
     3  C    6.000034
     4  C    6.000058
     5  C    5.999942
     6  N    6.999962
     7  C    6.000099
     8  C    5.999987
     9  C    6.000002
    10  C    5.999915
    11  C    6.000008
    12  C    6.000001
    13  C    5.999993
    14  H    1.000010
    15  N    6.999957
    16  C    5.999900
    17  C    5.999961
    18  C    5.999954
    19  C    5.999956
    20  C    6.000060
    21  C    5.999963
    22  O    7.999960
    23  C    6.000002
    24  N    7.000035
    25  C    5.999932
    26  C    6.000002
    27  C    5.999996
    28  C    6.000083
    29  C    6.000000
    30  C    5.999992
    31  C    5.999998
    32  N    7.000058
    33  C    6.000093
    34  C    5.999985
    35  C    6.000034
    36  C    6.000092
    37  C    5.999977
    38  C    6.000096
    39  O    7.999980
    40  C    6.000002
    41  C    6.000013
    42  O    8.000002
    43  O    8.000005
    44  C    5.999995
    45  H    0.999957
    46  H    0.999982
    47  H    1.000044
    48  H    1.000006
    49  H    0.999993
    50  H    0.999970
    51  H    0.999997
    52  H    0.999994
    53  H    1.000017
    54  H    0.999998
    55  H    1.000002
    56  H    1.000003
    57  H    0.999941
    58  H    0.999955
    59  H    0.999940
    60  H    0.999966
    61  H    0.999988
    62  H    0.999976
    63  H    1.000001
    64  H    1.000005
    65  H    0.999999
    66  H    0.999986
    67  H    0.999997
    68  H    0.999994
    69  H    1.000021
    70  H    1.000011
    71  H    1.000001
    72  H    1.000007
    73  H    1.000039
    74  H    1.000059
    75  H    1.000055
    76  H    1.000015
    77  H    1.000013
    78  H    1.000009
    79  H    1.000002
    80  Mg  12.001388
    81  C    6.013230
    82  C    5.986667
    83  C    5.982816
    84  C    6.015286
    85  N    7.004344
    86  C    5.969913
    87  C    6.012482
    88  C    5.992532
    89  C    6.026692
    90  C    5.997316
    91  C    6.000992
    92  C    6.001198
    93  H    0.992653
    94  N    6.991569
    95  C    6.040667
    96  C    6.021713
    97  C    6.010943
    98  C    6.036235
    99  C    5.990624
   100  C    6.006872
   101  O    8.017582
   102  C    5.999623
   103  N    7.006146
   104  C    6.032057
   105  C    5.992756
   106  C    6.006643
   107  C    5.964856
   108  C    5.999270
   109  C    6.006253
   110  C    6.000965
   111  N    7.002240
   112  C    5.961322
   113  C    5.975162
   114  C    5.996755
   115  C    5.970136
   116  C    6.000481
   117  C    5.981769
   118  O    7.969356
   119  C    6.002946
   120  C    5.995195
   121  O    7.991630
   122  O    8.000394
   123  C    6.003145
   124  H    1.009536
   125  H    1.010528
   126  H    0.991137
   127  H    0.996866
   128  H    1.000555
   129  H    1.011033
   130  H    0.997442
   131  H    0.999716
   132  H    0.992962
   133  H    1.006663
   134  H    1.004034
   135  H    0.999520
   136  H    1.018345
   137  H    1.020702
   138  H    1.018844
   139  H    1.005655
   140  H    1.009831
   141  H    1.011391
   142  H    0.999055
   143  H    1.002506
   144  H    0.997566
   145  H    1.011622
   146  H    1.001578
   147  H    0.995121
   148  H    0.986677
   149  H    0.995056
   150  H    1.005655
   151  H    0.996603
   152  H    0.982579
   153  H    0.987497
   154  H    0.982695
   155  H    0.990818
   156  H    0.997184
   157  H    0.993982
   158  H    0.996223
 Sum of Mulliken charges = 624.00000

 Dipole moment (field-independent basis, Debye):
    X=             -2.1804    Y=              9.7676    Z=             -0.9975  Tot=             10.0576
 Quadrupole moment (field-independent basis, Debye-Ang):
   XX=            133.5490   YY=              7.9810   ZZ=              0.8461
   XY=           -314.7889   XZ=             30.1163   YZ=             -1.1850

 Normal termination of Gaussian 16 at Thu Oct 14 02:15:02 2021.
