 Gaussian 16, Revision A.03,
 Gaussian 16:  ES64L-G16RevA.03 25-Dec-2016

 --------------------------------------------------------
 #p PBE1PBE/Def2SVP td=(nstates=5) density=(transition=1)
 --------------------------------------------------------

 --------------------------------
 TDDFT excited states in gaussian
 --------------------------------
 Symbolic Z-matrix:
 Charge =  0 Multiplicity = 1

                         Standard orientation:
 ---------------------------------------------------------------------
 Center     Atomic      Atomic             Coordinates (Angstroms)
 Number     Number       Type             X           Y           Z
 ---------------------------------------------------------------------
      1         12           0       20.350249   -0.780933    0.014875
      2          6           0       19.531491    2.479217   -1.257761
      3          6           0       21.707326    0.901586    2.825276
      4          6           0       21.357169   -3.835299    1.376224
      5          6           0       19.403004   -2.227849   -2.843353
      6          7           0       20.756044    1.539122    0.574398
      7          6           0       20.223856    2.612847   -0.047853
      8          6           0       20.655132    3.929202    0.693359
      9          6           0       21.522221    3.329830    1.857643
     10          6           0       21.266386    1.805639    1.821222
     11          6           0       23.037181    3.717120    1.733260
     12          6           0       19.473150    4.755387    1.199923
     13          6           0       19.554385    6.229903    0.976752
     14          1           0       18.355721    7.104409    1.372154
     15          7           0       21.178159   -1.419619    1.883242
     16          6           0       21.665134   -0.567540    2.868863
     17          6           0       22.144675   -1.380236    3.969115
     18          6           0       21.973415   -2.716543    3.647674
     19          6           0       21.549865   -2.714228    2.206845
     20          6           0       22.851599   -0.846744    5.181862
     21          6           0       22.332037   -4.035687    4.446836
     22          8           0       22.155447   -5.178181    4.100953
     23          6           0       22.802959   -3.907188    5.879304
     24          7           0       20.529832   -2.687087   -0.644211
     25          6           0       20.948564   -3.808701    0.022900
     26          6           0       21.059041   -5.036871   -0.910505
     27          6           0       20.207912   -4.588226   -2.173702
     28          6           0       20.005719   -3.059568   -1.846626
     29          6           0       22.536730   -5.448270   -1.206720
     30          6           0       18.859945   -5.351382   -2.350348
     31          6           0       17.797725   -5.073175   -1.289170
     32          7           0       19.654946   -0.108782   -1.706086
     33          6           0       19.215303   -0.840808   -2.844131
     34          6           0       18.721064    0.065628   -3.878211
     35          6           0       18.780698    1.335681   -3.276954
     36          6           0       19.330980    1.200880   -1.974824
     37          6           0       18.220825   -0.320175   -5.192338
     38          6           0       18.486856    2.738229   -3.553026
     39          8           0       17.956900    3.242311   -4.529002
     40          6           0       19.046176    3.573428   -2.279386
     41          6           0       17.784565    4.360580   -1.916863
     42          8           0       16.737342    3.942796   -1.390643
     43          8           0       17.934663    5.611390   -2.316537
     44          6           0       16.958272    6.668941   -1.830565
     45          1           0       22.054226    1.426307    3.717562
     46          1           0       21.645459   -4.833215    1.715723
     47          1           0       19.043903   -2.772820   -3.718519
     48          1           0       21.148219    4.519311   -0.078396
     49          1           0       21.165581    3.657329    2.835116
     50          1           0       23.477490    4.208274    2.601012
     51          1           0       23.291314    4.223714    0.802004
     52          1           0       23.744348    2.887638    1.711393
     53          1           0       19.677940    4.772374    2.270524
     54          1           0       18.506183    4.298359    0.986802
     55          1           0       19.840311    6.617922   -0.002235
     56          1           0       20.362368    6.531272    1.643507
     57          1           0       22.802251    0.241017    5.224064
     58          1           0       23.903329   -1.124803    5.265957
     59          1           0       22.431651   -1.146644    6.142108
     60          1           0       22.066355   -3.417781    6.516390
     61          1           0       23.735527   -3.357707    5.750510
     62          1           0       23.091923   -4.926310    6.136257
     63          1           0       20.662518   -5.853710   -0.306447
     64          1           0       20.741595   -4.447230   -3.113857
     65          1           0       22.807707   -6.399934   -0.749621
     66          1           0       23.323351   -4.721359   -1.007467
     67          1           0       22.511850   -5.529784   -2.293534
     68          1           0       19.101300   -6.384345   -2.601410
     69          1           0       18.408546   -4.997488   -3.277068
     70          1           0       18.114270   -4.457102   -0.448318
     71          1           0       17.530552   -6.048808   -0.883903
     72          1           0       16.943661   -4.481706   -1.617068
     73          1           0       17.903284    0.507874   -5.826381
     74          1           0       17.380607   -0.983986   -4.989031
     75          1           0       19.000958   -0.906181   -5.680297
     76          1           0       19.764631    4.339922   -2.569865
     77          1           0       17.449810    7.625755   -2.008003
     78          1           0       16.786260    6.625549   -0.755526
     79          1           0       15.975321    6.600986   -2.298156
     80         12           0      -20.584579   -0.682042   -0.201302
     81          6           0      -18.497153    2.114292    0.035565
     82          6           0      -23.190872    1.435428    0.671366
     83          6           0      -22.454887   -3.333730    0.003076
     84          6           0      -17.713040   -2.650995   -0.850272
     85          7           0      -20.754873    1.491866    0.702014
     86          6           0      -19.810014    2.421556    0.527833
     87          6           0      -20.393451    3.740001    0.912486
     88          6           0      -21.772875    3.405057    1.531010
     89          6           0      -21.964985    2.030795    0.920843
     90          6           0      -21.951561    3.422902    3.050126
     91          6           0      -20.523751    4.700114   -0.312286
     92          6           0      -19.985261    6.162173   -0.189850
     93          1           0      -19.991073    6.860806    1.205600
     94          7           0      -22.629350   -0.902862    0.136205
     95          6           0      -23.529702    0.143210    0.288724
     96          6           0      -24.828360   -0.444768    0.346594
     97          6           0      -24.646864   -1.884424    0.283403
     98          6           0      -23.219911   -2.121692    0.124046
     99          6           0      -26.137817    0.340443    0.578680
    100          6           0      -25.693193   -3.027524    0.421399
    101          8           0      -25.433876   -4.188063    0.373248
    102          6           0      -27.138276   -2.591039    0.561411
    103          7           0      -20.114044   -2.677636   -0.413257
    104          6           0      -21.076330   -3.605924   -0.214090
    105          6           0      -20.585116   -5.069881   -0.384710
    106          6           0      -19.115267   -4.802039   -0.925750
    107          6           0      -18.942591   -3.296820   -0.760404
    108          6           0      -20.692990   -5.883397    1.030630
    109          6           0      -18.851206   -5.392642   -2.346407
    110          6           0      -18.961348   -4.456176   -3.536301
    111          7           0      -18.487724   -0.399535   -0.426739
    112          6           0      -17.484662   -1.264873   -0.771143
    113          6           0      -16.203920   -0.480599   -0.870817
    114          6           0      -16.579366    0.845990   -0.560310
    115          6           0      -17.979513    0.866092   -0.250161
    116          6           0      -14.809333   -1.013044   -1.059034
    117          6           0      -16.091243    2.213812   -0.402640
    118          8           0      -14.935795    2.627540   -0.534329
    119          6           0      -17.333590    3.070944   -0.179130
    120          6           0      -17.037327    3.907957    1.032194
    121          8           0      -17.086930    3.517214    2.184093
    122          8           0      -16.542813    5.045284    0.571788
    123          6           0      -15.788944    5.888069    1.486625
    124          1           0      -23.984824    2.061401    1.082848
    125          1           0      -23.091628   -4.212979   -0.112301
    126          1           0      -16.830376   -3.257343   -1.065504
    127          1           0      -19.731443    4.214485    1.636161
    128          1           0      -22.456580    4.173913    1.170902
    129          1           0      -21.082880    3.722580    3.636645
    130          1           0      -22.266251    2.440751    3.404006
    131          1           0      -22.757788    4.128744    3.248612
    132          1           0      -21.528862    4.735996   -0.731963
    133          1           0      -19.917749    4.145197   -1.028344
    134          1           0      -20.635610    6.726033   -0.859776
    135          1           0      -18.964121    6.188114   -0.569390
    136          1           0      -26.729520   -0.044483    1.409292
    137          1           0      -26.834914    0.237699   -0.253090
    138          1           0      -26.001669    1.412597    0.726327
    139          1           0      -27.442614   -1.882393   -0.209126
    140          1           0      -27.274387   -2.200980    1.570164
    141          1           0      -27.795391   -3.460283    0.587507
    142          1           0      -21.169907   -5.624438   -1.118390
    143          1           0      -18.346112   -5.300839   -0.336258
    144          1           0      -19.658096   -6.000088    1.352588
    145          1           0      -21.035529   -6.911998    0.915562
    146          1           0      -21.187246   -5.326641    1.827568
    147          1           0      -19.674550   -6.092070   -2.492012
    148          1           0      -17.915987   -5.949550   -2.400287
    149          1           0      -19.862974   -3.877488   -3.331902
    150          1           0      -19.068834   -5.167730   -4.354647
    151          1           0      -18.207111   -3.690723   -3.716995
    152          1           0      -14.657490   -2.092450   -1.063633
    153          1           0      -14.171304   -0.633451   -0.260830
    154          1           0      -14.447961   -0.539193   -1.971165
    155          1           0      -17.505583    3.833521   -0.938988
    156          1           0      -15.560254    5.535531    2.491860
    157          1           0      -16.461202    6.733592    1.635639
    158          1           0      -15.060805    6.452909    0.904368
 ---------------------------------------------------------------------

 SCF Done:  E(RPBE1PBE) =  -4067.35994750     A.U. after   16 cycles

 Excitation energies and oscillator strengths:

 Excited State   1:      Singlet-A      1.8203 eV  681.13 nm  f=0.3593  <S**2>=0.000
     309 -> 315       -0.17694
     312 -> 313        0.69233
     312 <- 313       -0.10909
 This state for optimization and/or second-order correction.
 Total Energy, E(TD-HF/TD-DFT) =  -4067.29305362
 Copying the excited state density for this state as the 1-particle RhoCI density.

 Excited State   2:      Singlet-A      1.8765 eV  660.73 nm  f=0.3863  <S**2>=0.000
     310 -> 316        0.18224
     311 -> 314        0.69069
     311 <- 314       -0.10327

 Excited State   3:      Singlet-A      1.9640 eV  631.29 nm  f=0.0000  <S**2>=0.000
     311 -> 313        0.70711

 Excited State   4:      Singlet-A      1.9973 eV  620.76 nm  f=0.0000  <S**2>=0.000
     312 -> 314        0.70710

 Excited State   5:      Singlet-A      2.2078 eV  561.58 nm  f=0.0937  <S**2>=0.000
     310 -> 314        0.65476
     311 -> 316       -0.25276

 The electronic state is 1-A.
 Alpha  occ. eigenvalues --  -46.92154 -46.91697 -19.26780 -19.25561 -19.19725
 Alpha  occ. eigenvalues --  -19.19638 -19.19613 -19.19363 -19.18963 -19.18255
 Alpha  occ. eigenvalues --  -14.41946 -14.41363 -14.41098 -14.40958 -14.39715
 Alpha  occ. eigenvalues --  -14.39400 -14.38852 -14.38508 -10.36002 -10.35497
 Alpha  occ. eigenvalues --  -10.32670 -10.32591 -10.32369 -10.31771 -10.29409
 Alpha  occ. eigenvalues --  -10.29219 -10.29183 -10.29072 -10.28968 -10.28813
 Alpha  occ. eigenvalues --  -10.28805 -10.28665 -10.28654 -10.28642 -10.28272
 Alpha  occ. eigenvalues --  -10.28081 -10.27818 -10.27661 -10.27591 -10.27427
 Alpha  occ. eigenvalues --  -10.26924 -10.26918 -10.26803 -10.26731 -10.26652
 Alpha  occ. eigenvalues --  -10.26535 -10.26398 -10.26288 -10.26285 -10.26221
 Alpha  occ. eigenvalues --  -10.26198 -10.26186 -10.25974 -10.25971 -10.25933
 Alpha  occ. eigenvalues --  -10.25844 -10.25829 -10.25727 -10.25378 -10.25157
 Alpha  occ. eigenvalues --  -10.24903 -10.24856 -10.24814 -10.24689 -10.24475
 Alpha  occ. eigenvalues --  -10.24300 -10.24291 -10.24265 -10.24251 -10.24208
 Alpha  occ. eigenvalues --  -10.24197 -10.23925 -10.23750 -10.23725 -10.23680
 Alpha  occ. eigenvalues --  -10.23640 -10.23557 -10.23511 -10.23453 -10.23261
 Alpha  occ. eigenvalues --  -10.23198 -10.22947 -10.22876 -10.22803 -10.22615
 Alpha  occ. eigenvalues --  -10.22434  -3.14194  -3.13964  -1.87043  -1.86790
 Alpha  occ. eigenvalues --   -1.86604  -1.86377  -1.86355  -1.86193  -1.12996
 Alpha  occ. eigenvalues --   -1.10719  -1.06270  -1.06129  -1.04808  -1.04091
 Alpha  occ. eigenvalues --   -1.03324  -1.00082  -0.99574  -0.98371  -0.98370
 Alpha  occ. eigenvalues --   -0.97722  -0.97153  -0.96846  -0.96662  -0.96360
 Alpha  occ. eigenvalues --   -0.87543  -0.85199  -0.83468  -0.83003  -0.82995
 Alpha  occ. eigenvalues --   -0.82837  -0.82381  -0.82270  -0.81691  -0.81399
 Alpha  occ. eigenvalues --   -0.81221  -0.80738  -0.80405  -0.79833  -0.78721
 Alpha  occ. eigenvalues --   -0.78371  -0.77963  -0.77843  -0.76853  -0.76619
 Alpha  occ. eigenvalues --   -0.75716  -0.75638  -0.75313  -0.75088  -0.74480
 Alpha  occ. eigenvalues --   -0.74277  -0.72406  -0.72213  -0.71594  -0.71584
 Alpha  occ. eigenvalues --   -0.71309  -0.71230  -0.70571  -0.70258  -0.69479
 Alpha  occ. eigenvalues --   -0.69465  -0.67058  -0.67038  -0.66165  -0.66068
 Alpha  occ. eigenvalues --   -0.64390  -0.63844  -0.63286  -0.63146  -0.62354
 Alpha  occ. eigenvalues --   -0.61947  -0.60638  -0.60598  -0.59871  -0.59697
 Alpha  occ. eigenvalues --   -0.59604  -0.59422  -0.59151  -0.59119  -0.58848
 Alpha  occ. eigenvalues --   -0.58633  -0.57275  -0.56380  -0.54381  -0.54169
 Alpha  occ. eigenvalues --   -0.54094  -0.53905  -0.53739  -0.53465  -0.53079
 Alpha  occ. eigenvalues --   -0.52372  -0.52351  -0.51947  -0.51842  -0.51366
 Alpha  occ. eigenvalues --   -0.50626  -0.50554  -0.50258  -0.49978  -0.49616
 Alpha  occ. eigenvalues --   -0.49462  -0.49356  -0.49179  -0.49135  -0.48487
 Alpha  occ. eigenvalues --   -0.48127  -0.47812  -0.47792  -0.47718  -0.47512
 Alpha  occ. eigenvalues --   -0.47429  -0.47243  -0.47180  -0.46942  -0.46623
 Alpha  occ. eigenvalues --   -0.46496  -0.46255  -0.46184  -0.45891  -0.45721
 Alpha  occ. eigenvalues --   -0.45555  -0.45469  -0.45444  -0.44699  -0.44630
 Alpha  occ. eigenvalues --   -0.44371  -0.44260  -0.44188  -0.43938  -0.43861
 Alpha  occ. eigenvalues --   -0.43828  -0.43757  -0.43545  -0.43446  -0.43248
 Alpha  occ. eigenvalues --   -0.43201  -0.43055  -0.43048  -0.42798  -0.42727
 Alpha  occ. eigenvalues --   -0.42632  -0.42222  -0.42136  -0.41903  -0.41528
 Alpha  occ. eigenvalues --   -0.41484  -0.41334  -0.41116  -0.41046  -0.40899
 Alpha  occ. eigenvalues --   -0.40828  -0.40678  -0.40595  -0.40551  -0.40355
 Alpha  occ. eigenvalues --   -0.40280  -0.40239  -0.39908  -0.39885  -0.39684
 Alpha  occ. eigenvalues --   -0.39663  -0.39541  -0.39207  -0.39156  -0.38985
 Alpha  occ. eigenvalues --   -0.38802  -0.38454  -0.38400  -0.38234  -0.38107
 Alpha  occ. eigenvalues --   -0.38017  -0.37921  -0.37902  -0.37857  -0.37753
 Alpha  occ. eigenvalues --   -0.37684  -0.37521  -0.37212  -0.37001  -0.36955
 Alpha  occ. eigenvalues --   -0.36715  -0.36658  -0.36487  -0.36215  -0.36072
 Alpha  occ. eigenvalues --   -0.35970  -0.35715  -0.35537  -0.35250  -0.35125
 Alpha  occ. eigenvalues --   -0.35119  -0.34528  -0.34516  -0.34252  -0.34009
 Alpha  occ. eigenvalues --   -0.33548  -0.33249  -0.33042  -0.32513  -0.32154
 Alpha  occ. eigenvalues --   -0.32108  -0.31708  -0.31703  -0.31291  -0.31164
 Alpha  occ. eigenvalues --   -0.31065  -0.30644  -0.29424  -0.29095  -0.29074
 Alpha  occ. eigenvalues --   -0.28657  -0.28505  -0.27613  -0.26902  -0.26458
 Alpha  occ. eigenvalues --   -0.26066  -0.25989  -0.25828  -0.25667  -0.25508
 Alpha  occ. eigenvalues --   -0.25384  -0.25348  -0.24714  -0.21027  -0.20693
 Alpha  occ. eigenvalues --   -0.18682  -0.18623
 Alpha virt. eigenvalues --   -0.11143  -0.10957  -0.05482  -0.04984  -0.03918
 Alpha virt. eigenvalues --   -0.03579  -0.02042  -0.01593   0.00033   0.00618
 Alpha virt. eigenvalues --    0.00876   0.01107   0.01245   0.01374   0.01528

 Mulliken charges:
               1
     1  Mg  11.999782
     2  C    6.016871
     3  C    5.985458
     4  C    5.979065
     5  C    6.000769
     6  N    7.009050
     7  C    5.974038
     8  C    6.004590
     9  C    5.994254
    10  C    6.029836
    11  C    5.998066
    12  C    6.005033
    13  C    6.001634
    14  H    0.999863
    15  N    6.995548
    16  C    6.041664
    17  C    6.015553
    18  C    6.016921
    19  C    6.034091
    20  C    5.994688
    21  C    6.012527
    22  O    8.025435
    23  C    5.996878
    24  N    6.988794
    25  C    6.037166
    26  C    5.993828
    27  C    6.003943
    28  C    5.968897
    29  C    5.995515
    30  C    6.004858
    31  C    6.005512
    32  N    7.002285
    33  C    5.967482
    34  C    5.971497
    35  C    5.997589
    36  C    5.970365
    37  C    6.000486
    38  C    5.984346
    39  O    7.973148
    40  C    5.998009
    41  C    5.996613
    42  O    7.994745
    43  O    7.999869
    44  C    6.001892
    45  H    1.010044
    46  H    1.006266
    47  H    0.988283
    48  H    1.003614
    49  H    0.998705
    50  H    1.002536
    51  H    1.011716
    52  H    0.997670
    53  H    0.991461
    54  H    1.003506
    55  H    1.003251
    56  H    0.994739
    57  H    1.016041
    58  H    1.018546
    59  H    1.017355
    60  H    1.007245
    61  H    1.004735
    62  H    1.013103
    63  H    0.997233
    64  H    1.002144
    65  H    0.999456
    66  H    0.998459
    67  H    1.012152
    68  H    0.990484
    69  H    1.003932
    70  H    0.989732
    71  H    0.992166
    72  H    1.003807
    73  H    0.986519
    74  H    0.982983
    75  H    0.982988
    76  H    0.991566
    77  H    0.995686
    78  H    0.994948
    79  H    0.998479
    80  Mg  11.999975
    81  C    5.999879
    82  C    6.000181
    83  C    6.000034
    84  C    5.999776
    85  N    7.000007
    86  C    6.000252
    87  C    5.999965
    88  C    6.000064
    89  C    5.999703
    90  C    6.000014
    91  C    5.999983
    92  C    5.999999
    93  H    1.000003
    94  N    7.000052
    95  C    5.999641
    96  C    5.999845
    97  C    5.999849
    98  C    5.999791
    99  C    6.000067
   100  C    5.999825
   101  O    7.999765
   102  C    6.000085
   103  N    6.999970
   104  C    5.999750
   105  C    6.000100
   106  C    5.999904
   107  C    6.000321
   108  C    6.000054
   109  C    5.999993
   110  C    5.999940
   111  N    6.999988
   112  C    6.000334
   113  C    6.000275
   114  C    5.999994
   115  C    6.000257
   116  C    5.999948
   117  C    6.000238
   118  O    8.000315
   119  C    5.999950
   120  C    6.000055
   121  O    8.000029
   122  O    8.000021
   123  C    5.999960
   124  H    0.999879
   125  H    0.999924
   126  H    1.000094
   127  H    0.999999
   128  H    0.999968
   129  H    0.999878
   130  H    1.000013
   131  H    0.999955
   132  H    1.000102
   133  H    0.999970
   134  H    1.000039
   135  H    0.999995
   136  H    0.999819
   137  H    0.999834
   138  H    0.999843
   139  H    0.999951
   140  H    0.999899
   141  H    0.999837
   142  H    0.999984
   143  H    1.000000
   144  H    0.999890
   145  H    0.999938
   146  H    0.999994
   147  H    1.000061
   148  H    1.000024
   149  H    1.000068
   150  H    1.000054
   151  H    0.999982
   152  H    1.000178
   153  H    1.000163
   154  H    1.000238
   155  H    1.000132
   156  H    1.000007
   157  H    1.000043
   158  H    1.000097
 Sum of Mulliken charges = 624.00000

 Dipole moment (field-independent basis, Debye):
    X=              4.4853    Y=             -2.6976    Z=              8.7583  Tot=             10.2031
 Quadrupole moment (field-independent basis, Debye-Ang):
   XX=            174.8158   YY=              1.9236   ZZ=              2.4592
   XY=            -58.3665   XZ=            180.1777   YZ=             -7.7265

 Normal termination of Gaussian 16 at Thu Oct 14 17:14:50 2021.
