 Gaussian 16, Revision A.03,
 Gaussian 16:  ES64L-G16RevA.03 25-Dec-2016

 --------------------------------------------------------
 #p PBE1PBE/Def2SVP td=(nstates=5) density=(transition=1)
 --------------------------------------------------------

 --------------------------------
 TDDFT excited states in gaussian
 --------------------------------
 Symbolic Z-matrix:
 Charge =  0 Multiplicity = 1

                         Standard orientation:
 ---------------------------------------------------------------------
 Center     Atomic      Atomic             Coordinates (Angstroms)
 Number     Number       Type             X           Y           Z
 ---------------------------------------------------------------------
      1         12           0        5.055789    0.644779    0.285651
      2          6           0        3.080846   -2.170295    0.780478
      3          6           0        7.614446   -1.545906   -0.541299
      4          6           0        7.140183    3.332066    0.291085
      5          6           0        2.420829    2.636012    1.309307
      6          7           0        5.323836   -1.606606    0.192725
      7          6           0        4.362295   -2.583549    0.401614
      8          6           0        4.917018   -4.058025    0.291716
      9          6           0        6.461795   -3.755785    0.182202
     10          6           0        6.500732   -2.198008   -0.033808
     11          6           0        7.422008   -4.126405    1.316281
     12          6           0        4.279209   -4.797590   -0.898609
     13          6           0        3.269761   -5.868827   -0.579821
     14          1           0        3.273794   -7.116017   -1.481523
     15          7           0        7.036476    0.936279   -0.253363
     16          6           0        7.846445   -0.090998   -0.625286
     17          6           0        9.160352    0.523782   -0.897476
     18          6           0        9.095411    1.888853   -0.577240
     19          6           0        7.763902    2.133499   -0.178402
     20          6           0       10.244645   -0.251939   -1.528310
     21          6           0       10.168657    2.937628   -0.589651
     22          8           0        9.946648    4.162829   -0.381788
     23          6           0       11.553869    2.658645   -0.803711
     24          7           0        4.807614    2.650637    0.645919
     25          6           0        5.800778    3.577404    0.560632
     26          6           0        5.360924    4.949054    0.891927
     27          6           0        3.825367    4.761305    1.165131
     28          6           0        3.700607    3.285722    1.095084
     29          6           0        6.024986    5.813403    2.003887
     30          6           0        2.846003    5.616386    0.218496
     31          6           0        2.395891    5.137043   -1.193513
     32          7           0        3.155001    0.371521    0.958423
     33          6           0        2.184542    1.268229    1.301734
     34          6           0        0.961094    0.613620    1.468682
     35          6           0        1.322638   -0.783578    1.350778
     36          6           0        2.659248   -0.859565    1.013303
     37          6           0       -0.413662    1.235407    1.707136
     38          6           0        0.732406   -2.090734    1.312599
     39          8           0       -0.403640   -2.515540    1.369919
     40          6           0        1.941465   -3.079332    1.162683
     41          6           0        2.175837   -3.782812    2.439337
     42          8           0        3.171294   -3.656398    3.185889
     43          8           0        1.179635   -4.616394    2.810534
     44          6           0        1.392499   -5.566046    3.955588
     45          1           0        8.431755   -2.241994   -0.737893
     46          1           0        7.764463    4.226504    0.346614
     47          1           0        1.501990    3.204030    1.472232
     48          1           0        4.911394   -4.571584    1.253705
     49          1           0        6.786850   -4.240590   -0.738292
     50          1           0        7.789423   -3.225037    1.807409
     51          1           0        8.319564   -4.513081    0.835860
     52          1           0        7.025629   -4.816366    2.062023
     53          1           0        5.108565   -5.307928   -1.389727
     54          1           0        3.900116   -4.051618   -1.597116
     55          1           0        2.280689   -5.415813   -0.652682
     56          1           0        3.296028   -6.251816    0.440437
     57          1           0       10.426220    0.248032   -2.478834
     58          1           0       10.108756   -1.318219   -1.713650
     59          1           0       11.147720   -0.174075   -0.922976
     60          1           0       11.765450    1.781198   -0.193194
     61          1           0       12.153318    3.560590   -0.687124
     62          1           0       11.727666    2.283161   -1.812161
     63          1           0        5.536743    5.422484   -0.073579
     64          1           0        3.609529    5.026269    2.199501
     65          1           0        6.532076    6.687388    1.595000
     66          1           0        6.793679    5.250295    2.534235
     67          1           0        5.330283    6.123692    2.784323
     68          1           0        3.432097    6.519611    0.047517
     69          1           0        2.026295    5.812266    0.909899
     70          1           0        2.657853    4.109353   -1.443836
     71          1           0        2.609944    5.814829   -2.020372
     72          1           0        1.310078    5.210750   -1.149289
     73          1           0       -0.878282    0.859179    2.619156
     74          1           0       -1.061862    0.917773    0.890569
     75          1           0       -0.428838    2.325360    1.683369
     76          1           0        1.621053   -3.883194    0.499706
     77          1           0        0.538752   -6.211314    3.748119
     78          1           0        1.358571   -5.111845    4.945321
     79          1           0        2.354004   -6.067866    3.842689
     80         12           0       -5.149892    0.551260   -0.249028
     81          6           0       -3.116830   -2.059934   -1.481321
     82          6           0       -7.646016   -1.698072    0.373892
     83          6           0       -7.177430    3.105935    0.233478
     84          6           0       -2.685247    2.834562   -1.388286
     85          7           0       -5.282246   -1.659285   -0.430391
     86          6           0       -4.356909   -2.456527   -0.926705
     87          6           0       -4.710385   -3.885129   -0.554481
     88          6           0       -6.277719   -3.835397   -0.384878
     89          6           0       -6.450872   -2.291118   -0.133087
     90          6           0       -7.011287   -4.456640   -1.633752
     91          6           0       -4.066990   -4.326730    0.785107
     92          6           0       -3.945522   -5.898234    1.007651
     93          1           0       -4.465826   -6.904838   -0.022004
     94          7           0       -7.037771    0.682241    0.422863
     95          6           0       -7.946492   -0.367028    0.715090
     96          6           0       -9.186065    0.232911    1.261573
     97          6           0       -9.070007    1.664005    1.137769
     98          6           0       -7.724834    1.923958    0.580519
     99          6           0      -10.313842   -0.560491    1.820810
    100          6           0      -10.039078    2.854742    1.503788
    101          8           0       -9.733746    4.051622    1.412802
    102          6           0      -11.462749    2.530718    1.852937
    103          7           0       -5.000563    2.697910   -0.646849
    104          6           0       -5.947457    3.532985   -0.310404
    105          6           0       -5.630486    4.985524   -0.531249
    106          6           0       -4.159293    4.920458   -1.073156
    107          6           0       -3.869710    3.390464   -0.953107
    108          6           0       -6.699770    5.679024   -1.380483
    109          6           0       -3.149434    5.736329   -0.275859
    110          6           0       -2.057456    6.507518   -1.100517
    111          7           0       -3.195756    0.490113   -1.190449
    112          6           0       -2.302192    1.518487   -1.548704
    113          6           0       -1.071110    0.932045   -1.953767
    114          6           0       -1.366526   -0.458170   -2.123559
    115          6           0       -2.620136   -0.675878   -1.610587
    116          6           0        0.235605    1.655955   -2.108343
    117          6           0       -0.887219   -1.824831   -2.441274
    118          8           0        0.183519   -2.194506   -2.876383
    119          6           0       -2.122786   -2.829695   -2.264055
    120          6           0       -1.646959   -4.184520   -1.852796
    121          8           0       -1.051571   -4.459867   -0.853113
    122          8           0       -1.897090   -5.140613   -2.854880
    123          6           0       -0.940829   -6.263941   -2.950517
    124          1           0       -8.544967   -2.317313    0.415566
    125          1           0       -7.712510    4.020661    0.494647
    126          1           0       -1.917923    3.563334   -1.657933
    127          1           0       -4.241382   -4.464674   -1.349562
    128          1           0       -6.603017   -4.383628    0.499914
    129          1           0       -6.282940   -4.782391   -2.375627
    130          1           0       -7.496947   -3.596098   -2.093914
    131          1           0       -7.639003   -5.319844   -1.412148
    132          1           0       -4.731935   -3.918000    1.547052
    133          1           0       -3.094068   -3.839418    0.847744
    134          1           0       -4.439191   -6.074607    1.964522
    135          1           0       -2.882824   -6.069800    1.180656
    136          1           0      -10.177067   -1.626618    1.998210
    137          1           0      -11.189896   -0.547924    1.172977
    138          1           0      -10.497233   -0.097084    2.790522
    139          1           0      -11.622646    2.311024    2.908418
    140          1           0      -11.613883    1.677917    1.189986
    141          1           0      -12.054399    3.379028    1.509908
    142          1           0       -5.647811    5.372486    0.487521
    143          1           0       -4.056161    5.232052   -2.111840
    144          1           0       -7.248193    5.003973   -2.038196
    145          1           0       -6.149970    6.365359   -2.023294
    146          1           0       -7.431032    6.218789   -0.778407
    147          1           0       -2.604243    5.107333    0.427665
    148          1           0       -3.767981    6.334001    0.393516
    149          1           0       -2.088965    6.236855   -2.155770
    150          1           0       -1.111854    6.164430   -0.681240
    151          1           0       -2.038939    7.597086   -1.059519
    152          1           0       -0.002098    2.532735   -2.710910
    153          1           0        1.012286    1.087230   -2.619962
    154          1           0        0.576492    2.017599   -1.137712
    155          1           0       -2.530548   -3.051184   -3.249829
    156          1           0       -1.480529   -7.180872   -2.713276
    157          1           0       -0.080255   -6.132970   -2.293576
    158          1           0       -0.615180   -6.271925   -3.990673
 ---------------------------------------------------------------------

 SCF Done:  E(RPBE1PBE) =  -4067.37493843     A.U. after   17 cycles

 Excitation energies and oscillator strengths:

 Excited State   1:      Singlet-A      1.6596 eV  747.07 nm  f=0.0134  <S**2>=0.000
     312 -> 313        0.70274
 This state for optimization and/or second-order correction.
 Total Energy, E(TD-HF/TD-DFT) =  -4067.31394905
 Copying the excited state density for this state as the 1-particle RhoCI density.

 Excited State   2:      Singlet-A      1.7944 eV  690.94 nm  f=0.1587  <S**2>=0.000
     311 -> 313       -0.20391
     311 -> 314        0.56946
     312 -> 314       -0.35918

 Excited State   3:      Singlet-A      1.8474 eV  671.15 nm  f=0.6664  <S**2>=0.000
     310 -> 316        0.11061
     311 -> 313        0.35226
     311 -> 314        0.41253
     312 -> 314        0.43010

 Excited State   4:      Singlet-A      1.9021 eV  651.84 nm  f=0.0268  <S**2>=0.000
     309 -> 315       -0.15218
     310 -> 316       -0.10938
     311 -> 313        0.54969
     312 -> 314       -0.40466

 Excited State   5:      Singlet-A      2.1215 eV  584.42 nm  f=0.0582  <S**2>=0.000
     309 -> 313        0.63760
     310 -> 313        0.14959
     311 -> 315        0.21637

 The electronic state is 1-A.
 Alpha  occ. eigenvalues --  -46.91639 -46.90403 -19.23972 -19.23729 -19.19987
 Alpha  occ. eigenvalues --  -19.19367 -19.18719 -19.17791 -19.17769 -19.17743
 Alpha  occ. eigenvalues --  -14.41144 -14.40997 -14.40899 -14.40869 -14.39031
 Alpha  occ. eigenvalues --  -14.38684 -14.37677 -14.37478 -10.35221 -10.34792
 Alpha  occ. eigenvalues --  -10.33418 -10.32055 -10.31191 -10.30501 -10.29311
 Alpha  occ. eigenvalues --  -10.28702 -10.28517 -10.28177 -10.28132 -10.28018
 Alpha  occ. eigenvalues --  -10.27928 -10.27827 -10.27721 -10.27606 -10.27595
 Alpha  occ. eigenvalues --  -10.27586 -10.27584 -10.27320 -10.27181 -10.26253
 Alpha  occ. eigenvalues --  -10.26057 -10.25807 -10.25652 -10.25629 -10.25518
 Alpha  occ. eigenvalues --  -10.25512 -10.25481 -10.25466 -10.25335 -10.25316
 Alpha  occ. eigenvalues --  -10.25312 -10.25303 -10.25126 -10.25089 -10.25072
 Alpha  occ. eigenvalues --  -10.24992 -10.24897 -10.24893 -10.24884 -10.24728
 Alpha  occ. eigenvalues --  -10.24601 -10.24483 -10.24460 -10.24309 -10.24033
 Alpha  occ. eigenvalues --  -10.24022 -10.23927 -10.23846 -10.23836 -10.23733
 Alpha  occ. eigenvalues --  -10.23689 -10.23639 -10.23588 -10.23369 -10.23170
 Alpha  occ. eigenvalues --  -10.23142 -10.23138 -10.23006 -10.22984 -10.22983
 Alpha  occ. eigenvalues --  -10.22911 -10.22732 -10.22614 -10.22558 -10.22307
 Alpha  occ. eigenvalues --  -10.21791  -3.13686  -3.12695  -1.86539  -1.86059
 Alpha  occ. eigenvalues --   -1.85907  -1.85548  -1.85075  -1.84923  -1.09636
 Alpha  occ. eigenvalues --   -1.09169  -1.04676  -1.04391  -1.03442  -1.02210
 Alpha  occ. eigenvalues --   -1.01541  -0.99498  -0.99218  -0.98977  -0.98748
 Alpha  occ. eigenvalues --   -0.98248  -0.97310  -0.96424  -0.96357  -0.95025
 Alpha  occ. eigenvalues --   -0.86757  -0.86029  -0.83501  -0.82884  -0.82623
 Alpha  occ. eigenvalues --   -0.82443  -0.82153  -0.81469  -0.81390  -0.81368
 Alpha  occ. eigenvalues --   -0.81181  -0.80807  -0.79973  -0.79738  -0.78080
 Alpha  occ. eigenvalues --   -0.78042  -0.77806  -0.77413  -0.76619  -0.76532
 Alpha  occ. eigenvalues --   -0.76331  -0.75631  -0.74801  -0.74676  -0.74355
 Alpha  occ. eigenvalues --   -0.73885  -0.72478  -0.72347  -0.71468  -0.71442
 Alpha  occ. eigenvalues --   -0.70535  -0.70450  -0.69935  -0.69526  -0.69193
 Alpha  occ. eigenvalues --   -0.69041  -0.67041  -0.66748  -0.65874  -0.65299
 Alpha  occ. eigenvalues --   -0.64249  -0.64183  -0.62685  -0.62538  -0.61770
 Alpha  occ. eigenvalues --   -0.61426  -0.61008  -0.60667  -0.60274  -0.59323
 Alpha  occ. eigenvalues --   -0.59116  -0.58911  -0.58766  -0.58676  -0.58371
 Alpha  occ. eigenvalues --   -0.57726  -0.55478  -0.55418  -0.54311  -0.54045
 Alpha  occ. eigenvalues --   -0.53568  -0.53481  -0.53102  -0.52828  -0.52726
 Alpha  occ. eigenvalues --   -0.52416  -0.51880  -0.51653  -0.51219  -0.51203
 Alpha  occ. eigenvalues --   -0.50634  -0.50337  -0.49709  -0.49603  -0.49471
 Alpha  occ. eigenvalues --   -0.48965  -0.48554  -0.48473  -0.47791  -0.47561
 Alpha  occ. eigenvalues --   -0.47516  -0.47447  -0.47282  -0.46974  -0.46868
 Alpha  occ. eigenvalues --   -0.46612  -0.46541  -0.46492  -0.46354  -0.46254
 Alpha  occ. eigenvalues --   -0.46127  -0.45963  -0.45579  -0.45444  -0.45232
 Alpha  occ. eigenvalues --   -0.45145  -0.44938  -0.44902  -0.44475  -0.44390
 Alpha  occ. eigenvalues --   -0.44361  -0.44337  -0.43918  -0.43905  -0.43748
 Alpha  occ. eigenvalues --   -0.43599  -0.43445  -0.43045  -0.42968  -0.42788
 Alpha  occ. eigenvalues --   -0.42734  -0.42600  -0.42338  -0.42169  -0.42087
 Alpha  occ. eigenvalues --   -0.42022  -0.41942  -0.41913  -0.41735  -0.41459
 Alpha  occ. eigenvalues --   -0.41426  -0.40956  -0.40886  -0.40806  -0.40663
 Alpha  occ. eigenvalues --   -0.40595  -0.40510  -0.40253  -0.40212  -0.40080
 Alpha  occ. eigenvalues --   -0.40004  -0.39756  -0.39646  -0.39481  -0.39411
 Alpha  occ. eigenvalues --   -0.39217  -0.39047  -0.38953  -0.38493  -0.38427
 Alpha  occ. eigenvalues --   -0.38292  -0.38252  -0.38028  -0.37849  -0.37734
 Alpha  occ. eigenvalues --   -0.37686  -0.37618  -0.37358  -0.37244  -0.37182
 Alpha  occ. eigenvalues --   -0.37111  -0.36919  -0.36753  -0.36601  -0.36396
 Alpha  occ. eigenvalues --   -0.36249  -0.36038  -0.35960  -0.35633  -0.35552
 Alpha  occ. eigenvalues --   -0.35501  -0.35478  -0.35114  -0.35038  -0.34650
 Alpha  occ. eigenvalues --   -0.34638  -0.34415  -0.34218  -0.33741  -0.33273
 Alpha  occ. eigenvalues --   -0.33016  -0.32807  -0.32476  -0.32304  -0.32147
 Alpha  occ. eigenvalues --   -0.31371  -0.31136  -0.30993  -0.30902  -0.30503
 Alpha  occ. eigenvalues --   -0.30068  -0.29849  -0.29066  -0.28990  -0.28719
 Alpha  occ. eigenvalues --   -0.28284  -0.27973  -0.26848  -0.26365  -0.26162
 Alpha  occ. eigenvalues --   -0.26153  -0.25507  -0.25152  -0.25082  -0.24795
 Alpha  occ. eigenvalues --   -0.24351  -0.24012  -0.24005  -0.20275  -0.20060
 Alpha  occ. eigenvalues --   -0.18639  -0.18188
 Alpha virt. eigenvalues --   -0.10775  -0.10550  -0.05266  -0.04419  -0.03916
 Alpha virt. eigenvalues --   -0.02898  -0.01550  -0.01424   0.00356   0.00520
 Alpha virt. eigenvalues --    0.01068   0.01500   0.01613   0.02066   0.02338

 Mulliken charges:
               1
     1  Mg  12.000503
     2  C    6.000049
     3  C    5.999276
     4  C    5.999800
     5  C    6.001065
     6  N    6.999784
     7  C    5.999399
     8  C    6.000531
     9  C    5.999669
    10  C    6.001706
    11  C    5.999774
    12  C    5.999871
    13  C    5.999779
    14  H    1.000471
    15  N    6.999801
    16  C    6.002289
    17  C    6.001544
    18  C    6.000538
    19  C    6.001633
    20  C    5.999577
    21  C    6.000777
    22  O    8.001521
    23  C    5.999702
    24  N    6.999610
    25  C    6.001808
    26  C    5.999223
    27  C    6.000621
    28  C    5.997879
    29  C    5.999924
    30  C    5.999811
    31  C    5.999851
    32  N    7.000002
    33  C    5.998810
    34  C    5.999138
    35  C    5.999285
    36  C    5.999748
    37  C    6.000430
    38  C    5.999403
    39  O    7.999816
    40  C    5.999867
    41  C    6.000025
    42  O    7.999677
    43  O    8.000162
    44  C    5.999997
    45  H    1.000875
    46  H    1.000835
    47  H    0.999572
    48  H    1.000293
    49  H    1.000406
    50  H    0.999925
    51  H    1.000301
    52  H    1.000944
    53  H    0.999973
    54  H    1.000105
    55  H    1.000239
    56  H    1.000269
    57  H    1.001305
    58  H    1.001201
    59  H    1.001425
    60  H    1.000297
    61  H    1.001013
    62  H    1.000545
    63  H    1.000162
    64  H    1.000328
    65  H    1.000292
    66  H    0.999988
    67  H    1.000828
    68  H    0.999882
    69  H    1.000504
    70  H    0.999552
    71  H    1.000142
    72  H    1.000080
    73  H    1.000933
    74  H    0.998235
    75  H    1.000006
    76  H    1.000245
    77  H    1.000287
    78  H    1.000145
    79  H    0.999792
    80  Mg  11.999950
    81  C    5.996970
    82  C    5.999357
    83  C    6.001090
    84  C    5.999257
    85  N    6.997986
    86  C    6.003004
    87  C    5.999650
    88  C    6.000891
    89  C    5.998055
    90  C    6.000052
    91  C    5.999750
    92  C    6.000178
    93  H    0.999916
    94  N    7.000676
    95  C    5.997283
    96  C    5.997361
    97  C    5.998436
    98  C    5.997774
    99  C    6.000601
   100  C    5.998297
   101  O    7.996992
   102  C    6.000309
   103  N    6.999947
   104  C    5.997019
   105  C    6.000613
   106  C    5.999255
   107  C    6.002590
   108  C    6.000556
   109  C    5.999639
   110  C    5.999989
   111  N    7.000132
   112  C    6.002855
   113  C    6.003726
   114  C    5.999389
   115  C    6.002872
   116  C    5.999728
   117  C    6.001120
   118  O    8.001198
   119  C    6.000416
   120  C    6.000489
   121  O    8.000013
   122  O    8.000181
   123  C    6.000065
   124  H    0.998685
   125  H    0.999113
   126  H    1.000102
   127  H    0.999162
   128  H    0.999473
   129  H    0.998674
   130  H    1.000126
   131  H    0.999376
   132  H    1.000984
   133  H    0.999390
   134  H    1.000137
   135  H    0.999432
   136  H    0.998174
   137  H    0.997813
   138  H    0.998215
   139  H    0.998807
   140  H    0.999831
   141  H    0.998444
   142  H    1.000030
   143  H    1.000002
   144  H    1.000076
   145  H    0.998669
   146  H    1.000115
   147  H    0.999901
   148  H    1.000819
   149  H    0.999770
   150  H    0.999644
   151  H    1.000239
   152  H    1.001910
   153  H    1.001097
   154  H    1.001447
   155  H    0.999777
   156  H    1.000315
   157  H    0.999696
   158  H    0.999856
 Sum of Mulliken charges = 624.00000

 Dipole moment (field-independent basis, Debye):
    X=              2.0381    Y=              0.0559    Z=             -0.3378  Tot=              2.0667
 Quadrupole moment (field-independent basis, Debye-Ang):
   XX=             -4.5586   YY=              0.0603   ZZ=              0.1844
   XY=              1.6334   XZ=              0.9635   YZ=             -0.3315

 Normal termination of Gaussian 16 at Thu Oct 14 03:08:25 2021.
