 Gaussian 16, Revision A.03,
 Gaussian 16:  ES64L-G16RevA.03 25-Dec-2016

 --------------------------------------------------------
 #p PBE1PBE/Def2SVP td=(nstates=5) density=(transition=1)
 --------------------------------------------------------

 --------------------------------
 TDDFT excited states in gaussian
 --------------------------------
 Symbolic Z-matrix:
 Charge =  0 Multiplicity = 1

                         Standard orientation:
 ---------------------------------------------------------------------
 Center     Atomic      Atomic             Coordinates (Angstroms)
 Number     Number       Type             X           Y           Z
 ---------------------------------------------------------------------
      1         12           0       11.236591    0.750129   -0.068252
      2          6           0       12.266606   -2.559069    0.676729
      3          6           0        8.394945    0.131000    1.683703
      4          6           0       10.668480    4.102196   -0.085102
      5          6           0       14.402484    1.336189   -1.351371
      6          7           0       10.596010   -1.035451    1.159724
      7          6           0       11.083658   -2.311318    1.261918
      8          6           0       10.161861   -3.201768    2.009140
      9          6           0        8.788417   -2.379398    2.015488
     10          6           0        9.265392   -1.024057    1.618806
     11          6           0        7.763355   -2.980401    1.067317
     12          6           0       10.814891   -3.497547    3.368437
     13          6           0       10.999874   -5.019142    3.778856
     14          1           0       10.434310   -5.570318    5.122376
     15          7           0        9.749565    1.995773    0.630087
     16          6           0        8.598310    1.506793    1.262961
     17          6           0        7.678620    2.596691    1.394267
     18          6           0        8.307204    3.797183    0.919584
     19          6           0        9.608310    3.308978    0.389187
     20          6           0        6.278942    2.373689    1.952449
     21          6           0        7.771460    5.211448    0.910200
     22          8           0        6.564510    5.295118    1.279994
     23          6           0        8.529306    6.537164    0.617009
     24          7           0       12.371972    2.519522   -0.649787
     25          6           0       11.898488    3.783612   -0.588150
     26          6           0       12.928280    4.845505   -1.056795
     27          6           0       14.093116    3.930594   -1.570380
     28          6           0       13.602355    2.479389   -1.105566
     29          6           0       12.305487    5.723044   -2.127775
     30          6           0       15.447554    4.238617   -1.008787
     31          6           0       16.415521    4.788220   -2.021162
     32          7           0       12.907182   -0.325420   -0.473477
     33          6           0       14.144636   -0.015049   -1.051528
     34          6           0       14.883442   -1.140348   -1.323449
     35          6           0       14.168813   -2.180040   -0.694190
     36          6           0       13.024799   -1.619748   -0.130513
     37          6           0       16.095407   -1.150548   -2.230856
     38          6           0       14.143654   -3.653131   -0.491928
     39          8           0       14.907685   -4.481431   -0.880074
     40          6           0       12.923896   -3.855483    0.484556
     41          6           0       12.199594   -5.104623    0.032143
     42          8           0       12.267844   -6.196432    0.596715
     43          8           0       11.394180   -4.824218   -1.098314
     44          6           0       10.576476   -5.969056   -1.498238
     45          1           0        7.393645   -0.112663    2.045624
     46          1           0       10.487688    5.173304   -0.202102
     47          1           0       15.468478    1.485760   -1.531547
     48          1           0       10.044505   -4.139654    1.466131
     49          1           0        8.377129   -2.415142    3.023929
     50          1           0        8.202242   -3.366875    0.148495
     51          1           0        7.096323   -2.183700    0.736333
     52          1           0        7.124715   -3.733042    1.529615
     53          1           0       10.206811   -3.005535    4.127420
     54          1           0       11.771216   -2.995895    3.516404
     55          1           0       12.088295   -5.068846    3.819367
     56          1           0       10.777666   -5.674798    2.937753
     57          1           0        6.315236    1.829921    2.896442
     58          1           0        5.760806    1.749182    1.224794
     59          1           0        5.700387    3.255943    2.229740
     60          1           0        8.733737    6.473418   -0.451274
     61          1           0        9.453682    6.542842    1.194705
     62          1           0        7.951010    7.419844    0.891342
     63          1           0       13.265884    5.516431   -0.267274
     64          1           0       14.071948    3.879267   -2.658663
     65          1           0       11.350977    6.084201   -1.744548
     66          1           0       12.141083    5.109957   -3.014468
     67          1           0       12.883731    6.544028   -2.550018
     68          1           0       15.961572    3.366982   -0.603638
     69          1           0       15.484148    4.930513   -0.167565
     70          1           0       16.804441    5.729360   -1.634410
     71          1           0       15.935844    5.055672   -2.962693
     72          1           0       17.215893    4.099866   -2.294681
     73          1           0       16.248853   -2.192482   -2.513639
     74          1           0       16.988345   -0.773085   -1.733144
     75          1           0       15.818637   -0.509088   -3.067235
     76          1           0       13.423118   -4.175174    1.399987
     77          1           0        9.673008   -5.633683   -2.007701
     78          1           0       10.166246   -6.486443   -0.632148
     79          1           0       11.123455   -6.696424   -2.098744
     80         12           0      -11.821240    0.380048   -0.401098
     81          6           0       -9.508725   -2.214393   -0.280443
     82          6           0      -14.336321   -2.000373   -0.223207
     83          6           0      -14.095011    2.737246    0.044764
     84          6           0       -9.239623    2.661345   -0.070245
     85          7           0      -11.919622   -1.820659   -0.105279
     86          6           0      -10.850898   -2.685243   -0.224520
     87          6           0      -11.269911   -4.124403   -0.284101
     88          6           0      -12.814707   -3.992991   -0.646906
     89          6           0      -13.080015   -2.540179   -0.275144
     90          6           0      -13.408328   -4.514513   -2.040722
     91          6           0      -10.925162   -4.992621    1.013342
     92          6           0      -10.937731   -4.269930    2.393198
     93          1           0      -11.563542   -5.072275    3.508637
     94          7           0      -13.922791    0.378245   -0.007391
     95          6           0      -14.783608   -0.726242    0.010517
     96          6           0      -16.130711   -0.339980    0.329507
     97          6           0      -16.092463    1.070498    0.439830
     98          6           0      -14.679048    1.482565    0.190003
     99          6           0      -17.271294   -1.352308    0.212470
    100          6           0      -17.364533    1.898948    0.730762
    101          8           0      -18.451884    1.366504    0.975572
    102          6           0      -17.215459    3.359499    0.643015
    103          7           0      -11.618899    2.385510    0.057823
    104          6           0      -12.739270    3.186281   -0.087148
    105          6           0      -12.407097    4.694686   -0.077927
    106          6           0      -10.840647    4.581688    0.126156
    107          6           0      -10.539573    3.149587    0.088075
    108          6           0      -12.785646    5.538360   -1.254088
    109          6           0      -10.345006    5.192118    1.533332
    110          6           0       -9.137027    6.072826    1.347261
    111          7           0       -9.738399    0.316625   -0.404253
    112          6           0       -8.817448    1.337754   -0.260564
    113          6           0       -7.444501    0.782995   -0.268945
    114          6           0       -7.673490   -0.636952   -0.279702
    115          6           0       -9.057281   -0.833710   -0.355245
    116          6           0       -6.147255    1.434356   -0.008688
    117          6           0       -7.079985   -1.988068   -0.190237
    118          8           0       -5.926934   -2.308657   -0.016794
    119          6           0       -8.228933   -3.046508   -0.228453
    120          6           0       -8.015047   -3.989057   -1.327256
    121          8           0       -7.831975   -5.206376   -1.302120
    122          8           0       -7.757537   -3.213320   -2.487919
    123          6           0       -7.569117   -3.982793   -3.736405
    124          1           0      -15.084648   -2.771029   -0.422154
    125          1           0      -14.756924    3.604028   -0.007940
    126          1           0       -8.500860    3.464236   -0.040905
    127          1           0      -10.734777   -4.640232   -1.081302
    128          1           0      -13.251102   -4.613647    0.136088
    129          1           0      -12.709284   -5.048428   -2.684195
    130          1           0      -13.761402   -3.716629   -2.693907
    131          1           0      -14.140811   -5.298536   -1.846727
    132          1           0       -9.985633   -5.527299    0.877605
    133          1           0      -11.657649   -5.799441    1.036720
    134          1           0      -11.432275   -3.301159    2.316107
    135          1           0       -9.915651   -4.068239    2.712596
    136          1           0      -18.092667   -1.172345    0.906774
    137          1           0      -16.905918   -2.336593    0.504188
    138          1           0      -17.639159   -1.264861   -0.810118
    139          1           0      -17.072826    3.630019   -0.402780
    140          1           0      -16.388380    3.683800    1.275357
    141          1           0      -18.162662    3.759999    1.004158
    142          1           0      -12.760172    5.098582    0.871206
    143          1           0      -10.455186    4.981305   -0.811814
    144          1           0      -12.271298    6.489184   -1.113556
    145          1           0      -13.845901    5.769548   -1.151376
    146          1           0      -12.550144    5.022976   -2.185982
    147          1           0      -10.158750    4.340451    2.187477
    148          1           0      -11.085338    5.723929    2.132320
    149          1           0       -8.283229    5.565869    1.796203
    150          1           0       -9.168535    6.960099    1.980474
    151          1           0       -8.909870    6.168450    0.285687
    152          1           0       -6.183654    2.508409    0.179452
    153          1           0       -5.565382    1.311889   -0.921551
    154          1           0       -5.891248    0.979781    0.948140
    155          1           0       -8.171394   -3.544319    0.739238
    156          1           0       -8.179766   -3.417896   -4.441680
    157          1           0       -7.859412   -5.031511   -3.800433
    158          1           0       -6.552629   -3.742851   -4.048854
 ---------------------------------------------------------------------

 SCF Done:  E(RPBE1PBE) =  -4067.37609801     A.U. after   16 cycles

 Excitation energies and oscillator strengths:

 Excited State   1:      Singlet-A      1.7980 eV  689.55 nm  f=0.0000  <S**2>=0.000
     312 -> 313        0.70709
 This state for optimization and/or second-order correction.
 Total Energy, E(TD-HF/TD-DFT) =  -4067.31002094
 Copying the excited state density for this state as the 1-particle RhoCI density.

 Excited State   2:      Singlet-A      1.8475 eV  671.10 nm  f=0.4595  <S**2>=0.000
     309 -> 316       -0.16304
     311 -> 313        0.68258
     312 -> 314       -0.12657
     311 <- 313       -0.11054

 Excited State   3:      Singlet-A      1.8717 eV  662.42 nm  f=0.2570  <S**2>=0.000
     310 -> 315        0.17427
     311 -> 313        0.12672
     312 -> 314        0.67826
     312 <- 314       -0.10238

 Excited State   4:      Singlet-A      2.0306 eV  610.58 nm  f=0.0000  <S**2>=0.000
     311 -> 314        0.70708

 Excited State   5:      Singlet-A      2.2139 eV  560.02 nm  f=0.0796  <S**2>=0.000
     310 -> 314        0.64287
     312 -> 315       -0.27364

 The electronic state is 1-A.
 Alpha  occ. eigenvalues --  -46.92496 -46.92346 -19.26199 -19.25037 -19.21178
 Alpha  occ. eigenvalues --  -19.20780 -19.20029 -19.19174 -19.19119 -19.18471
 Alpha  occ. eigenvalues --  -14.41854 -14.41753 -14.41681 -14.41620 -14.39640
 Alpha  occ. eigenvalues --  -14.39244 -14.38888 -14.38661 -10.37333 -10.36758
 Alpha  occ. eigenvalues --  -10.32787 -10.32607 -10.32363 -10.32172 -10.29606
 Alpha  occ. eigenvalues --  -10.29327 -10.28966 -10.28849 -10.28800 -10.28553
 Alpha  occ. eigenvalues --  -10.28476 -10.28268 -10.28251 -10.28231 -10.28220
 Alpha  occ. eigenvalues --  -10.28206 -10.27951 -10.27900 -10.26925 -10.26722
 Alpha  occ. eigenvalues --  -10.26720 -10.26584 -10.26468 -10.26350 -10.26296
 Alpha  occ. eigenvalues --  -10.26225 -10.26141 -10.26118 -10.26043 -10.26030
 Alpha  occ. eigenvalues --  -10.25995 -10.25940 -10.25934 -10.25930 -10.25891
 Alpha  occ. eigenvalues --  -10.25870 -10.25771 -10.25735 -10.25559 -10.25370
 Alpha  occ. eigenvalues --  -10.25229 -10.24973 -10.24951 -10.24835 -10.24762
 Alpha  occ. eigenvalues --  -10.24611 -10.24608 -10.24606 -10.24554 -10.24531
 Alpha  occ. eigenvalues --  -10.24416 -10.24358 -10.24287 -10.23927 -10.23923
 Alpha  occ. eigenvalues --  -10.23712 -10.23683 -10.23624 -10.23527 -10.23345
 Alpha  occ. eigenvalues --  -10.23272 -10.23221 -10.23183 -10.22833 -10.22719
 Alpha  occ. eigenvalues --  -10.22587  -3.14602  -3.14488  -1.87427  -1.87309
 Alpha  occ. eigenvalues --   -1.86992  -1.86868  -1.86817  -1.86716  -1.10256
 Alpha  occ. eigenvalues --   -1.09562  -1.06786  -1.05198  -1.04027  -1.02715
 Alpha  occ. eigenvalues --   -1.02264  -1.01746  -0.99819  -0.99686  -0.98882
 Alpha  occ. eigenvalues --   -0.98360  -0.97924  -0.97846  -0.97337  -0.96966
 Alpha  occ. eigenvalues --   -0.87623  -0.86831  -0.84156  -0.83946  -0.83573
 Alpha  occ. eigenvalues --   -0.83519  -0.83273  -0.82282  -0.82117  -0.81955
 Alpha  occ. eigenvalues --   -0.81351  -0.81247  -0.80435  -0.80170  -0.79043
 Alpha  occ. eigenvalues --   -0.79033  -0.78764  -0.78556  -0.76952  -0.76862
 Alpha  occ. eigenvalues --   -0.76582  -0.76043  -0.75197  -0.74955  -0.74757
 Alpha  occ. eigenvalues --   -0.74505  -0.72683  -0.72083  -0.71784  -0.71689
 Alpha  occ. eigenvalues --   -0.71101  -0.71099  -0.70727  -0.70523  -0.70097
 Alpha  occ. eigenvalues --   -0.69799  -0.67923  -0.67114  -0.66600  -0.66583
 Alpha  occ. eigenvalues --   -0.63750  -0.63713  -0.63653  -0.63329  -0.62587
 Alpha  occ. eigenvalues --   -0.62044  -0.61616  -0.61249  -0.60861  -0.60648
 Alpha  occ. eigenvalues --   -0.60075  -0.59874  -0.59432  -0.59372  -0.59083
 Alpha  occ. eigenvalues --   -0.58552  -0.57606  -0.57088  -0.55017  -0.54794
 Alpha  occ. eigenvalues --   -0.54548  -0.54148  -0.53983  -0.53581  -0.53544
 Alpha  occ. eigenvalues --   -0.52897  -0.52655  -0.52121  -0.51783  -0.51312
 Alpha  occ. eigenvalues --   -0.50889  -0.50769  -0.50362  -0.50271  -0.50144
 Alpha  occ. eigenvalues --   -0.49909  -0.49647  -0.49360  -0.49120  -0.48907
 Alpha  occ. eigenvalues --   -0.48396  -0.48378  -0.48172  -0.47743  -0.47605
 Alpha  occ. eigenvalues --   -0.47325  -0.47260  -0.47026  -0.46770  -0.46718
 Alpha  occ. eigenvalues --   -0.46490  -0.46468  -0.46257  -0.46148  -0.45726
 Alpha  occ. eigenvalues --   -0.45662  -0.45442  -0.45382  -0.45103  -0.45064
 Alpha  occ. eigenvalues --   -0.44786  -0.44769  -0.44608  -0.44429  -0.44296
 Alpha  occ. eigenvalues --   -0.44213  -0.44205  -0.43887  -0.43538  -0.43495
 Alpha  occ. eigenvalues --   -0.43225  -0.43195  -0.42939  -0.42938  -0.42796
 Alpha  occ. eigenvalues --   -0.42563  -0.42407  -0.42367  -0.41901  -0.41822
 Alpha  occ. eigenvalues --   -0.41650  -0.41571  -0.41267  -0.41246  -0.41104
 Alpha  occ. eigenvalues --   -0.40982  -0.40932  -0.40749  -0.40582  -0.40466
 Alpha  occ. eigenvalues --   -0.40410  -0.40149  -0.40128  -0.40012  -0.39887
 Alpha  occ. eigenvalues --   -0.39876  -0.39797  -0.39706  -0.39587  -0.39516
 Alpha  occ. eigenvalues --   -0.39417  -0.38883  -0.38731  -0.38617  -0.38409
 Alpha  occ. eigenvalues --   -0.38273  -0.38080  -0.37965  -0.37841  -0.37688
 Alpha  occ. eigenvalues --   -0.37498  -0.37337  -0.37263  -0.37204  -0.37124
 Alpha  occ. eigenvalues --   -0.37002  -0.36853  -0.36780  -0.36597  -0.36521
 Alpha  occ. eigenvalues --   -0.36497  -0.36339  -0.36157  -0.36098  -0.35927
 Alpha  occ. eigenvalues --   -0.35337  -0.34995  -0.34856  -0.34064  -0.33976
 Alpha  occ. eigenvalues --   -0.33698  -0.33515  -0.33133  -0.32964  -0.32692
 Alpha  occ. eigenvalues --   -0.32436  -0.32320  -0.32112  -0.31951  -0.31607
 Alpha  occ. eigenvalues --   -0.31374  -0.30586  -0.30307  -0.30223  -0.29790
 Alpha  occ. eigenvalues --   -0.29725  -0.28893  -0.28786  -0.27352  -0.26917
 Alpha  occ. eigenvalues --   -0.26091  -0.25888  -0.25762  -0.25608  -0.25533
 Alpha  occ. eigenvalues --   -0.25423  -0.25345  -0.25048  -0.21310  -0.21004
 Alpha  occ. eigenvalues --   -0.19208  -0.18870
 Alpha virt. eigenvalues --   -0.11677  -0.11165  -0.05714  -0.05304  -0.03916
 Alpha virt. eigenvalues --   -0.03538  -0.02047  -0.01961  -0.01117  -0.00879
 Alpha virt. eigenvalues --   -0.00520  -0.00388   0.00796   0.00801   0.01483

 Mulliken charges:
               1
     1  Mg  12.000000
     2  C    6.000000
     3  C    6.000000
     4  C    6.000000
     5  C    6.000000
     6  N    7.000000
     7  C    6.000000
     8  C    6.000000
     9  C    6.000000
    10  C    6.000000
    11  C    6.000000
    12  C    6.000000
    13  C    6.000000
    14  H    1.000000
    15  N    7.000000
    16  C    6.000000
    17  C    6.000000
    18  C    6.000000
    19  C    6.000000
    20  C    6.000000
    21  C    6.000000
    22  O    8.000000
    23  C    6.000000
    24  N    7.000000
    25  C    6.000000
    26  C    6.000000
    27  C    6.000000
    28  C    6.000000
    29  C    6.000000
    30  C    6.000000
    31  C    6.000000
    32  N    7.000000
    33  C    6.000000
    34  C    6.000000
    35  C    6.000000
    36  C    6.000000
    37  C    6.000000
    38  C    6.000000
    39  O    8.000000
    40  C    6.000000
    41  C    6.000000
    42  O    8.000000
    43  O    8.000000
    44  C    6.000000
    45  H    1.000000
    46  H    1.000000
    47  H    1.000000
    48  H    1.000000
    49  H    1.000000
    50  H    1.000000
    51  H    1.000000
    52  H    1.000000
    53  H    1.000000
    54  H    1.000000
    55  H    1.000000
    56  H    1.000000
    57  H    1.000000
    58  H    1.000000
    59  H    1.000000
    60  H    1.000000
    61  H    1.000000
    62  H    1.000000
    63  H    1.000000
    64  H    1.000000
    65  H    1.000000
    66  H    1.000000
    67  H    1.000000
    68  H    1.000000
    69  H    1.000000
    70  H    1.000000
    71  H    1.000000
    72  H    1.000000
    73  H    1.000000
    74  H    1.000000
    75  H    1.000000
    76  H    1.000000
    77  H    1.000000
    78  H    1.000000
    79  H    1.000000
    80  Mg  12.000000
    81  C    6.000000
    82  C    6.000000
    83  C    6.000000
    84  C    6.000000
    85  N    7.000000
    86  C    6.000000
    87  C    6.000000
    88  C    6.000000
    89  C    6.000000
    90  C    6.000000
    91  C    6.000000
    92  C    6.000000
    93  H    1.000000
    94  N    7.000000
    95  C    6.000000
    96  C    6.000000
    97  C    6.000000
    98  C    6.000000
    99  C    6.000000
   100  C    6.000000
   101  O    8.000000
   102  C    6.000000
   103  N    7.000000
   104  C    6.000000
   105  C    6.000000
   106  C    6.000000
   107  C    6.000000
   108  C    6.000000
   109  C    6.000000
   110  C    6.000000
   111  N    7.000000
   112  C    6.000000
   113  C    6.000000
   114  C    6.000000
   115  C    6.000000
   116  C    6.000000
   117  C    6.000000
   118  O    8.000000
   119  C    6.000000
   120  C    6.000000
   121  O    8.000000
   122  O    8.000000
   123  C    6.000000
   124  H    1.000000
   125  H    1.000000
   126  H    1.000000
   127  H    1.000000
   128  H    1.000000
   129  H    1.000000
   130  H    1.000000
   131  H    1.000000
   132  H    1.000000
   133  H    1.000000
   134  H    1.000000
   135  H    1.000000
   136  H    1.000000
   137  H    1.000000
   138  H    1.000000
   139  H    1.000000
   140  H    1.000000
   141  H    1.000000
   142  H    1.000000
   143  H    1.000000
   144  H    1.000000
   145  H    1.000000
   146  H    1.000000
   147  H    1.000000
   148  H    1.000000
   149  H    1.000000
   150  H    1.000000
   151  H    1.000000
   152  H    1.000000
   153  H    1.000000
   154  H    1.000000
   155  H    1.000000
   156  H    1.000000
   157  H    1.000000
   158  H    1.000000
 Sum of Mulliken charges = 624.00000

 Dipole moment (field-independent basis, Debye):
    X=             -0.0000    Y=              0.0000    Z=              0.0000  Tot=              0.0000
 Quadrupole moment (field-independent basis, Debye-Ang):
   XX=             -0.0000   YY=              0.0000   ZZ=             -0.0000
   XY=              0.0000   XZ=              0.0000   YZ=              0.0000

 Normal termination of Gaussian 16 at Thu Oct 14 23:36:22 2021.
