 Gaussian 16, Revision A.03,
 Gaussian 16:  ES64L-G16RevA.03 25-Dec-2016

 --------------------------------------------------------
 #p PBE1PBE/Def2SVP td=(nstates=5) density=(transition=1)
 --------------------------------------------------------

 --------------------------------
 TDDFT excited states in gaussian
 --------------------------------
 Symbolic Z-matrix:
 Charge =  0 Multiplicity = 1

                         Standard orientation:
 ---------------------------------------------------------------------
 Center     Atomic      Atomic             Coordinates (Angstroms)
 Number     Number       Type             X           Y           Z
 ---------------------------------------------------------------------
      1         12           0      -13.027118    0.637391    0.386178
      2          6           0      -11.558515   -2.237066   -1.172765
      3          6           0      -15.045037   -1.352300    2.044707
      4          6           0      -14.750344    3.384416    1.070855
      5          6           0      -10.911075    2.626112   -1.871273
      6          7           0      -13.229043   -1.551431    0.453795
      7          6           0      -12.565150   -2.557420   -0.276120
      8          6           0      -13.056300   -4.016147    0.060072
      9          6           0      -14.180938   -3.623375    1.201364
     10          6           0      -14.173970   -2.099957    1.279798
     11          6           0      -15.629696   -4.159724    0.830032
     12          6           0      -11.944184   -5.023666    0.516209
     13          6           0      -12.437971   -6.279263    1.224945
     14          1           0      -12.202381   -7.589126    0.450777
     15          7           0      -14.622933    0.973484    1.504146
     16          6           0      -15.380431    0.045686    2.179648
     17          6           0      -16.447674    0.655692    2.944322
     18          6           0      -16.324822    2.069909    2.643450
     19          6           0      -15.124235    2.188371    1.741475
     20          6           0      -17.364958   -0.016200    3.854007
     21          6           0      -17.145108    3.248251    3.138948
     22          8           0      -16.877699    4.395301    2.914255
     23          6           0      -18.401515    2.873485    3.879178
     24          7           0      -12.894942    2.712109   -0.354229
     25          6           0      -13.736658    3.652324    0.144382
     26          6           0      -13.377818    5.062273   -0.396346
     27          6           0      -12.070895    4.783741   -1.217265
     28          6           0      -11.902214    3.280327   -1.111055
     29          6           0      -14.457222    5.830680   -1.232429
     30          6           0      -10.774423    5.517831   -0.723815
     31          6           0      -10.722040    7.007158   -1.130468
     32          7           0      -11.572903    0.348339   -1.195744
     33          6           0      -10.779971    1.202919   -1.926469
     34          6           0       -9.874740    0.444049   -2.694229
     35          6           0      -10.142103   -0.860184   -2.507051
     36          6           0      -11.226529   -0.918101   -1.579977
     37          6           0       -8.771327    1.113552   -3.503042
     38          6           0       -9.867889   -2.257381   -2.857659
     39          8           0       -9.074646   -2.729420   -3.630678
     40          6           0      -10.828355   -3.201899   -1.989154
     41          6           0      -11.802657   -3.830749   -2.933425
     42          8           0      -12.870519   -3.453507   -3.360502
     43          8           0      -11.250898   -5.059656   -3.236699
     44          6           0      -12.018562   -5.934431   -4.154690
     45          1           0      -15.791472   -1.926590    2.597195
     46          1           0      -15.443028    4.217202    1.214221
     47          1           0      -10.286981    3.357477   -2.390021
     48          1           0      -13.615499   -4.382512   -0.801001
     49          1           0      -13.895023   -4.111467    2.133385
     50          1           0      -16.088780   -4.600549    1.714778
     51          1           0      -15.740617   -4.852751   -0.003515
     52          1           0      -16.297169   -3.325160    0.617568
     53          1           0      -11.330116   -4.357212    1.123298
     54          1           0      -11.221682   -5.369015   -0.223593
     55          1           0      -13.508425   -6.186837    1.406314
     56          1           0      -11.836256   -6.431852    2.120485
     57          1           0      -17.044903    0.437448    4.791993
     58          1           0      -17.248019   -1.098785    3.802314
     59          1           0      -18.431114    0.181310    3.744501
     60          1           0      -18.195354    2.849956    4.949161
     61          1           0      -18.997295    2.113260    3.373167
     62          1           0      -19.101205    3.651367    3.574805
     63          1           0      -12.979357    5.599347    0.464915
     64          1           0      -12.278762    4.939612   -2.276080
     65          1           0      -14.173644    6.109984   -2.247572
     66          1           0      -14.557996    6.799268   -0.743261
     67          1           0      -15.420378    5.329036   -1.326101
     68          1           0       -9.900615    5.039285   -1.164610
     69          1           0      -10.757144    5.358148    0.355185
     70          1           0      -11.375337    7.191970   -1.983418
     71          1           0       -9.673044    7.221842   -1.334134
     72          1           0      -11.089781    7.692269   -0.366017
     73          1           0       -7.919093    0.446790   -3.634753
     74          1           0       -8.486931    2.041217   -3.006292
     75          1           0       -9.159992    1.459068   -4.461244
     76          1           0      -10.262308   -3.943118   -1.424486
     77          1           0      -11.275356   -6.396712   -4.804218
     78          1           0      -12.759599   -5.411240   -4.758854
     79          1           0      -12.443018   -6.623399   -3.423783
     80         12           0       13.310380    0.547320   -0.236591
     81          6           0       11.307263   -2.194644    0.594853
     82          6           0       16.034181   -1.570688   -0.195570
     83          6           0       15.377689    3.261254   -0.345484
     84          6           0       10.610683    2.618995    0.405890
     85          7           0       13.557494   -1.605274    0.066891
     86          6           0       12.591245   -2.526376    0.172945
     87          6           0       13.064146   -3.976143   -0.008519
     88          6           0       14.628011   -3.786204   -0.076733
     89          6           0       14.800276   -2.168562   -0.169926
     90          6           0       15.464409   -4.392844    1.070491
     91          6           0       12.465980   -4.695367   -1.217751
     92          6           0       12.408959   -6.224544   -1.049093
     93          1           0       12.953147   -6.858973    0.238641
     94          7           0       15.393108    0.830326   -0.378912
     95          6           0       16.369758   -0.191568   -0.414382
     96          6           0       17.668883    0.426727   -0.587614
     97          6           0       17.505966    1.862135   -0.568122
     98          6           0       16.059519    2.048277   -0.464275
     99          6           0       18.896577   -0.406111   -0.834640
    100          6           0       18.570023    3.027919   -0.794133
    101          8           0       18.276856    4.194625   -0.893858
    102          6           0       20.021507    2.605834   -0.865497
    103          7           0       13.053286    2.612908    0.088237
    104          6           0       14.034250    3.551214   -0.047338
    105          6           0       13.486663    5.015859    0.124877
    106          6           0       11.989917    4.756081    0.287470
    107          6           0       11.887655    3.242605    0.264074
    108          6           0       14.113600    6.014420    1.179408
    109          6           0       11.179456    5.417133   -0.852038
    110          6           0       11.059002    4.682676   -2.205725
    111          7           0       11.280010    0.340807    0.235410
    112          6           0       10.296501    1.267172    0.467202
    113          6           0        9.053726    0.637735    0.764940
    114          6           0        9.397058   -0.786637    0.839031
    115          6           0       10.701907   -0.873704    0.544636
    116          6           0        7.716793    1.186050    1.003280
    117          6           0        8.919208   -2.114046    1.200456
    118          8           0        7.776672   -2.501315    1.467751
    119          6           0       10.113236   -3.103457    1.059149
    120          6           0       10.376998   -3.806824    2.310280
    121          8           0       10.964953   -3.350570    3.285156
    122          8           0        9.669662   -4.982766    2.322628
    123          6           0        9.422418   -5.674310    3.602751
    124          1           0       16.836795   -2.309149   -0.137641
    125          1           0       16.001673    4.130728   -0.562398
    126          1           0        9.735684    3.263270    0.513893
    127          1           0       12.914208   -4.563267    0.897237
    128          1           0       15.058560   -4.082800   -1.032496
    129          1           0       16.179971   -4.981907    0.497113
    130          1           0       14.847320   -5.032907    1.700612
    131          1           0       15.910172   -3.604292    1.676899
    132          1           0       12.995112   -4.456330   -2.139447
    133          1           0       11.445291   -4.353235   -1.390834
    134          1           0       12.986305   -6.540976   -1.918041
    135          1           0       11.412268   -6.619379   -1.251228
    136          1           0       18.591495   -1.435349   -0.645363
    137          1           0       19.686709   -0.083995   -0.156049
    138          1           0       19.286396   -0.302020   -1.848327
    139          1           0       20.507496    2.336286    0.072756
    140          1           0       20.570432    3.396137   -1.377543
    141          1           0       19.967659    1.739082   -1.524148
    142          1           0       13.732457    5.437733   -0.849387
    143          1           0       11.710594    5.173144    1.254338
    144          1           0       13.387139    6.526805    1.809031
    145          1           0       14.624578    6.805310    0.631241
    146          1           0       14.862075    5.463824    1.750036
    147          1           0       11.632704    6.397539   -0.993478
    148          1           0       10.189792    5.581540   -0.424836
    149          1           0       11.174247    5.468821   -2.951477
    150          1           0       10.079070    4.234496   -2.368334
    151          1           0       11.754600    3.853639   -2.331023
    152          1           0        7.001700    0.544790    0.489171
    153          1           0        7.566993    2.218095    0.686046
    154          1           0        7.435695    1.037751    2.046074
    155          1           0        9.804450   -3.773817    0.257185
    156          1           0        9.907157   -5.173782    4.441685
    157          1           0        9.851420   -6.673723    3.526361
    158          1           0        8.334769   -5.633356    3.649688
 ---------------------------------------------------------------------

 SCF Done:  E(RPBE1PBE) =  -4067.39992647     A.U. after   16 cycles

 Excitation energies and oscillator strengths:

 Excited State   1:      Singlet-A      1.8467 eV  671.37 nm  f=0.0000  <S**2>=0.000
     312 -> 313        0.70709
 This state for optimization and/or second-order correction.
 Total Energy, E(TD-HF/TD-DFT) =  -4067.33205982
 Copying the excited state density for this state as the 1-particle RhoCI density.

 Excited State   2:      Singlet-A      1.8598 eV  666.66 nm  f=0.4852  <S**2>=0.000
     309 -> 316        0.16619
     311 -> 313       -0.10488
     312 -> 314        0.68540
     312 <- 314       -0.10700

 Excited State   3:      Singlet-A      1.8758 eV  660.96 nm  f=0.3009  <S**2>=0.000
     310 -> 315        0.17277
     311 -> 313        0.68287
     312 -> 314        0.10494
     311 <- 313       -0.10810

 Excited State   4:      Singlet-A      2.0208 eV  613.53 nm  f=0.0000  <S**2>=0.000
     311 -> 314        0.70709

 Excited State   5:      Singlet-A      2.1488 eV  576.99 nm  f=0.1365  <S**2>=0.000
     310 -> 313        0.66651
     311 -> 315       -0.21043

 The electronic state is 1-A.
 Alpha  occ. eigenvalues --  -46.91940 -46.91638 -19.24527 -19.24441 -19.20047
 Alpha  occ. eigenvalues --  -19.20028 -19.19235 -19.19180 -19.19129 -19.18971
 Alpha  occ. eigenvalues --  -14.41674 -14.41653 -14.41444 -14.40822 -14.39227
 Alpha  occ. eigenvalues --  -14.39061 -14.38465 -14.37892 -10.35883 -10.35627
 Alpha  occ. eigenvalues --  -10.33244 -10.32354 -10.32255 -10.31853 -10.28624
 Alpha  occ. eigenvalues --  -10.28572 -10.28571 -10.28556 -10.28422 -10.28412
 Alpha  occ. eigenvalues --  -10.28367 -10.28360 -10.28065 -10.27952 -10.27911
 Alpha  occ. eigenvalues --  -10.27811 -10.27774 -10.27489 -10.26812 -10.26744
 Alpha  occ. eigenvalues --  -10.26688 -10.26634 -10.26571 -10.26395 -10.26346
 Alpha  occ. eigenvalues --  -10.26200 -10.26142 -10.25949 -10.25844 -10.25748
 Alpha  occ. eigenvalues --  -10.25564 -10.25471 -10.25464 -10.25443 -10.25288
 Alpha  occ. eigenvalues --  -10.25221 -10.25207 -10.24778 -10.24702 -10.24698
 Alpha  occ. eigenvalues --  -10.24658 -10.24652 -10.24553 -10.24542 -10.24389
 Alpha  occ. eigenvalues --  -10.24381 -10.24381 -10.24342 -10.24335 -10.24321
 Alpha  occ. eigenvalues --  -10.24114 -10.23961 -10.23609 -10.23538 -10.23437
 Alpha  occ. eigenvalues --  -10.23435 -10.23348 -10.23296 -10.23217 -10.23213
 Alpha  occ. eigenvalues --  -10.22983 -10.22970 -10.22962 -10.22851 -10.22532
 Alpha  occ. eigenvalues --  -10.22341  -3.14061  -3.13743  -1.86898  -1.86584
 Alpha  occ. eigenvalues --   -1.86416  -1.86308  -1.86113  -1.85972  -1.10354
 Alpha  occ. eigenvalues --   -1.09820  -1.06237  -1.06089  -1.05468  -1.03623
 Alpha  occ. eigenvalues --   -1.02200  -1.01431  -0.99016  -0.98420  -0.97948
 Alpha  occ. eigenvalues --   -0.97942  -0.97118  -0.97081  -0.96152  -0.95603
 Alpha  occ. eigenvalues --   -0.87296  -0.86442  -0.83428  -0.83177  -0.83016
 Alpha  occ. eigenvalues --   -0.82491  -0.82421  -0.82252  -0.81435  -0.81371
 Alpha  occ. eigenvalues --   -0.81142  -0.80689  -0.80383  -0.80324  -0.78454
 Alpha  occ. eigenvalues --   -0.78143  -0.77663  -0.77417  -0.76562  -0.76397
 Alpha  occ. eigenvalues --   -0.76183  -0.76066  -0.75298  -0.74994  -0.74512
 Alpha  occ. eigenvalues --   -0.74377  -0.72420  -0.72385  -0.71395  -0.71247
 Alpha  occ. eigenvalues --   -0.71108  -0.70873  -0.70185  -0.69795  -0.69359
 Alpha  occ. eigenvalues --   -0.69155  -0.67156  -0.66870  -0.65686  -0.65513
 Alpha  occ. eigenvalues --   -0.64137  -0.63913  -0.63079  -0.62822  -0.62140
 Alpha  occ. eigenvalues --   -0.62090  -0.61391  -0.60428  -0.59478  -0.59229
 Alpha  occ. eigenvalues --   -0.59094  -0.59092  -0.58918  -0.58762  -0.58409
 Alpha  occ. eigenvalues --   -0.58261  -0.55964  -0.55958  -0.54587  -0.54262
 Alpha  occ. eigenvalues --   -0.54021  -0.53639  -0.53574  -0.53305  -0.52819
 Alpha  occ. eigenvalues --   -0.52615  -0.52445  -0.52280  -0.51951  -0.51479
 Alpha  occ. eigenvalues --   -0.50654  -0.50382  -0.50111  -0.49963  -0.49663
 Alpha  occ. eigenvalues --   -0.49545  -0.49168  -0.48970  -0.48771  -0.48480
 Alpha  occ. eigenvalues --   -0.48224  -0.48217  -0.47791  -0.47428  -0.47255
 Alpha  occ. eigenvalues --   -0.47231  -0.46902  -0.46755  -0.46665  -0.46479
 Alpha  occ. eigenvalues --   -0.46380  -0.46227  -0.46194  -0.45877  -0.45483
 Alpha  occ. eigenvalues --   -0.45422  -0.45117  -0.45077  -0.44782  -0.44739
 Alpha  occ. eigenvalues --   -0.44378  -0.44190  -0.44181  -0.44071  -0.44014
 Alpha  occ. eigenvalues --   -0.43914  -0.43712  -0.43637  -0.43584  -0.43355
 Alpha  occ. eigenvalues --   -0.43139  -0.43029  -0.42871  -0.42740  -0.42607
 Alpha  occ. eigenvalues --   -0.42437  -0.42366  -0.42292  -0.41757  -0.41722
 Alpha  occ. eigenvalues --   -0.41400  -0.41380  -0.40968  -0.40968  -0.40843
 Alpha  occ. eigenvalues --   -0.40535  -0.40495  -0.40359  -0.40353  -0.40181
 Alpha  occ. eigenvalues --   -0.39973  -0.39941  -0.39869  -0.39754  -0.39725
 Alpha  occ. eigenvalues --   -0.39582  -0.39439  -0.39374  -0.39032  -0.38682
 Alpha  occ. eigenvalues --   -0.38615  -0.38599  -0.38421  -0.38238  -0.38210
 Alpha  occ. eigenvalues --   -0.37973  -0.37965  -0.37855  -0.37613  -0.37584
 Alpha  occ. eigenvalues --   -0.37437  -0.37379  -0.37219  -0.36875  -0.36818
 Alpha  occ. eigenvalues --   -0.36679  -0.36395  -0.36310  -0.35907  -0.35893
 Alpha  occ. eigenvalues --   -0.35736  -0.35704  -0.35572  -0.35519  -0.35321
 Alpha  occ. eigenvalues --   -0.35072  -0.34797  -0.34306  -0.33737  -0.33454
 Alpha  occ. eigenvalues --   -0.33298  -0.33057  -0.32771  -0.32726  -0.32659
 Alpha  occ. eigenvalues --   -0.32029  -0.31703  -0.31443  -0.31376  -0.31171
 Alpha  occ. eigenvalues --   -0.30607  -0.30575  -0.29522  -0.29353  -0.29076
 Alpha  occ. eigenvalues --   -0.28940  -0.28454  -0.28209  -0.26819  -0.26578
 Alpha  occ. eigenvalues --   -0.26312  -0.25732  -0.25707  -0.25699  -0.25428
 Alpha  occ. eigenvalues --   -0.25305  -0.25159  -0.24355  -0.20519  -0.20475
 Alpha  occ. eigenvalues --   -0.18859  -0.18548
 Alpha virt. eigenvalues --   -0.11252  -0.10926  -0.04844  -0.04672  -0.03597
 Alpha virt. eigenvalues --   -0.03260  -0.01895  -0.01724  -0.00182  -0.00139
 Alpha virt. eigenvalues --    0.00729   0.00873   0.01124   0.01458   0.01736

 Mulliken charges:
               1
     1  Mg  12.000000
     2  C    6.000000
     3  C    6.000000
     4  C    6.000000
     5  C    6.000000
     6  N    7.000000
     7  C    6.000000
     8  C    6.000000
     9  C    6.000000
    10  C    6.000000
    11  C    6.000000
    12  C    6.000000
    13  C    6.000000
    14  H    1.000000
    15  N    7.000000
    16  C    6.000000
    17  C    6.000000
    18  C    6.000000
    19  C    6.000000
    20  C    6.000000
    21  C    6.000000
    22  O    8.000000
    23  C    6.000000
    24  N    7.000000
    25  C    6.000000
    26  C    6.000000
    27  C    6.000000
    28  C    6.000000
    29  C    6.000000
    30  C    6.000000
    31  C    6.000000
    32  N    7.000000
    33  C    6.000000
    34  C    6.000000
    35  C    6.000000
    36  C    6.000000
    37  C    6.000000
    38  C    6.000000
    39  O    8.000000
    40  C    6.000000
    41  C    6.000000
    42  O    8.000000
    43  O    8.000000
    44  C    6.000000
    45  H    1.000000
    46  H    1.000000
    47  H    1.000000
    48  H    1.000000
    49  H    1.000000
    50  H    1.000000
    51  H    1.000000
    52  H    1.000000
    53  H    1.000000
    54  H    1.000000
    55  H    1.000000
    56  H    1.000000
    57  H    1.000000
    58  H    1.000000
    59  H    1.000000
    60  H    1.000000
    61  H    1.000000
    62  H    1.000000
    63  H    1.000000
    64  H    1.000000
    65  H    1.000000
    66  H    1.000000
    67  H    1.000000
    68  H    1.000000
    69  H    1.000000
    70  H    1.000000
    71  H    1.000000
    72  H    1.000000
    73  H    1.000000
    74  H    1.000000
    75  H    1.000000
    76  H    1.000000
    77  H    1.000000
    78  H    1.000000
    79  H    1.000000
    80  Mg  12.000000
    81  C    6.000000
    82  C    6.000000
    83  C    6.000000
    84  C    6.000000
    85  N    7.000000
    86  C    6.000000
    87  C    6.000000
    88  C    6.000000
    89  C    6.000000
    90  C    6.000000
    91  C    6.000000
    92  C    6.000000
    93  H    1.000000
    94  N    7.000000
    95  C    6.000000
    96  C    6.000000
    97  C    6.000000
    98  C    6.000000
    99  C    6.000000
   100  C    6.000000
   101  O    8.000000
   102  C    6.000000
   103  N    7.000000
   104  C    6.000000
   105  C    6.000000
   106  C    6.000000
   107  C    6.000000
   108  C    6.000000
   109  C    6.000000
   110  C    6.000000
   111  N    7.000000
   112  C    6.000000
   113  C    6.000000
   114  C    6.000000
   115  C    6.000000
   116  C    6.000000
   117  C    6.000000
   118  O    8.000000
   119  C    6.000000
   120  C    6.000000
   121  O    8.000000
   122  O    8.000000
   123  C    6.000000
   124  H    1.000000
   125  H    1.000000
   126  H    1.000000
   127  H    1.000000
   128  H    1.000000
   129  H    1.000000
   130  H    1.000000
   131  H    1.000000
   132  H    1.000000
   133  H    1.000000
   134  H    1.000000
   135  H    1.000000
   136  H    1.000000
   137  H    1.000000
   138  H    1.000000
   139  H    1.000000
   140  H    1.000000
   141  H    1.000000
   142  H    1.000000
   143  H    1.000000
   144  H    1.000000
   145  H    1.000000
   146  H    1.000000
   147  H    1.000000
   148  H    1.000000
   149  H    1.000000
   150  H    1.000000
   151  H    1.000000
   152  H    1.000000
   153  H    1.000000
   154  H    1.000000
   155  H    1.000000
   156  H    1.000000
   157  H    1.000000
   158  H    1.000000
 Sum of Mulliken charges = 624.00000

 Dipole moment (field-independent basis, Debye):
    X=              0.0000    Y=             -0.0000    Z=             -0.0000  Tot=              0.0000
 Quadrupole moment (field-independent basis, Debye-Ang):
   XX=             -0.0000   YY=              0.0000   ZZ=             -0.0000
   XY=              0.0000   XZ=              0.0000   YZ=             -0.0000

 Normal termination of Gaussian 16 at Thu Oct 14 13:20:56 2021.
