 Gaussian 16, Revision A.03,
 Gaussian 16:  ES64L-G16RevA.03 25-Dec-2016

 --------------------------------------------------------
 #p PBE1PBE/Def2SVP td=(nstates=5) density=(transition=1)
 --------------------------------------------------------

 --------------------------------
 TDDFT excited states in gaussian
 --------------------------------
 Symbolic Z-matrix:
 Charge =  0 Multiplicity = 1

                         Standard orientation:
 ---------------------------------------------------------------------
 Center     Atomic      Atomic             Coordinates (Angstroms)
 Number     Number       Type             X           Y           Z
 ---------------------------------------------------------------------
      1         12           0      -28.731015    0.370957    0.419940
      2          6           0      -26.870840   -2.122211   -1.066609
      3          6           0      -27.909302    2.391155   -2.421095
      4          6           0      -30.170302    2.923095    1.858066
      5          6           0      -29.163648   -1.572559    3.248505
      6          7           0      -27.312201    0.174545   -1.454324
      7          6           0      -26.887863   -0.995162   -1.902232
      8          6           0      -26.553031   -0.922772   -3.418886
      9          6           0      -26.378790    0.628017   -3.579010
     10          6           0      -27.247215    1.159039   -2.427286
     11          6           0      -24.879760    1.078125   -3.454318
     12          6           0      -27.780611   -1.502358   -4.156408
     13          6           0      -27.646436   -1.680765   -5.674827
     14          1           0      -26.471075   -1.072180   -6.413038
     15          7           0      -29.133951    2.328901   -0.151043
     16          6           0      -28.731331    2.944021   -1.386141
     17          6           0      -29.405640    4.234373   -1.427993
     18          6           0      -30.161712    4.347265   -0.219540
     19          6           0      -29.820687    3.183139    0.596879
     20          6           0      -29.330531    5.248538   -2.629663
     21          6           0      -31.179460    5.475114    0.154220
     22          8           0      -31.637217    5.476567    1.264030
     23          6           0      -31.534524    6.537274   -0.834972
     24          7           0      -29.641118    0.607487    2.278057
     25          6           0      -30.189301    1.778814    2.672702
     26          6           0      -30.715831    1.745770    4.106984
     27          6           0      -30.510891    0.260962    4.486966
     28          6           0      -29.705299   -0.282480    3.237678
     29          6           0      -30.022473    2.739266    5.110066
     30          6           0      -31.728755   -0.521855    4.906920
     31          6           0      -33.042809   -0.464265    4.091128
     32          7           0      -28.164972   -1.457482    1.059052
     33          6           0      -28.409384   -2.139245    2.216702
     34          6           0      -27.876081   -3.474254    2.045849
     35          6           0      -27.267732   -3.571080    0.747212
     36          6           0      -27.474744   -2.275254    0.199959
     37          6           0      -27.956251   -4.547502    3.086207
     38          6           0      -26.518631   -4.376416   -0.157765
     39          8           0      -26.065980   -5.539831   -0.087757
     40          6           0      -26.014029   -3.305967   -1.271139
     41          6           0      -26.042704   -4.034152   -2.615951
     42          8           0      -26.964292   -4.600726   -3.065324
     43          8           0      -24.797449   -3.942600   -3.169647
     44          6           0      -24.658429   -4.230704   -4.582340
     45          1           0      -27.599641    3.020892   -3.257209
     46          1           0      -30.616305    3.756218    2.405311
     47          1           0      -29.249300   -2.229404    4.115783
     48          1           0      -25.602290   -1.400474   -3.655061
     49          1           0      -26.823382    0.831778   -4.553434
     50          1           0      -24.489880    1.312707   -4.444040
     51          1           0      -24.326109    0.264037   -2.986128
     52          1           0      -24.747352    1.996188   -2.881772
     53          1           0      -28.597154   -0.791655   -4.031556
     54          1           0      -28.164120   -2.399599   -3.671596
     55          1           0      -28.592465   -1.569124   -6.205079
     56          1           0      -27.555792   -2.759008   -5.807596
     57          1           0      -29.072834    6.257335   -2.305777
     58          1           0      -30.300446    5.187464   -3.122995
     59          1           0      -28.622100    4.879615   -3.372346
     60          1           0      -32.544427    6.802909   -0.521717
     61          1           0      -31.647804    6.149136   -1.846561
     62          1           0      -30.828085    7.332513   -1.072806
     63          1           0      -31.772579    1.998359    4.022822
     64          1           0      -29.771476    0.121799    5.275604
     65          1           0      -29.998512    2.216999    6.066128
     66          1           0      -30.722296    3.575043    5.126145
     67          1           0      -29.073121    3.089424    4.704946
     68          1           0      -32.020262    0.047191    5.789067
     69          1           0      -31.593202   -1.576466    5.149092
     70          1           0      -33.934918   -0.071728    4.577341
     71          1           0      -33.402954   -1.463767    3.847535
     72          1           0      -32.885321    0.147801    3.202935
     73          1           0      -27.413472   -5.396324    2.671258
     74          1           0      -28.991563   -4.866421    3.213971
     75          1           0      -27.650783   -4.249317    4.088708
     76          1           0      -25.020495   -3.006600   -0.936777
     77          1           0      -23.869316   -4.955601   -4.382012
     78          1           0      -24.454875   -3.350843   -5.193048
     79          1           0      -25.506078   -4.758158   -5.020589
     80         12           0       28.774114    0.616578   -0.466280
     81          6           0       27.515314   -2.530101    0.711873
     82          6           0       25.771439    2.003977    0.882400
     83          6           0       30.091106    3.707305   -0.508699
     84          6           0       31.808005   -0.873385   -0.987651
     85          7           0       26.933157   -0.198435    0.676133
     86          6           0       26.632257   -1.486326    1.011210
     87          6           0       25.246896   -1.592211    1.739287
     88          6           0       24.603474   -0.168545    1.378766
     89          6           0       25.861553    0.611543    1.031924
     90          6           0       23.650395   -0.184000    0.205710
     91          6           0       25.360907   -1.990131    3.201576
     92          6           0       24.369482   -3.057812    3.732761
     93          1           0       23.078774   -2.633185    4.576338
     94          7           0       27.995429    2.665988    0.023126
     95          6           0       26.696362    2.980471    0.473762
     96          6           0       26.569747    4.440373    0.561862
     97          6           0       27.845844    4.952868    0.100689
     98          6           0       28.718579    3.810227   -0.063112
     99          6           0       25.404006    5.209212    1.059211
    100          6           0       28.154595    6.407204   -0.152397
    101          8           0       27.240231    7.199549   -0.115565
    102          6           0       29.531726    6.946426   -0.463527
    103          7           0       30.655876    1.237396   -0.592189
    104          6           0       30.912752    2.596542   -0.748787
    105          6           0       32.416206    2.752328   -0.988896
    106          6           0       32.897328    1.299125   -1.348982
    107          6           0       31.689780    0.498808   -0.994307
    108          6           0       32.899191    3.873724   -1.980355
    109          6           0       34.226904    0.787058   -0.714729
    110          6           0       35.293018    0.284174   -1.632595
    111          7           0       29.524461   -1.285920   -0.331644
    112          6           0       30.776531   -1.781031   -0.651931
    113          6           0       30.769821   -3.256692   -0.658023
    114          6           0       29.489251   -3.559938   -0.051948
    115          6           0       28.825980   -2.340956    0.118960
    116          6           0       31.836354   -4.233430   -1.078307
    117          6           0       28.623986   -4.696588    0.380896
    118          8           0       28.851715   -5.871344    0.438681
    119          6           0       27.390261   -4.032046    0.983131
    120          6           0       26.183996   -4.598106    0.295215
    121          8           0       26.021206   -4.367349   -0.883720
    122          8           0       25.257408   -5.294803    1.127734
    123          6           0       23.957710   -5.682509    0.500235
    124          1           0       24.844712    2.461662    1.235213
    125          1           0       30.664132    4.632576   -0.588731
    126          1           0       32.733955   -1.322741   -1.351735
    127          1           0       24.575073   -2.284511    1.232680
    128          1           0       24.173517    0.308549    2.259379
    129          1           0       24.236600   -0.164618   -0.712744
    130          1           0       22.984819    0.670986    0.323677
    131          1           0       22.999951   -1.048280    0.067402
    132          1           0       25.156624   -1.085960    3.774194
    133          1           0       26.410940   -2.196156    3.408977
    134          1           0       25.004118   -3.691846    4.352371
    135          1           0       23.962120   -3.697107    2.949429
    136          1           0       24.850152    5.524780    0.175555
    137          1           0       25.754693    6.139037    1.507138
    138          1           0       24.710111    4.758971    1.770077
    139          1           0       29.608346    8.032652   -0.507800
    140          1           0       29.779741    6.554595   -1.450040
    141          1           0       30.378239    6.633526    0.146587
    142          1           0       32.750423    3.126252   -0.020691
    143          1           0       32.902127    1.205205   -2.434508
    144          1           0       32.088226    4.175739   -2.643637
    145          1           0       33.783395    3.545120   -2.526225
    146          1           0       33.246389    4.743344   -1.422827
    147          1           0       33.992280   -0.002255   -0.000635
    148          1           0       34.599732    1.584166   -0.071655
    149          1           0       35.343987   -0.801844   -1.557567
    150          1           0       36.258789    0.684017   -1.323841
    151          1           0       35.191026    0.506438   -2.694588
    152          1           0       31.406038   -5.207939   -1.308179
    153          1           0       32.541128   -4.294520   -0.248579
    154          1           0       32.397323   -3.780755   -1.896129
    155          1           0       27.441053   -4.170336    2.063235
    156          1           0       24.106931   -6.576489   -0.105508
    157          1           0       23.610446   -4.909127   -0.184556
    158          1           0       23.192556   -5.839283    1.260295
 ---------------------------------------------------------------------

 SCF Done:  E(RPBE1PBE) =  -4067.37135491     A.U. after   16 cycles

 Excitation energies and oscillator strengths:

 Excited State   1:      Singlet-A      1.8362 eV  675.21 nm  f=0.3805  <S**2>=0.000
     309 -> 316        0.16426
     311 -> 313        0.69669
     311 <- 313       -0.11952
 This state for optimization and/or second-order correction.
 Total Energy, E(TD-HF/TD-DFT) =  -4067.30387457
 Copying the excited state density for this state as the 1-particle RhoCI density.

 Excited State   2:      Singlet-A      1.8859 eV  657.44 nm  f=0.3664  <S**2>=0.000
     310 -> 315       -0.19015
     312 -> 314        0.68805
     312 <- 314       -0.10014

 Excited State   3:      Singlet-A      1.9323 eV  641.64 nm  f=0.0000  <S**2>=0.000
     312 -> 313        0.70711

 Excited State   4:      Singlet-A      2.0703 eV  598.87 nm  f=0.0000  <S**2>=0.000
     311 -> 314        0.70711

 Excited State   5:      Singlet-A      2.2137 eV  560.07 nm  f=0.0903  <S**2>=0.000
     310 -> 314        0.64982
     312 -> 315        0.26392

 The electronic state is 1-A.
 Alpha  occ. eigenvalues --  -46.92731 -46.91658 -19.25854 -19.25019 -19.20854
 Alpha  occ. eigenvalues --  -19.20393 -19.19826 -19.19346 -19.19192 -19.18232
 Alpha  occ. eigenvalues --  -14.42122 -14.41352 -14.41246 -14.41169 -14.39009
 Alpha  occ. eigenvalues --  -14.38998 -14.38918 -14.38819 -10.37175 -10.35863
 Alpha  occ. eigenvalues --  -10.32469 -10.32456 -10.32151 -10.31684 -10.29449
 Alpha  occ. eigenvalues --  -10.29122 -10.29017 -10.28660 -10.28480 -10.28374
 Alpha  occ. eigenvalues --  -10.28367 -10.28284 -10.28245 -10.28180 -10.28152
 Alpha  occ. eigenvalues --  -10.27939 -10.27915 -10.27276 -10.27219 -10.26930
 Alpha  occ. eigenvalues --  -10.26783 -10.26698 -10.26691 -10.26385 -10.26362
 Alpha  occ. eigenvalues --  -10.26346 -10.26275 -10.26255 -10.26240 -10.26163
 Alpha  occ. eigenvalues --  -10.25919 -10.25869 -10.25761 -10.25627 -10.25619
 Alpha  occ. eigenvalues --  -10.25567 -10.25454 -10.25400 -10.25316 -10.25275
 Alpha  occ. eigenvalues --  -10.25247 -10.25108 -10.24778 -10.24713 -10.24463
 Alpha  occ. eigenvalues --  -10.24327 -10.24326 -10.24313 -10.24221 -10.24183
 Alpha  occ. eigenvalues --  -10.24076 -10.24064 -10.24034 -10.23928 -10.23812
 Alpha  occ. eigenvalues --  -10.23752 -10.23537 -10.23502 -10.23378 -10.23226
 Alpha  occ. eigenvalues --  -10.23211 -10.23176 -10.23151 -10.22826 -10.22683
 Alpha  occ. eigenvalues --  -10.22634  -3.14878  -3.13873  -1.87664  -1.87258
 Alpha  occ. eigenvalues --   -1.87106  -1.86714  -1.86263  -1.86087  -1.12340
 Alpha  occ. eigenvalues --   -1.10010  -1.06399  -1.06324  -1.04997  -1.04607
 Alpha  occ. eigenvalues --   -1.02669  -1.02633  -0.99871  -0.99233  -0.98652
 Alpha  occ. eigenvalues --   -0.98189  -0.97680  -0.97370  -0.96813  -0.96193
 Alpha  occ. eigenvalues --   -0.87332  -0.87028  -0.83722  -0.83655  -0.83137
 Alpha  occ. eigenvalues --   -0.83047  -0.82781  -0.82763  -0.81898  -0.81647
 Alpha  occ. eigenvalues --   -0.80701  -0.80545  -0.79956  -0.79944  -0.78757
 Alpha  occ. eigenvalues --   -0.78353  -0.78271  -0.77997  -0.76762  -0.76712
 Alpha  occ. eigenvalues --   -0.76022  -0.75956  -0.75727  -0.74843  -0.74602
 Alpha  occ. eigenvalues --   -0.74511  -0.72491  -0.72328  -0.71789  -0.71663
 Alpha  occ. eigenvalues --   -0.71090  -0.71070  -0.70593  -0.70175  -0.69892
 Alpha  occ. eigenvalues --   -0.69598  -0.67101  -0.67092  -0.66448  -0.66224
 Alpha  occ. eigenvalues --   -0.64630  -0.63909  -0.63304  -0.63290  -0.62497
 Alpha  occ. eigenvalues --   -0.62342  -0.61133  -0.60680  -0.60397  -0.59655
 Alpha  occ. eigenvalues --   -0.59513  -0.59415  -0.59135  -0.58836  -0.58816
 Alpha  occ. eigenvalues --   -0.58625  -0.56883  -0.56868  -0.55075  -0.54349
 Alpha  occ. eigenvalues --   -0.54192  -0.53984  -0.53788  -0.53713  -0.53468
 Alpha  occ. eigenvalues --   -0.53371  -0.52995  -0.52723  -0.52371  -0.52239
 Alpha  occ. eigenvalues --   -0.51108  -0.50754  -0.50582  -0.50239  -0.50193
 Alpha  occ. eigenvalues --   -0.50050  -0.49849  -0.48795  -0.48784  -0.48437
 Alpha  occ. eigenvalues --   -0.48274  -0.48066  -0.47897  -0.47724  -0.47661
 Alpha  occ. eigenvalues --   -0.47484  -0.46991  -0.46884  -0.46735  -0.46594
 Alpha  occ. eigenvalues --   -0.46329  -0.46255  -0.46248  -0.45889  -0.45565
 Alpha  occ. eigenvalues --   -0.45467  -0.45359  -0.45256  -0.45077  -0.44765
 Alpha  occ. eigenvalues --   -0.44623  -0.44486  -0.44433  -0.44305  -0.44263
 Alpha  occ. eigenvalues --   -0.44112  -0.43931  -0.43930  -0.43900  -0.43784
 Alpha  occ. eigenvalues --   -0.43346  -0.43317  -0.43270  -0.42911  -0.42817
 Alpha  occ. eigenvalues --   -0.42787  -0.42627  -0.42381  -0.42301  -0.41836
 Alpha  occ. eigenvalues --   -0.41662  -0.41535  -0.41416  -0.41248  -0.41107
 Alpha  occ. eigenvalues --   -0.41025  -0.40870  -0.40814  -0.40688  -0.40677
 Alpha  occ. eigenvalues --   -0.40640  -0.40606  -0.40232  -0.39951  -0.39930
 Alpha  occ. eigenvalues --   -0.39689  -0.39654  -0.39518  -0.39380  -0.38693
 Alpha  occ. eigenvalues --   -0.38602  -0.38437  -0.38258  -0.38186  -0.38159
 Alpha  occ. eigenvalues --   -0.38120  -0.37792  -0.37781  -0.37711  -0.37587
 Alpha  occ. eigenvalues --   -0.37497  -0.37426  -0.37217  -0.37174  -0.36942
 Alpha  occ. eigenvalues --   -0.36815  -0.36806  -0.36670  -0.36396  -0.36393
 Alpha  occ. eigenvalues --   -0.36301  -0.36024  -0.35828  -0.35650  -0.35525
 Alpha  occ. eigenvalues --   -0.35206  -0.35094  -0.34444  -0.34412  -0.34231
 Alpha  occ. eigenvalues --   -0.33442  -0.33324  -0.32799  -0.32683  -0.32532
 Alpha  occ. eigenvalues --   -0.32343  -0.32164  -0.32037  -0.31561  -0.31286
 Alpha  occ. eigenvalues --   -0.30876  -0.30850  -0.30129  -0.29783  -0.29554
 Alpha  occ. eigenvalues --   -0.29125  -0.28828  -0.28825  -0.26954  -0.26847
 Alpha  occ. eigenvalues --   -0.26342  -0.26031  -0.25620  -0.25318  -0.25237
 Alpha  occ. eigenvalues --   -0.25233  -0.24984  -0.24400  -0.21202  -0.20749
 Alpha  occ. eigenvalues --   -0.18778  -0.18728
 Alpha virt. eigenvalues --   -0.11396  -0.10939  -0.05343  -0.05022  -0.04006
 Alpha virt. eigenvalues --   -0.03544  -0.01959  -0.01804  -0.01548  -0.00206
 Alpha virt. eigenvalues --    0.00244   0.00280   0.01250   0.01293   0.01482

 Mulliken charges:
               1
     1  Mg  11.999975
     2  C    5.999980
     3  C    5.999953
     4  C    5.999920
     5  C    5.999984
     6  N    6.999949
     7  C    5.999984
     8  C    6.000016
     9  C    5.999970
    10  C    6.000103
    11  C    5.999998
    12  C    6.000024
    13  C    5.999999
    14  H    1.000004
    15  N    7.000009
    16  C    6.000147
    17  C    5.999969
    18  C    6.000087
    19  C    6.000016
    20  C    5.999985
    21  C    6.000043
    22  O    8.000045
    23  C    5.999979
    24  N    7.000044
    25  C    6.000079
    26  C    5.999976
    27  C    6.000007
    28  C    5.999951
    29  C    6.000018
    30  C    6.000024
    31  C    6.000009
    32  N    6.999963
    33  C    6.000004
    34  C    5.999783
    35  C    6.000105
    36  C    5.999967
    37  C    6.000018
    38  C    5.999976
    39  O    7.999900
    40  C    6.000028
    41  C    5.999960
    42  O    7.999992
    43  O    8.000013
    44  C    6.000004
    45  H    1.000025
    46  H    1.000035
    47  H    0.999988
    48  H    1.000006
    49  H    1.000004
    50  H    1.000018
    51  H    1.000033
    52  H    1.000013
    53  H    0.999965
    54  H    1.000007
    55  H    0.999981
    56  H    0.999993
    57  H    1.000048
    58  H    1.000024
    59  H    1.000047
    60  H    1.000023
    61  H    1.000011
    62  H    1.000040
    63  H    0.999993
    64  H    1.000009
    65  H    1.000017
    66  H    0.999994
    67  H    1.000014
    68  H    0.999981
    69  H    1.000001
    70  H    0.999980
    71  H    0.999992
    72  H    0.999984
    73  H    0.999969
    74  H    0.999933
    75  H    0.999958
    76  H    0.999990
    77  H    0.999991
    78  H    0.999995
    79  H    0.999979
    80  Mg  11.999741
    81  C    5.977656
    82  C    5.999401
    83  C    6.032430
    84  C    5.999488
    85  N    6.985112
    86  C    6.028777
    87  C    5.991254
    88  C    6.007987
    89  C    5.974159
    90  C    6.005846
    91  C    5.995883
    92  C    5.999618
    93  H    1.007209
    94  N    7.003324
    95  C    5.962626
    96  C    5.975924
    97  C    5.993057
    98  C    5.961156
    99  C    6.004860
   100  C    5.988813
   101  O    7.982571
   102  C    6.002222
   103  N    7.009678
   104  C    5.962839
   105  C    6.008502
   106  C    5.989067
   107  C    6.029381
   108  C    6.000490
   109  C    5.995804
   110  C    5.998781
   111  N    7.000023
   112  C    6.031332
   113  C    6.032608
   114  C    6.001695
   115  C    6.030380
   116  C    6.000232
   117  C    6.017774
   118  O    8.024804
   119  C    6.000251
   120  C    6.005002
   121  O    8.002649
   122  O    8.001988
   123  C    5.998307
   124  H    0.987424
   125  H    0.996451
   126  H    1.013173
   127  H    1.000880
   128  H    0.999080
   129  H    0.994854
   130  H    1.001223
   131  H    0.984511
   132  H    1.010065
   133  H    0.994199
   134  H    0.997025
   135  H    0.997544
   136  H    0.980915
   137  H    0.985098
   138  H    0.981837
   139  H    0.988706
   140  H    0.989841
   141  H    0.988798
   142  H    1.000156
   143  H    1.003979
   144  H    1.003255
   145  H    0.992198
   146  H    1.003392
   147  H    0.996578
   148  H    1.011479
   149  H    0.996296
   150  H    1.006318
   151  H    1.004246
   152  H    1.015042
   153  H    1.020207
   154  H    1.015747
   155  H    1.007784
   156  H    1.000710
   157  H    1.005532
   158  H    1.004760
 Sum of Mulliken charges = 624.00000

 Dipole moment (field-independent basis, Debye):
    X=              4.6557    Y=             -9.3026    Z=             -1.0357  Tot=             10.4540
 Quadrupole moment (field-independent basis, Debye-Ang):
   XX=            269.5937   YY=            -11.7059   ZZ=              0.7533
   XY=           -264.1857   XZ=            -30.7000   YZ=             -0.6457

 Normal termination of Gaussian 16 at Thu Oct 14 07:37:52 2021.
