 Gaussian 16, Revision A.03,
 Gaussian 16:  ES64L-G16RevA.03 25-Dec-2016

 --------------------------------------------------------
 #p PBE1PBE/Def2SVP td=(nstates=5) density=(transition=1)
 --------------------------------------------------------

 --------------------------------
 TDDFT excited states in gaussian
 --------------------------------
 Symbolic Z-matrix:
 Charge =  0 Multiplicity = 1

                         Standard orientation:
 ---------------------------------------------------------------------
 Center     Atomic      Atomic             Coordinates (Angstroms)
 Number     Number       Type             X           Y           Z
 ---------------------------------------------------------------------
      1         12           0       29.337408    0.398556    0.550444
      2          6           0       29.149628   -2.175198   -1.869571
      3          6           0       28.637877    2.694627   -1.929553
      4          6           0       29.811041    2.865057    2.825014
      5          6           0       30.254524   -1.946819    2.989198
      6          7           0       29.057331    0.182592   -1.635175
      7          6           0       28.800274   -0.966599   -2.379031
      8          6           0       28.370088   -0.611935   -3.861113
      9          6           0       28.501030    0.934453   -3.868290
     10          6           0       28.802640    1.326808   -2.404564
     11          6           0       29.549647    1.586044   -4.845513
     12          6           0       27.013065   -1.243565   -4.378060
     13          6           0       27.137980   -2.127191   -5.582205
     14          1           0       25.952103   -2.052798   -6.623671
     15          7           0       29.237808    2.433123    0.410409
     16          6           0       28.870752    3.219636   -0.662631
     17          6           0       28.939622    4.621463   -0.280745
     18          6           0       29.275478    4.727650    1.098647
     19          6           0       29.440913    3.290283    1.527975
     20          6           0       28.529189    5.787962   -1.201881
     21          6           0       29.404412    5.960532    1.987397
     22          8           0       29.613525    5.913714    3.182158
     23          6           0       29.176314    7.446101    1.488357
     24          7           0       30.048142    0.450016    2.615811
     25          6           0       30.146950    1.574651    3.312457
     26          6           0       30.607588    1.313454    4.790869
     27          6           0       30.558672   -0.262787    4.887311
     28          6           0       30.241693   -0.638106    3.408141
     29          6           0       31.955477    2.020161    5.115228
     30          6           0       29.563076   -0.741880    5.925190
     31          6           0       30.062157   -1.908532    6.775817
     32          7           0       29.796541   -1.631831    0.628165
     33          6           0       30.057073   -2.473606    1.692445
     34          6           0       30.278998   -3.781251    1.156421
     35          6           0       29.901995   -3.752539   -0.209145
     36          6           0       29.608892   -2.395565   -0.520732
     37          6           0       30.724871   -4.971173    1.918434
     38          6           0       29.660808   -4.583781   -1.401438
     39          8           0       29.884602   -5.764015   -1.654149
     40          6           0       29.085874   -3.474979   -2.576029
     41          6           0       29.923034   -3.523671   -3.733908
     42          8           0       30.744092   -2.681948   -4.027400
     43          8           0       29.579580   -4.584374   -4.541322
     44          6           0       30.460618   -4.708176   -5.729239
     45          1           0       28.299314    3.440318   -2.652154
     46          1           0       30.024011    3.619605    3.584431
     47          1           0       30.457903   -2.618153    3.826876
     48          1           0       29.223393   -0.920147   -4.464286
     49          1           0       27.547715    1.399705   -4.119130
     50          1           0       29.076736    2.478008   -5.257617
     51          1           0       29.799762    0.858229   -5.617022
     52          1           0       30.481190    1.890190   -4.367792
     53          1           0       26.343742   -0.401788   -4.556135
     54          1           0       26.632395   -1.869569   -3.570842
     55          1           0       27.194661   -3.170190   -5.267929
     56          1           0       28.084591   -1.818078   -6.024563
     57          1           0       27.631973    6.203836   -0.744834
     58          1           0       28.182862    5.382792   -2.152965
     59          1           0       29.259933    6.590724   -1.307854
     60          1           0       28.174980    7.505099    1.060438
     61          1           0       30.024223    7.838405    0.926106
     62          1           0       29.324278    8.055014    2.379724
     63          1           0       29.896472    1.668158    5.536656
     64          1           0       31.582476   -0.578663    5.088652
     65          1           0       32.629418    1.285278    5.556431
     66          1           0       31.839256    2.912801    5.730391
     67          1           0       32.412366    2.375407    4.193018
     68          1           0       28.608105   -1.020769    5.481028
     69          1           0       29.233653    0.031898    6.620360
     70          1           0       30.989515   -2.322645    6.379936
     71          1           0       29.294680   -2.680441    6.712365
     72          1           0       30.119431   -1.657720    7.835139
     73          1           0       30.921640   -4.840569    2.982496
     74          1           0       31.486870   -5.453438    1.304972
     75          1           0       29.805032   -5.547946    2.017946
     76          1           0       28.065583   -3.746389   -2.848532
     77          1           0       31.493461   -4.849924   -5.410287
     78          1           0       30.277326   -3.819127   -6.332587
     79          1           0       30.232149   -5.582156   -6.337962
     80         12           0      -29.881864   -0.617892   -0.346272
     81          6           0      -28.049113    2.331802   -0.288197
     82          6           0      -27.235155   -2.210267    1.390918
     83          6           0      -31.968355   -3.040592    0.623901
     84          6           0      -32.649285    1.272228   -1.440574
     85          7           0      -27.956440    0.125422    0.790529
     86          6           0      -27.361006    1.302011    0.403966
     87          6           0      -25.976398    1.424561    0.958416
     88          6           0      -25.619281   -0.102040    1.265559
     89          6           0      -27.014375   -0.816822    1.184439
     90          6           0      -24.530558   -0.781493    0.291032
     91          6           0      -25.943708    2.479523    2.180475
     92          6           0      -24.663629    3.111233    2.400823
     93          1           0      -24.130836    2.943870    3.839652
     94          7           0      -29.627837   -2.454864    0.672010
     95          6           0      -28.450436   -2.934344    1.311423
     96          6           0      -28.745910   -4.256728    1.836480
     97          6           0      -30.114026   -4.546027    1.612988
     98          6           0      -30.622280   -3.351166    0.858865
     99          6           0      -27.755939   -5.028444    2.626746
    100          6           0      -30.849258   -5.849913    2.137061
    101          8           0      -30.166026   -6.660780    2.760501
    102          6           0      -32.232083   -6.254501    1.637885
    103          7           0      -31.991571   -0.757583   -0.330452
    104          6           0      -32.566180   -1.936453    0.018759
    105          6           0      -34.217097   -1.884284   -0.037648
    106          6           0      -34.414652   -0.557289   -0.916086
    107          6           0      -32.975408    0.047335   -0.950418
    108          6           0      -34.920321   -3.115685   -0.724491
    109          6           0      -35.419813    0.422426   -0.307618
    110          6           0      -36.675775    0.863054   -1.097072
    111          7           0      -30.203427    1.298599   -1.044483
    112          6           0      -31.350987    1.894838   -1.480370
    113          6           0      -31.039946    3.207572   -1.975170
    114          6           0      -29.711490    3.421867   -1.446813
    115          6           0      -29.294413    2.217514   -0.854772
    116          6           0      -32.003818    4.184672   -2.583839
    117          6           0      -28.692847    4.433230   -1.256190
    118          8           0      -28.594220    5.522489   -1.733869
    119          6           0      -27.470656    3.763378   -0.515363
    120          6           0      -26.177770    3.671200   -1.355471
    121          8           0      -26.118800    3.230123   -2.483096
    122          8           0      -25.112333    4.267560   -0.649954
    123          6           0      -23.877409    4.423334   -1.357530
    124          1           0      -26.358958   -2.661564    1.859426
    125          1           0      -32.714049   -3.669346    1.114533
    126          1           0      -33.529805    1.812241   -1.793462
    127          1           0      -25.236723    1.636897    0.185779
    128          1           0      -25.250244   -0.160998    2.290126
    129          1           0      -23.714351   -1.085835    0.946105
    130          1           0      -24.180559   -0.106992   -0.489797
    131          1           0      -25.012321   -1.661873   -0.135316
    132          1           0      -26.186676    1.864723    3.046967
    133          1           0      -26.797849    3.109777    1.931369
    134          1           0      -24.808067    4.167819    2.178499
    135          1           0      -23.909342    2.663397    1.753893
    136          1           0      -26.754207   -4.608641    2.536830
    137          1           0      -27.659028   -6.035253    2.219722
    138          1           0      -28.010419   -5.030730    3.686881
    139          1           0      -33.026188   -5.571647    1.941529
    140          1           0      -32.429651   -7.261582    2.006576
    141          1           0      -32.176798   -6.317031    0.551025
    142          1           0      -34.493806   -1.699422    0.999950
    143          1           0      -34.622247   -0.731956   -1.972008
    144          1           0      -35.488493   -3.675256    0.018015
    145          1           0      -34.163262   -3.771398   -1.156279
    146          1           0      -35.580262   -2.708566   -1.491295
    147          1           0      -34.927781    1.315398    0.077210
    148          1           0      -35.832093    0.113819    0.652918
    149          1           0      -36.715737    1.895760   -1.444582
    150          1           0      -37.498019    0.768378   -0.387400
    151          1           0      -36.831360    0.235335   -1.975315
    152          1           0      -31.409154    4.926032   -3.118137
    153          1           0      -32.446639    4.893550   -1.884903
    154          1           0      -32.809652    3.737038   -3.164925
    155          1           0      -27.292487    4.442958    0.318491
    156          1           0      -23.175702    4.405803   -0.522992
    157          1           0      -23.768094    5.424687   -1.773629
    158          1           0      -23.773306    3.663642   -2.131176
 ---------------------------------------------------------------------

 SCF Done:  E(RPBE1PBE) =  -4067.34626255     A.U. after   16 cycles

 Excitation energies and oscillator strengths:

 Excited State   1:      Singlet-A      1.8323 eV  676.64 nm  f=0.3788  <S**2>=0.000
     309 -> 316        0.16910
     312 -> 313        0.69537
     312 <- 313       -0.11106
 This state for optimization and/or second-order correction.
 Total Energy, E(TD-HF/TD-DFT) =  -4067.27892501
 Copying the excited state density for this state as the 1-particle RhoCI density.

 Excited State   2:      Singlet-A      1.8743 eV  661.48 nm  f=0.3634  <S**2>=0.000
     310 -> 315        0.17478
     311 -> 314        0.69059

 Excited State   3:      Singlet-A      2.0079 eV  617.49 nm  f=0.0000  <S**2>=0.000
     311 -> 313        0.70711

 Excited State   4:      Singlet-A      2.0393 eV  607.97 nm  f=0.0000  <S**2>=0.000
     312 -> 314        0.70711

 Excited State   5:      Singlet-A      2.2446 eV  552.37 nm  f=0.1092  <S**2>=0.000
     310 -> 314        0.65161
     311 -> 315       -0.25998

 The electronic state is 1-A.
 Alpha  occ. eigenvalues --  -46.93198 -46.91669 -19.25832 -19.25022 -19.20980
 Alpha  occ. eigenvalues --  -19.19985 -19.19764 -19.19746 -19.19516 -19.18641
 Alpha  occ. eigenvalues --  -14.41812 -14.41717 -14.41661 -14.41245 -14.39889
 Alpha  occ. eigenvalues --  -14.39754 -14.38841 -14.38667 -10.37158 -10.35345
 Alpha  occ. eigenvalues --  -10.33467 -10.33407 -10.33255 -10.31314 -10.29963
 Alpha  occ. eigenvalues --  -10.29405 -10.29327 -10.29194 -10.28720 -10.28713
 Alpha  occ. eigenvalues --  -10.28552 -10.28536 -10.28473 -10.28425 -10.28415
 Alpha  occ. eigenvalues --  -10.28333 -10.28198 -10.27851 -10.27670 -10.27374
 Alpha  occ. eigenvalues --  -10.27107 -10.26792 -10.26749 -10.26564 -10.26264
 Alpha  occ. eigenvalues --  -10.26249 -10.26206 -10.26166 -10.26044 -10.25978
 Alpha  occ. eigenvalues --  -10.25874 -10.25743 -10.25693 -10.25686 -10.25646
 Alpha  occ. eigenvalues --  -10.25604 -10.25499 -10.25468 -10.25382 -10.25352
 Alpha  occ. eigenvalues --  -10.25349 -10.25289 -10.25129 -10.25105 -10.25079
 Alpha  occ. eigenvalues --  -10.24394 -10.24307 -10.24239 -10.24219 -10.24143
 Alpha  occ. eigenvalues --  -10.24141 -10.24133 -10.24112 -10.24034 -10.23920
 Alpha  occ. eigenvalues --  -10.23761 -10.23680 -10.23641 -10.23352 -10.23347
 Alpha  occ. eigenvalues --  -10.23236 -10.23111 -10.22908 -10.22798 -10.22709
 Alpha  occ. eigenvalues --  -10.22626  -3.15198  -3.13779  -1.87985  -1.87627
 Alpha  occ. eigenvalues --   -1.87386  -1.86627  -1.86146  -1.86010  -1.10873
 Alpha  occ. eigenvalues --   -1.10673  -1.05948  -1.05727  -1.04872  -1.04346
 Alpha  occ. eigenvalues --   -1.03604  -1.02312  -0.99825  -0.98708  -0.97408
 Alpha  occ. eigenvalues --   -0.97010  -0.96951  -0.96649  -0.96186  -0.95655
 Alpha  occ. eigenvalues --   -0.86698  -0.86381  -0.83532  -0.83457  -0.82673
 Alpha  occ. eigenvalues --   -0.82616  -0.82434  -0.82219  -0.81261  -0.81197
 Alpha  occ. eigenvalues --   -0.81191  -0.80814  -0.80261  -0.80091  -0.78619
 Alpha  occ. eigenvalues --   -0.78320  -0.77990  -0.77682  -0.76918  -0.76802
 Alpha  occ. eigenvalues --   -0.76375  -0.75496  -0.75351  -0.75016  -0.74638
 Alpha  occ. eigenvalues --   -0.74175  -0.72494  -0.72231  -0.71589  -0.71311
 Alpha  occ. eigenvalues --   -0.71032  -0.70812  -0.70499  -0.70109  -0.69283
 Alpha  occ. eigenvalues --   -0.69088  -0.67160  -0.66807  -0.65791  -0.65751
 Alpha  occ. eigenvalues --   -0.63623  -0.63332  -0.63259  -0.62944  -0.61994
 Alpha  occ. eigenvalues --   -0.61870  -0.61533  -0.60847  -0.60324  -0.60064
 Alpha  occ. eigenvalues --   -0.59352  -0.59351  -0.59062  -0.58972  -0.58888
 Alpha  occ. eigenvalues --   -0.58711  -0.57435  -0.55802  -0.54416  -0.54237
 Alpha  occ. eigenvalues --   -0.54085  -0.53814  -0.53558  -0.53309  -0.53077
 Alpha  occ. eigenvalues --   -0.52639  -0.52619  -0.52407  -0.52050  -0.51796
 Alpha  occ. eigenvalues --   -0.50852  -0.50502  -0.50288  -0.49969  -0.49577
 Alpha  occ. eigenvalues --   -0.49386  -0.49273  -0.48883  -0.48621  -0.48318
 Alpha  occ. eigenvalues --   -0.47868  -0.47746  -0.47650  -0.47352  -0.47227
 Alpha  occ. eigenvalues --   -0.47170  -0.47148  -0.46962  -0.46781  -0.46600
 Alpha  occ. eigenvalues --   -0.46315  -0.46307  -0.46199  -0.46059  -0.45666
 Alpha  occ. eigenvalues --   -0.45648  -0.45481  -0.45377  -0.45226  -0.44865
 Alpha  occ. eigenvalues --   -0.44782  -0.44501  -0.44290  -0.44254  -0.44190
 Alpha  occ. eigenvalues --   -0.44117  -0.43993  -0.43907  -0.43844  -0.43430
 Alpha  occ. eigenvalues --   -0.43266  -0.43141  -0.42923  -0.42742  -0.42701
 Alpha  occ. eigenvalues --   -0.42688  -0.42539  -0.42403  -0.42069  -0.41951
 Alpha  occ. eigenvalues --   -0.41687  -0.41577  -0.41468  -0.41169  -0.41151
 Alpha  occ. eigenvalues --   -0.40913  -0.40883  -0.40851  -0.40630  -0.40411
 Alpha  occ. eigenvalues --   -0.40293  -0.39975  -0.39951  -0.39753  -0.39673
 Alpha  occ. eigenvalues --   -0.39569  -0.39386  -0.39351  -0.39196  -0.38901
 Alpha  occ. eigenvalues --   -0.38845  -0.38694  -0.38684  -0.38472  -0.38460
 Alpha  occ. eigenvalues --   -0.38237  -0.38182  -0.37954  -0.37930  -0.37574
 Alpha  occ. eigenvalues --   -0.37544  -0.37477  -0.37404  -0.37326  -0.37210
 Alpha  occ. eigenvalues --   -0.37060  -0.36913  -0.36390  -0.36335  -0.36088
 Alpha  occ. eigenvalues --   -0.35975  -0.35894  -0.35443  -0.35352  -0.35203
 Alpha  occ. eigenvalues --   -0.34921  -0.34790  -0.34610  -0.34368  -0.33651
 Alpha  occ. eigenvalues --   -0.33622  -0.33161  -0.32763  -0.32652  -0.32250
 Alpha  occ. eigenvalues --   -0.32090  -0.31940  -0.31652  -0.31265  -0.31252
 Alpha  occ. eigenvalues --   -0.31001  -0.30700  -0.29787  -0.29422  -0.29318
 Alpha  occ. eigenvalues --   -0.28985  -0.28891  -0.28717  -0.27139  -0.26904
 Alpha  occ. eigenvalues --   -0.26203  -0.26201  -0.25929  -0.25601  -0.25588
 Alpha  occ. eigenvalues --   -0.25111  -0.24978  -0.24679  -0.21214  -0.20943
 Alpha  occ. eigenvalues --   -0.18885  -0.18809
 Alpha virt. eigenvalues --   -0.11284  -0.11092  -0.05332  -0.05167  -0.04131
 Alpha virt. eigenvalues --   -0.03780  -0.02357  -0.02330  -0.01455  -0.00136
 Alpha virt. eigenvalues --    0.00116   0.00225   0.00371   0.01119   0.01469

 Mulliken charges:
               1
     1  Mg  12.000011
     2  C    5.999981
     3  C    6.000136
     4  C    6.000089
     5  C    5.999879
     6  N    6.999917
     7  C    6.000090
     8  C    5.999951
     9  C    6.000010
    10  C    5.999875
    11  C    6.000039
    12  C    6.000002
    13  C    5.999990
    14  H    1.000015
    15  N    7.000010
    16  C    5.999832
    17  C    5.999954
    18  C    5.999907
    19  C    5.999898
    20  C    6.000034
    21  C    5.999978
    22  O    7.999905
    23  C    6.000011
    24  N    7.000022
    25  C    5.999847
    26  C    6.000021
    27  C    5.999979
    28  C    6.000124
    29  C    6.000008
    30  C    5.999968
    31  C    5.999999
    32  N    7.000038
    33  C    6.000163
    34  C    6.000049
    35  C    6.000016
    36  C    6.000116
    37  C    5.999959
    38  C    6.000155
    39  O    8.000056
    40  C    5.999987
    41  C    6.000015
    42  O    8.000012
    43  O    8.000005
    44  C    5.999997
    45  H    0.999925
    46  H    0.999977
    47  H    1.000066
    48  H    1.000014
    49  H    0.999987
    50  H    0.999981
    51  H    0.999951
    52  H    0.999994
    53  H    1.000022
    54  H    0.999991
    55  H    0.999992
    56  H    1.000002
    57  H    0.999929
    58  H    0.999932
    59  H    0.999926
    60  H    0.999969
    61  H    0.999957
    62  H    0.999948
    63  H    1.000005
    64  H    1.000018
    65  H    0.999975
    66  H    1.000003
    67  H    1.000007
    68  H    1.000008
    69  H    1.000038
    70  H    0.999991
    71  H    1.000006
    72  H    1.000023
    73  H    1.000081
    74  H    1.000070
    75  H    1.000092
    76  H    1.000027
    77  H    1.000004
    78  H    1.000014
    79  H    1.000022
    80  Mg  12.000266
    81  C    5.992672
    82  C    6.019214
    83  C    6.007759
    84  C    5.977840
    85  N    7.007199
    86  C    6.027765
    87  C    5.986675
    88  C    6.010476
    89  C    5.963250
    90  C    6.001237
    91  C    5.998584
    92  C    5.995674
    93  H    1.011471
    94  N    7.005149
    95  C    5.953255
    96  C    5.987487
    97  C    5.981419
    98  C    5.971337
    99  C    6.005623
   100  C    5.986873
   101  O    7.978769
   102  C    6.003446
   103  N    6.986222
   104  C    5.976304
   105  C    6.007781
   106  C    5.992733
   107  C    6.035530
   108  C    6.001542
   109  C    5.997710
   110  C    5.999222
   111  N    7.000718
   112  C    6.041086
   113  C    6.021347
   114  C    6.009261
   115  C    6.023268
   116  C    5.998802
   117  C    6.017685
   118  O    8.029169
   119  C    6.001572
   120  C    6.005344
   121  O    8.005400
   122  O    8.003125
   123  C    5.997277
   124  H    0.991385
   125  H    0.992138
   126  H    1.006571
   127  H    1.002732
   128  H    0.997186
   129  H    0.997517
   130  H    0.987309
   131  H    1.004585
   132  H    1.011305
   133  H    0.992079
   134  H    0.997192
   135  H    1.003896
   136  H    0.982477
   137  H    0.985040
   138  H    0.982674
   139  H    0.988472
   140  H    0.987511
   141  H    0.991857
   142  H    0.998247
   143  H    1.000566
   144  H    1.000379
   145  H    1.003696
   146  H    0.990151
   147  H    0.995201
   148  H    1.008102
   149  H    0.996626
   150  H    1.003851
   151  H    1.003066
   152  H    1.012138
   153  H    1.020918
   154  H    1.016918
   155  H    1.009587
   156  H    1.006018
   157  H    1.003114
   158  H    1.004957
 Sum of Mulliken charges = 624.00000

 Dipole moment (field-independent basis, Debye):
    X=             -0.3399    Y=              9.7137    Z=             -3.8157  Tot=             10.4418
 Quadrupole moment (field-independent basis, Debye-Ang):
   XX=             23.3284   YY=             -9.0879   ZZ=              0.3372
   XY=           -290.2606   XZ=            114.8097   YZ=              3.1688

 Normal termination of Gaussian 16 at Fri Oct 15 12:57:03 2021.
