 Gaussian 16, Revision A.03,
 Gaussian 16:  ES64L-G16RevA.03 25-Dec-2016

 --------------------------------------------------------
 #p PBE1PBE/Def2SVP td=(nstates=5) density=(transition=1)
 --------------------------------------------------------

 --------------------------------
 TDDFT excited states in gaussian
 --------------------------------
 Symbolic Z-matrix:
 Charge =  0 Multiplicity = 1

                         Standard orientation:
 ---------------------------------------------------------------------
 Center     Atomic      Atomic             Coordinates (Angstroms)
 Number     Number       Type             X           Y           Z
 ---------------------------------------------------------------------
      1         12           0       12.702546    0.370649    0.370850
      2          6           0        9.255771   -0.254289   -0.380165
      3          6           0       13.182200    0.621603   -3.114910
      4          6           0       15.942405    0.242113    0.807836
      5          6           0       12.057074   -0.267226    3.647884
      6          7           0       11.338408    0.248042   -1.493960
      7          6           0        9.992674    0.094728   -1.465822
      8          6           0        9.451174    0.303079   -2.870530
      9          6           0       10.652093    0.617777   -3.806436
     10          6           0       11.789377    0.528249   -2.770700
     11          6           0       10.780644   -0.402741   -5.072951
     12          6           0        8.386478    1.479424   -2.950915
     13          6           0        7.087541    1.176685   -3.698615
     14          1           0        7.071439    0.199071   -4.941537
     15          7           0       14.352139    0.372131   -0.988770
     16          6           0       14.319880    0.505900   -2.297750
     17          6           0       15.677192    0.477844   -2.765048
     18          6           0       16.568618    0.518068   -1.663068
     19          6           0       15.647010    0.339481   -0.571793
     20          6           0       16.051932    0.714003   -4.227224
     21          6           0       18.060443    0.770469   -1.510962
     22          8           0       18.640899    0.688952   -0.443983
     23          6           0       18.789525    1.194297   -2.756254
     24          7           0       13.819639   -0.317605    1.944157
     25          6           0       15.193033   -0.066836    1.943395
     26          6           0       15.819436   -0.102645    3.363902
     27          6           0       14.497353   -0.104196    4.220317
     28          6           0       13.359358   -0.235638    3.208182
     29          6           0       16.729458   -1.328303    3.529980
     30          6           0       14.258336    1.255806    5.031823
     31          6           0       14.483373    1.253084    6.506732
     32          7           0       11.040777   -0.032208    1.443025
     33          6           0       10.942414   -0.303310    2.790679
     34          6           0        9.595883   -0.702776    3.191346
     35          6           0        8.866427   -0.695283    1.949164
     36          6           0        9.803700   -0.410295    0.928291
     37          6           0        9.147470   -0.832471    4.602035
     38          6           0        7.550537   -0.816848    1.340727
     39          8           0        6.472683   -1.040595    1.921239
     40          6           0        7.748907   -0.558359   -0.259658
     41          6           0        7.339723   -1.803132   -0.890733
     42          8           0        7.825586   -2.881856   -0.629507
     43          8           0        6.375413   -1.600416   -1.796260
     44          6           0        5.735901   -2.725439   -2.547991
     45          1           0       13.376969    0.781840   -4.177299
     46          1           0       16.933119    0.599413    1.098671
     47          1           0       11.884032   -0.380662    4.719846
     48          1           0        9.008365   -0.642203   -3.184359
     49          1           0       10.539247    1.580471   -4.305310
     50          1           0        9.821517   -0.872074   -5.292029
     51          1           0       11.540037   -1.124524   -4.771084
     52          1           0       11.143022    0.139959   -5.945873
     53          1           0        8.770523    2.425470   -3.330039
     54          1           0        8.054260    1.729476   -1.943413
     55          1           0        6.597313    2.089473   -4.037792
     56          1           0        6.441078    0.797469   -2.907165
     57          1           0       16.336797    1.741327   -4.454894
     58          1           0       15.291928    0.324360   -4.905150
     59          1           0       16.910201    0.071847   -4.423692
     60          1           0       18.256754    1.906289   -3.387309
     61          1           0       19.072760    0.378768   -3.420212
     62          1           0       19.632529    1.824485   -2.472747
     63          1           0       16.408584    0.806644    3.479897
     64          1           0       14.555199   -0.937616    4.920559
     65          1           0       16.940224   -1.863493    2.604206
     66          1           0       16.284045   -2.073461    4.188170
     67          1           0       17.672947   -1.015499    3.978485
     68          1           0       13.253437    1.669208    4.946119
     69          1           0       14.837575    2.088171    4.633836
     70          1           0       15.303895    1.921864    6.763534
     71          1           0       14.739070    0.213386    6.711897
     72          1           0       13.588357    1.589202    7.030163
     73          1           0        8.110517   -0.519568    4.719372
     74          1           0        9.881747   -0.298247    5.204698
     75          1           0        9.214377   -1.892068    4.852535
     76          1           0        7.113864    0.249745   -0.620183
     77          1           0        5.420742   -3.496505   -1.844729
     78          1           0        6.412522   -3.187615   -3.267214
     79          1           0        4.932973   -2.407875   -3.212671
     80         12           0      -12.188770   -0.644952   -0.565393
     81          6           0      -12.234104    2.880138   -0.581338
     82          6           0       -8.808654   -0.476421   -0.957276
     83          6           0      -12.054197   -3.971441    0.207792
     84          6           0      -15.626440   -0.468755    0.357319
     85          7           0      -10.653905    1.053334   -0.608150
     86          6           0      -10.868706    2.393521   -0.757180
     87          6           0       -9.555802    3.195059   -0.783653
     88          6           0       -8.602576    1.999823   -1.278922
     89          6           0       -9.404597    0.770817   -0.929782
     90          6           0       -8.224629    2.019178   -2.784350
     91          6           0       -9.091209    3.755094    0.635464
     92          6           0       -8.171663    4.965568    0.683346
     93          1           0       -6.701480    4.863575    1.142351
     94          7           0      -10.650853   -2.139705   -0.410096
     95          6           0       -9.361995   -1.851171   -0.753338
     96          6           0       -8.593682   -3.013133   -0.843084
     97          6           0       -9.508830   -4.088893   -0.534178
     98          6           0      -10.811404   -3.452336   -0.189150
     99          6           0       -7.118654   -3.061330   -1.223055
    100          6           0       -9.093266   -5.542428   -0.558975
    101          8           0       -7.911584   -5.845020   -0.866838
    102          6           0      -10.085768   -6.735848   -0.327866
    103          7           0      -13.642340   -1.947514    0.155743
    104          6           0      -13.341311   -3.320180    0.367828
    105          6           0      -14.613502   -4.105083    0.528307
    106          6           0      -15.670755   -3.047261    0.912352
    107          6           0      -15.006552   -1.741368    0.386682
    108          6           0      -15.180655   -4.903870   -0.666962
    109          6           0      -15.891875   -2.951007    2.512954
    110          6           0      -16.852606   -3.928187    3.173529
    111          7           0      -13.669997    0.905284   -0.372267
    112          6           0      -15.005217    0.821835   -0.006967
    113          6           0      -15.586446    2.071782    0.093910
    114          6           0      -14.531226    2.957938   -0.182584
    115          6           0      -13.381598    2.190600   -0.435211
    116          6           0      -17.021025    2.332261    0.429509
    117          6           0      -14.221938    4.272592   -0.393420
    118          8           0      -14.944408    5.248016   -0.451572
    119          6           0      -12.678871    4.288560   -0.403852
    120          6           0      -12.291511    4.921583    0.899227
    121          8           0      -12.615750    4.503851    1.967142
    122          8           0      -11.573477    6.096639    0.670072
    123          6           0      -11.328332    6.821445    1.868210
    124          1           0       -7.767263   -0.480406   -1.286555
    125          1           0      -12.113241   -5.060614    0.267627
    126          1           0      -16.707580   -0.504098    0.505282
    127          1           0       -9.533341    3.931871   -1.585893
    128          1           0       -7.667002    2.108199   -0.730938
    129          1           0       -7.234538    2.475721   -2.771066
    130          1           0       -8.888378    2.655647   -3.369417
    131          1           0       -8.146876    1.011064   -3.191818
    132          1           0       -8.530601    2.994199    1.178556
    133          1           0      -10.000420    3.907497    1.217429
    134          1           0       -8.693861    5.663449    1.339453
    135          1           0       -8.177002    5.411474   -0.311130
    136          1           0       -6.741743   -3.890917   -1.822180
    137          1           0       -6.702580   -2.991894   -0.218257
    138          1           0       -6.875372   -2.220757   -1.872975
    139          1           0      -10.844894   -6.732044   -1.109583
    140          1           0      -10.466970   -6.527038    0.671534
    141          1           0       -9.634331   -7.720976   -0.211031
    142          1           0      -14.462820   -4.756288    1.388699
    143          1           0      -16.634476   -3.234139    0.438482
    144          1           0      -16.121759   -4.529787   -1.069674
    145          1           0      -14.992879   -5.971952   -0.555274
    146          1           0      -14.490203   -4.675955   -1.478859
    147          1           0      -16.256724   -1.926733    2.586719
    148          1           0      -14.942015   -3.036482    3.041082
    149          1           0      -16.346507   -4.419681    4.003992
    150          1           0      -17.159933   -4.677918    2.443923
    151          1           0      -17.711580   -3.412039    3.603097
    152          1           0      -17.010577    3.080116    1.221888
    153          1           0      -17.519840    1.458746    0.851153
    154          1           0      -17.587413    2.733382   -0.411149
    155          1           0      -12.354968    4.908585   -1.239058
    156          1           0      -12.122929    7.550823    2.023059
    157          1           0      -10.458000    7.476157    1.809685
    158          1           0      -11.271635    6.174031    2.741611
 ---------------------------------------------------------------------

 SCF Done:  E(RPBE1PBE) =  -4067.34819956     A.U. after   16 cycles

 Excitation energies and oscillator strengths:

 Excited State   1:      Singlet-A      1.6680 eV  743.30 nm  f=0.0000  <S**2>=0.000
     312 -> 313        0.70709
 This state for optimization and/or second-order correction.
 Total Energy, E(TD-HF/TD-DFT) =  -4067.28690091
 Copying the excited state density for this state as the 1-particle RhoCI density.

 Excited State   2:      Singlet-A      1.8472 eV  671.19 nm  f=0.4374  <S**2>=0.000
     310 -> 316       -0.15965
     312 -> 314        0.68815
     312 <- 314       -0.11507

 Excited State   3:      Singlet-A      1.8624 eV  665.71 nm  f=0.3467  <S**2>=0.000
     309 -> 315       -0.18008
     311 -> 313        0.68164
     311 <- 313       -0.10447

 Excited State   4:      Singlet-A      2.1452 eV  577.96 nm  f=0.0000  <S**2>=0.000
     311 -> 314        0.70709

 Excited State   5:      Singlet-A      2.1543 eV  575.52 nm  f=0.1196  <S**2>=0.000
     309 -> 313        0.65680
     311 -> 315        0.24324

 The electronic state is 1-A.
 Alpha  occ. eigenvalues --  -46.93640 -46.92034 -19.25967 -19.25829 -19.21032
 Alpha  occ. eigenvalues --  -19.19724 -19.19267 -19.18670 -19.18310 -19.18095
 Alpha  occ. eigenvalues --  -14.42447 -14.42285 -14.41374 -14.41273 -14.39386
 Alpha  occ. eigenvalues --  -14.39090 -14.38783 -14.38718 -10.36631 -10.35417
 Alpha  occ. eigenvalues --  -10.32890 -10.32650 -10.32164 -10.30412 -10.30058
 Alpha  occ. eigenvalues --  -10.30044 -10.29697 -10.29400 -10.29083 -10.28529
 Alpha  occ. eigenvalues --  -10.28482 -10.28304 -10.28253 -10.28155 -10.27970
 Alpha  occ. eigenvalues --  -10.27865 -10.27635 -10.27322 -10.27320 -10.26995
 Alpha  occ. eigenvalues --  -10.26923 -10.26684 -10.26524 -10.26249 -10.26176
 Alpha  occ. eigenvalues --  -10.26166 -10.26037 -10.25914 -10.25900 -10.25817
 Alpha  occ. eigenvalues --  -10.25783 -10.25772 -10.25688 -10.25645 -10.25640
 Alpha  occ. eigenvalues --  -10.25613 -10.25553 -10.25514 -10.25441 -10.25433
 Alpha  occ. eigenvalues --  -10.25409 -10.25201 -10.25155 -10.24966 -10.24866
 Alpha  occ. eigenvalues --  -10.24702 -10.24627 -10.24287 -10.24122 -10.24084
 Alpha  occ. eigenvalues --  -10.24011 -10.23945 -10.23941 -10.23910 -10.23599
 Alpha  occ. eigenvalues --  -10.23518 -10.23509 -10.23484 -10.23332 -10.23328
 Alpha  occ. eigenvalues --  -10.23289 -10.23211 -10.23056 -10.22967 -10.22450
 Alpha  occ. eigenvalues --  -10.21823  -3.15520  -3.14238  -1.88358  -1.87886
 Alpha  occ. eigenvalues --   -1.87738  -1.87044  -1.86619  -1.86472  -1.12311
 Alpha  occ. eigenvalues --   -1.11266  -1.05565  -1.04777  -1.04244  -1.03173
 Alpha  occ. eigenvalues --   -1.02124  -1.01991  -1.00279  -0.99349  -0.99292
 Alpha  occ. eigenvalues --   -0.98542  -0.98157  -0.97744  -0.96573  -0.96472
 Alpha  occ. eigenvalues --   -0.88668  -0.86497  -0.83169  -0.82975  -0.82937
 Alpha  occ. eigenvalues --   -0.82930  -0.82591  -0.82355  -0.81876  -0.81447
 Alpha  occ. eigenvalues --   -0.81369  -0.81279  -0.80758  -0.80158  -0.78595
 Alpha  occ. eigenvalues --   -0.78520  -0.78417  -0.77868  -0.77116  -0.76922
 Alpha  occ. eigenvalues --   -0.76100  -0.75998  -0.75604  -0.75033  -0.74955
 Alpha  occ. eigenvalues --   -0.74526  -0.72577  -0.72341  -0.71974  -0.71650
 Alpha  occ. eigenvalues --   -0.71177  -0.71157  -0.70565  -0.70227  -0.69990
 Alpha  occ. eigenvalues --   -0.69227  -0.68017  -0.66952  -0.66641  -0.65887
 Alpha  occ. eigenvalues --   -0.63860  -0.63173  -0.62864  -0.62736  -0.62237
 Alpha  occ. eigenvalues --   -0.62061  -0.61586  -0.61333  -0.60627  -0.59958
 Alpha  occ. eigenvalues --   -0.59740  -0.59592  -0.59232  -0.59217  -0.59024
 Alpha  occ. eigenvalues --   -0.58717  -0.57305  -0.57001  -0.55045  -0.54970
 Alpha  occ. eigenvalues --   -0.54666  -0.54088  -0.53739  -0.53720  -0.53503
 Alpha  occ. eigenvalues --   -0.53433  -0.53103  -0.52658  -0.52594  -0.51993
 Alpha  occ. eigenvalues --   -0.51071  -0.50682  -0.50179  -0.50137  -0.49806
 Alpha  occ. eigenvalues --   -0.49756  -0.49604  -0.48856  -0.48393  -0.48119
 Alpha  occ. eigenvalues --   -0.48106  -0.47973  -0.47757  -0.47570  -0.47408
 Alpha  occ. eigenvalues --   -0.47285  -0.47171  -0.47027  -0.46882  -0.46698
 Alpha  occ. eigenvalues --   -0.46621  -0.46374  -0.45997  -0.45908  -0.45792
 Alpha  occ. eigenvalues --   -0.45727  -0.45421  -0.45142  -0.45085  -0.45008
 Alpha  occ. eigenvalues --   -0.44748  -0.44664  -0.44526  -0.44422  -0.44290
 Alpha  occ. eigenvalues --   -0.43931  -0.43778  -0.43702  -0.43582  -0.43494
 Alpha  occ. eigenvalues --   -0.43374  -0.43204  -0.43074  -0.43038  -0.42804
 Alpha  occ. eigenvalues --   -0.42595  -0.42425  -0.42028  -0.41965  -0.41833
 Alpha  occ. eigenvalues --   -0.41649  -0.41446  -0.41289  -0.41225  -0.41071
 Alpha  occ. eigenvalues --   -0.41033  -0.40918  -0.40845  -0.40734  -0.40672
 Alpha  occ. eigenvalues --   -0.40484  -0.40033  -0.40003  -0.39885  -0.39789
 Alpha  occ. eigenvalues --   -0.39450  -0.39356  -0.39269  -0.39077  -0.38662
 Alpha  occ. eigenvalues --   -0.38605  -0.38574  -0.38434  -0.38159  -0.38109
 Alpha  occ. eigenvalues --   -0.37940  -0.37768  -0.37727  -0.37653  -0.37373
 Alpha  occ. eigenvalues --   -0.37361  -0.37246  -0.37245  -0.37025  -0.36566
 Alpha  occ. eigenvalues --   -0.36417  -0.36345  -0.36299  -0.36197  -0.36145
 Alpha  occ. eigenvalues --   -0.35940  -0.35916  -0.35781  -0.35451  -0.35331
 Alpha  occ. eigenvalues --   -0.35196  -0.35164  -0.34664  -0.34301  -0.34206
 Alpha  occ. eigenvalues --   -0.33432  -0.33349  -0.32921  -0.32770  -0.32573
 Alpha  occ. eigenvalues --   -0.32027  -0.32004  -0.31851  -0.31554  -0.31479
 Alpha  occ. eigenvalues --   -0.31268  -0.31207  -0.30335  -0.30197  -0.29657
 Alpha  occ. eigenvalues --   -0.28959  -0.28740  -0.28323  -0.27028  -0.26889
 Alpha  occ. eigenvalues --   -0.26466  -0.25839  -0.25646  -0.25570  -0.25287
 Alpha  occ. eigenvalues --   -0.25175  -0.25054  -0.24554  -0.21253  -0.20770
 Alpha  occ. eigenvalues --   -0.19573  -0.18608
 Alpha virt. eigenvalues --   -0.11933  -0.11145  -0.05926  -0.04716  -0.04216
 Alpha virt. eigenvalues --   -0.04054  -0.02333  -0.01803  -0.01345  -0.01007
 Alpha virt. eigenvalues --    0.00165   0.00682   0.00806   0.01102   0.01316

 Mulliken charges:
               1
     1  Mg  12.000000
     2  C    6.000000
     3  C    6.000000
     4  C    6.000000
     5  C    6.000000
     6  N    7.000000
     7  C    6.000000
     8  C    6.000000
     9  C    6.000000
    10  C    6.000000
    11  C    6.000000
    12  C    6.000000
    13  C    6.000000
    14  H    1.000000
    15  N    7.000000
    16  C    6.000000
    17  C    6.000000
    18  C    6.000000
    19  C    6.000000
    20  C    6.000000
    21  C    6.000000
    22  O    8.000000
    23  C    6.000000
    24  N    7.000000
    25  C    6.000000
    26  C    6.000000
    27  C    6.000000
    28  C    6.000000
    29  C    6.000000
    30  C    6.000000
    31  C    6.000000
    32  N    7.000000
    33  C    6.000000
    34  C    6.000000
    35  C    6.000000
    36  C    6.000000
    37  C    6.000000
    38  C    6.000000
    39  O    8.000000
    40  C    6.000000
    41  C    6.000000
    42  O    8.000000
    43  O    8.000000
    44  C    6.000000
    45  H    1.000000
    46  H    1.000000
    47  H    1.000000
    48  H    1.000000
    49  H    1.000000
    50  H    1.000000
    51  H    1.000000
    52  H    1.000000
    53  H    1.000000
    54  H    1.000000
    55  H    1.000000
    56  H    1.000000
    57  H    1.000000
    58  H    1.000000
    59  H    1.000000
    60  H    1.000000
    61  H    1.000000
    62  H    1.000000
    63  H    1.000000
    64  H    1.000000
    65  H    1.000000
    66  H    1.000000
    67  H    1.000000
    68  H    1.000000
    69  H    1.000000
    70  H    1.000000
    71  H    1.000000
    72  H    1.000000
    73  H    1.000000
    74  H    1.000000
    75  H    1.000000
    76  H    1.000000
    77  H    1.000000
    78  H    1.000000
    79  H    1.000000
    80  Mg  12.000000
    81  C    6.000000
    82  C    6.000000
    83  C    6.000000
    84  C    6.000000
    85  N    7.000000
    86  C    6.000000
    87  C    6.000000
    88  C    6.000000
    89  C    6.000000
    90  C    6.000000
    91  C    6.000000
    92  C    6.000000
    93  H    1.000000
    94  N    7.000000
    95  C    6.000000
    96  C    6.000000
    97  C    6.000000
    98  C    6.000000
    99  C    6.000000
   100  C    6.000000
   101  O    8.000000
   102  C    6.000000
   103  N    7.000000
   104  C    6.000000
   105  C    6.000000
   106  C    6.000000
   107  C    6.000000
   108  C    6.000000
   109  C    6.000000
   110  C    6.000000
   111  N    7.000000
   112  C    6.000000
   113  C    6.000000
   114  C    6.000000
   115  C    6.000000
   116  C    6.000000
   117  C    6.000000
   118  O    8.000000
   119  C    6.000000
   120  C    6.000000
   121  O    8.000000
   122  O    8.000000
   123  C    6.000000
   124  H    1.000000
   125  H    1.000000
   126  H    1.000000
   127  H    1.000000
   128  H    1.000000
   129  H    1.000000
   130  H    1.000000
   131  H    1.000000
   132  H    1.000000
   133  H    1.000000
   134  H    1.000000
   135  H    1.000000
   136  H    1.000000
   137  H    1.000000
   138  H    1.000000
   139  H    1.000000
   140  H    1.000000
   141  H    1.000000
   142  H    1.000000
   143  H    1.000000
   144  H    1.000000
   145  H    1.000000
   146  H    1.000000
   147  H    1.000000
   148  H    1.000000
   149  H    1.000000
   150  H    1.000000
   151  H    1.000000
   152  H    1.000000
   153  H    1.000000
   154  H    1.000000
   155  H    1.000000
   156  H    1.000000
   157  H    1.000000
   158  H    1.000000
 Sum of Mulliken charges = 624.00000

 Dipole moment (field-independent basis, Debye):
    X=             -0.0000    Y=             -0.0000    Z=              0.0000  Tot=              0.0000
 Quadrupole moment (field-independent basis, Debye-Ang):
   XX=             -0.0000   YY=              0.0000   ZZ=              0.0000
   XY=              0.0000   XZ=              0.0000   YZ=             -0.0000

 Normal termination of Gaussian 16 at Thu Oct 14 12:27:56 2021.
