 Gaussian 16, Revision A.03,
 Gaussian 16:  ES64L-G16RevA.03 25-Dec-2016

 --------------------------------------------------------
 #p PBE1PBE/Def2SVP td=(nstates=5) density=(transition=1)
 --------------------------------------------------------

 --------------------------------
 TDDFT excited states in gaussian
 --------------------------------
 Symbolic Z-matrix:
 Charge =  0 Multiplicity = 1

                         Standard orientation:
 ---------------------------------------------------------------------
 Center     Atomic      Atomic             Coordinates (Angstroms)
 Number     Number       Type             X           Y           Z
 ---------------------------------------------------------------------
      1         12           0      -24.701722   -0.340449    0.747195
      2          6           0      -23.336111    1.829414   -1.755129
      3          6           0      -24.694911   -2.841380   -1.740549
      4          6           0      -26.581249   -2.231326    2.643541
      5          6           0      -24.939213    2.316148    2.856356
      6          7           0      -24.030756   -0.464656   -1.463642
      7          6           0      -23.426849    0.534007   -2.151586
      8          6           0      -22.934008   -0.019832   -3.478314
      9          6           0      -23.308716   -1.527531   -3.538307
     10          6           0      -24.020306   -1.649099   -2.177041
     11          6           0      -24.213513   -1.926598   -4.836047
     12          6           0      -21.366433    0.150894   -3.671670
     13          6           0      -20.900485    0.722086   -5.011289
     14          1           0      -21.690913    0.416998   -6.346575
     15          7           0      -25.576424   -2.269917    0.461230
     16          6           0      -25.425052   -3.081527   -0.563826
     17          6           0      -26.180085   -4.270349   -0.284404
     18          6           0      -26.650069   -4.241146    1.053087
     19          6           0      -26.315919   -2.890044    1.420509
     20          6           0      -26.161989   -5.493877   -1.199178
     21          6           0      -27.253435   -5.275045    1.990844
     22          8           0      -27.655558   -5.002526    3.107110
     23          6           0      -27.274545   -6.691963    1.487019
     24          7           0      -25.913241    0.128112    2.331353
     25          6           0      -26.450947   -0.915095    3.087454
     26          6           0      -26.845611   -0.483946    4.526153
     27          6           0      -26.141021    0.924318    4.567403
     28          6           0      -25.614721    1.155470    3.150963
     29          6           0      -28.371712   -0.477365    4.696245
     30          6           0      -24.883879    0.982716    5.558090
     31          6           0      -25.033103    1.705070    6.854987
     32          7           0      -24.152196    1.599663    0.661647
     33          6           0      -24.348223    2.582219    1.607954
     34          6           0      -23.956442    3.908216    1.137322
     35          6           0      -23.532344    3.665113   -0.217750
     36          6           0      -23.786970    2.299286   -0.485261
     37          6           0      -23.844292    5.105544    2.010115
     38          6           0      -22.907548    4.252422   -1.393010
     39          8           0      -22.517726    5.426523   -1.528481
     40          6           0      -22.772386    3.057398   -2.498021
     41          6           0      -23.582860    3.497573   -3.622532
     42          8           0      -24.756318    3.786026   -3.534564
     43          8           0      -22.872719    3.529876   -4.756386
     44          6           0      -23.455344    4.003757   -6.050889
     45          1           0      -24.649066   -3.672727   -2.446977
     46          1           0      -26.826028   -2.887045    3.482515
     47          1           0      -24.957805    3.118238    3.596775
     48          1           0      -23.480285    0.502394   -4.263799
     49          1           0      -22.431779   -2.160825   -3.673619
     50          1           0      -24.081064   -1.201620   -5.639202
     51          1           0      -25.237316   -1.953869   -4.462073
     52          1           0      -23.941385   -2.924330   -5.180010
     53          1           0      -20.776056   -0.742459   -3.472664
     54          1           0      -20.992478    0.866665   -2.939697
     55          1           0      -19.862500    0.461815   -5.219601
     56          1           0      -20.879461    1.794520   -4.817494
     57          1           0      -25.451947   -6.264921   -0.899665
     58          1           0      -26.063584   -5.210749   -2.247590
     59          1           0      -27.164637   -5.918145   -1.151395
     60          1           0      -26.376936   -7.009882    0.955762
     61          1           0      -28.101661   -6.927341    0.818718
     62          1           0      -27.209936   -7.368941    2.338897
     63          1           0      -26.405945   -1.207568    5.212026
     64          1           0      -26.882934    1.658780    4.881095
     65          1           0      -28.919963   -0.939289    3.875296
     66          1           0      -28.764831    0.536730    4.758983
     67          1           0      -28.630688   -0.988318    5.624163
     68          1           0      -23.988521    1.437972    5.134835
     69          1           0      -24.494822   -0.005751    5.799566
     70          1           0      -24.923447    1.010953    7.687241
     71          1           0      -26.047555    2.100157    6.798081
     72          1           0      -24.272462    2.479905    6.950203
     73          1           0      -23.019102    5.746241    1.701057
     74          1           0      -23.806209    4.733079    3.033629
     75          1           0      -24.773358    5.664574    1.890560
     76          1           0      -21.742957    2.928100   -2.829455
     77          1           0      -23.941872    4.967064   -5.896695
     78          1           0      -24.199504    3.315764   -6.452877
     79          1           0      -22.740777    4.019560   -6.873375
     80         12           0       25.085882    0.472952   -0.112971
     81          6           0       23.168416   -2.466732   -0.436494
     82          6           0       22.215638    2.191471   -0.343271
     83          6           0       26.893263    3.072038    0.698659
     84          6           0       27.800131   -1.665821    0.797508
     85          7           0       22.935740   -0.105372   -0.317137
     86          6           0       22.365806   -1.318374   -0.510896
     87          6           0       20.869380   -1.257871   -0.741209
     88          6           0       20.689270    0.296245   -0.971890
     89          6           0       22.008567    0.881802   -0.512753
     90          6           0       20.344577    0.714524   -2.460705
     91          6           0       19.832802   -1.821746    0.325768
     92          6           0       20.259913   -2.137562    1.783832
     93          1           0       19.201936   -1.911695    2.927701
     94          7           0       24.580931    2.421512    0.003523
     95          6           0       23.357829    2.934198   -0.010293
     96          6           0       23.440723    4.387584    0.299486
     97          6           0       24.896081    4.673033    0.446474
     98          6           0       25.513969    3.347598    0.397851
     99          6           0       22.270631    5.331706    0.233064
    100          6           0       25.504885    6.022203    0.726008
    101          8           0       24.767771    7.004179    0.767176
    102          6           0       27.022936    6.291294    1.039451
    103          7           0       27.111441    0.692109    0.778205
    104          6           0       27.565858    1.896908    0.811186
    105          6           0       29.110992    1.813063    1.191532
    106          6           0       29.261046    0.311598    1.445027
    107          6           0       27.947051   -0.294208    0.990776
    108          6           0       30.154634    2.382184    0.215990
    109          6           0       29.385923   -0.072341    3.009542
    110          6           0       30.736742   -0.651599    3.468237
    111          7           0       25.462517   -1.593426    0.207207
    112          6           0       26.603683   -2.313465    0.443449
    113          6           0       26.371563   -3.759777    0.193734
    114          6           0       24.974385   -3.902160   -0.039332
    115          6           0       24.524443   -2.513813   -0.122839
    116          6           0       27.381470   -4.913500    0.383809
    117          6           0       23.877103   -4.782015   -0.267480
    118          8           0       23.724937   -6.014019   -0.204782
    119          6           0       22.659091   -3.888446   -0.614188
    120          6           0       22.195109   -4.296801   -2.015360
    121          8           0       21.247869   -4.922793   -2.410957
    122          8           0       22.995384   -3.618606   -2.941173
    123          6           0       22.656637   -3.766568   -4.390727
    124          1           0       21.264983    2.724573   -0.413201
    125          1           0       27.464031    3.976142    0.924099
    126          1           0       28.698622   -2.285383    0.821779
    127          1           0       20.721008   -1.750903   -1.701771
    128          1           0       19.858225    0.654969   -0.364441
    129          1           0       20.340173   -0.154253   -3.118111
    130          1           0       21.238884    1.270633   -2.739736
    131          1           0       19.415413    1.284491   -2.475889
    132          1           0       19.399639   -2.723635   -0.106939
    133          1           0       18.988236   -1.134930    0.390906
    134          1           0       21.118859   -1.496288    1.981647
    135          1           0       20.444832   -3.195209    1.969149
    136          1           0       22.564227    6.381185    0.225459
    137          1           0       21.588810    5.028985    1.028668
    138          1           0       21.748890    5.028356   -0.675205
    139          1           0       27.808556    5.926055    0.376937
    140          1           0       27.264041    5.795282    1.979639
    141          1           0       27.241414    7.355568    1.122281
    142          1           0       29.332074    2.392635    2.087177
    143          1           0       30.100922   -0.217539    0.993432
    144          1           0       29.688408    2.825123   -0.664234
    145          1           0       30.895096    1.632490   -0.064901
    146          1           0       30.732171    3.208084    0.631262
    147          1           0       28.654768   -0.825742    3.299416
    148          1           0       29.166176    0.847691    3.551596
    149          1           0       30.684551   -1.384533    4.273719
    150          1           0       31.287825    0.198475    3.870363
    151          1           0       31.136662   -1.099964    2.558686
    152          1           0       28.285271   -4.650340    0.932372
    153          1           0       27.656180   -5.191254   -0.633484
    154          1           0       26.848158   -5.764079    0.807583
    155          1           0       21.860227   -4.074006    0.103024
    156          1           0       22.201123   -4.697625   -4.727269
    157          1           0       23.632048   -3.734177   -4.875773
    158          1           0       22.090676   -2.971506   -4.876609
 ---------------------------------------------------------------------

 SCF Done:  E(RPBE1PBE) =  -4067.35560820     A.U. after   16 cycles

 Excitation energies and oscillator strengths:

 Excited State   1:      Singlet-A      1.8475 eV  671.09 nm  f=0.3861  <S**2>=0.000
     310 -> 317        0.16134
     312 -> 314        0.69525
     312 <- 314       -0.11632
 This state for optimization and/or second-order correction.
 Total Energy, E(TD-HF/TD-DFT) =  -4067.28771325
 Copying the excited state density for this state as the 1-particle RhoCI density.

 Excited State   2:      Singlet-A      1.8763 eV  660.79 nm  f=0.0000  <S**2>=0.000
     312 -> 313        0.70711

 Excited State   3:      Singlet-A      1.9112 eV  648.73 nm  f=0.3993  <S**2>=0.000
     309 -> 315        0.17706
     311 -> 313        0.69113
     311 <- 313       -0.10569

 Excited State   4:      Singlet-A      2.1206 eV  584.67 nm  f=0.0000  <S**2>=0.000
     311 -> 314        0.70711

 Excited State   5:      Singlet-A      2.2073 eV  561.70 nm  f=0.1241  <S**2>=0.000
     310 -> 314        0.66025
     312 -> 317       -0.23227

 The electronic state is 1-A.
 Alpha  occ. eigenvalues --  -46.93471 -46.92028 -19.25834 -19.25226 -19.20591
 Alpha  occ. eigenvalues --  -19.19718 -19.19536 -19.19265 -19.18981 -19.18676
 Alpha  occ. eigenvalues --  -14.41842 -14.41368 -14.41315 -14.41267 -14.40023
 Alpha  occ. eigenvalues --  -14.39895 -14.39086 -14.38712 -10.36869 -10.35421
 Alpha  occ. eigenvalues --  -10.32929 -10.32884 -10.32677 -10.32648 -10.29710
 Alpha  occ. eigenvalues --  -10.29122 -10.29077 -10.29077 -10.28742 -10.28690
 Alpha  occ. eigenvalues --  -10.28563 -10.28524 -10.28517 -10.28247 -10.27964
 Alpha  occ. eigenvalues --  -10.27953 -10.27812 -10.27644 -10.27640 -10.27317
 Alpha  occ. eigenvalues --  -10.27315 -10.26918 -10.26873 -10.26754 -10.26679
 Alpha  occ. eigenvalues --  -10.26608 -10.26499 -10.26227 -10.26172 -10.26027
 Alpha  occ. eigenvalues --  -10.25906 -10.25896 -10.25812 -10.25764 -10.25682
 Alpha  occ. eigenvalues --  -10.25636 -10.25601 -10.25509 -10.25480 -10.25422
 Alpha  occ. eigenvalues --  -10.25236 -10.25158 -10.24953 -10.24789 -10.24696
 Alpha  occ. eigenvalues --  -10.24610 -10.24471 -10.24395 -10.24281 -10.24156
 Alpha  occ. eigenvalues --  -10.24077 -10.24048 -10.24045 -10.24006 -10.23933
 Alpha  occ. eigenvalues --  -10.23905 -10.23687 -10.23517 -10.23478 -10.23324
 Alpha  occ. eigenvalues --  -10.23324 -10.23284 -10.23222 -10.23026 -10.22963
 Alpha  occ. eigenvalues --  -10.22444  -3.15530  -3.14233  -1.88358  -1.87903
 Alpha  occ. eigenvalues --   -1.87756  -1.87038  -1.86613  -1.86466  -1.11272
 Alpha  occ. eigenvalues --   -1.10769  -1.05559  -1.04463  -1.03900  -1.03171
 Alpha  occ. eigenvalues --   -1.02129  -1.02077  -1.01412  -0.99442  -0.99343
 Alpha  occ. eigenvalues --   -0.98717  -0.98151  -0.98042  -0.97738  -0.96567
 Alpha  occ. eigenvalues --   -0.87860  -0.86493  -0.84184  -0.83194  -0.82932
 Alpha  occ. eigenvalues --   -0.82888  -0.82641  -0.82586  -0.82344  -0.81442
 Alpha  occ. eigenvalues --   -0.81273  -0.81119  -0.80754  -0.79905  -0.79205
 Alpha  occ. eigenvalues --   -0.78514  -0.78413  -0.78205  -0.77186  -0.76916
 Alpha  occ. eigenvalues --   -0.76038  -0.75990  -0.75599  -0.75128  -0.75028
 Alpha  occ. eigenvalues --   -0.74796  -0.72848  -0.72571  -0.71997  -0.71974
 Alpha  occ. eigenvalues --   -0.71348  -0.71171  -0.70957  -0.70559  -0.69801
 Alpha  occ. eigenvalues --   -0.69221  -0.67754  -0.66947  -0.66900  -0.65881
 Alpha  occ. eigenvalues --   -0.64025  -0.63597  -0.63167  -0.63077  -0.62232
 Alpha  occ. eigenvalues --   -0.62083  -0.62055  -0.61324  -0.61319  -0.60179
 Alpha  occ. eigenvalues --   -0.60010  -0.59954  -0.59584  -0.59426  -0.59215
 Alpha  occ. eigenvalues --   -0.59017  -0.57676  -0.57003  -0.55143  -0.55039
 Alpha  occ. eigenvalues --   -0.54905  -0.54059  -0.53734  -0.53428  -0.53194
 Alpha  occ. eigenvalues --   -0.53096  -0.52754  -0.52590  -0.51990  -0.51683
 Alpha  occ. eigenvalues --   -0.51034  -0.50676  -0.50426  -0.50180  -0.50156
 Alpha  occ. eigenvalues --   -0.49751  -0.49620  -0.49075  -0.48857  -0.48523
 Alpha  occ. eigenvalues --   -0.48287  -0.48117  -0.47968  -0.47563  -0.47545
 Alpha  occ. eigenvalues --   -0.47404  -0.47384  -0.47020  -0.46878  -0.46688
 Alpha  occ. eigenvalues --   -0.46630  -0.46315  -0.46109  -0.45899  -0.45788
 Alpha  occ. eigenvalues --   -0.45762  -0.45648  -0.45222  -0.45137  -0.45007
 Alpha  occ. eigenvalues --   -0.44742  -0.44671  -0.44520  -0.44431  -0.44088
 Alpha  occ. eigenvalues --   -0.43779  -0.43723  -0.43698  -0.43495  -0.43368
 Alpha  occ. eigenvalues --   -0.43234  -0.43201  -0.43157  -0.43071  -0.42921
 Alpha  occ. eigenvalues --   -0.42795  -0.42617  -0.42420  -0.42334  -0.42188
 Alpha  occ. eigenvalues --   -0.42021  -0.41901  -0.41705  -0.41440  -0.41362
 Alpha  occ. eigenvalues --   -0.41279  -0.41107  -0.40915  -0.40842  -0.40788
 Alpha  occ. eigenvalues --   -0.40667  -0.40600  -0.40245  -0.40134  -0.40031
 Alpha  occ. eigenvalues --   -0.39880  -0.39675  -0.39266  -0.39072  -0.39031
 Alpha  occ. eigenvalues --   -0.38821  -0.38658  -0.38427  -0.38409  -0.38153
 Alpha  occ. eigenvalues --   -0.38153  -0.37929  -0.37761  -0.37703  -0.37647
 Alpha  occ. eigenvalues --   -0.37370  -0.37239  -0.37061  -0.36978  -0.36863
 Alpha  occ. eigenvalues --   -0.36564  -0.36409  -0.36319  -0.36293  -0.36191
 Alpha  occ. eigenvalues --   -0.36155  -0.35910  -0.35825  -0.35608  -0.35444
 Alpha  occ. eigenvalues --   -0.35190  -0.34911  -0.34659  -0.34190  -0.34123
 Alpha  occ. eigenvalues --   -0.33833  -0.33343  -0.33279  -0.32916  -0.32710
 Alpha  occ. eigenvalues --   -0.31998  -0.31985  -0.31553  -0.31479  -0.31329
 Alpha  occ. eigenvalues --   -0.31263  -0.31195  -0.30070  -0.29650  -0.29429
 Alpha  occ. eigenvalues --   -0.29106  -0.28736  -0.28325  -0.27449  -0.26884
 Alpha  occ. eigenvalues --   -0.26596  -0.26460  -0.26164  -0.25907  -0.25835
 Alpha  occ. eigenvalues --   -0.25566  -0.25079  -0.25051  -0.21430  -0.20765
 Alpha  occ. eigenvalues --   -0.19198  -0.18602
 Alpha virt. eigenvalues --   -0.11442  -0.11140  -0.05544  -0.04792  -0.04710
 Alpha virt. eigenvalues --   -0.04048  -0.02667  -0.02329  -0.01463  -0.01000
 Alpha virt. eigenvalues --    0.00160   0.00505   0.00699   0.01108   0.01241

 Mulliken charges:
               1
     1  Mg  12.002055
     2  C    5.980996
     3  C    6.007568
     4  C    6.024739
     5  C    5.994420
     6  N    6.991860
     7  C    6.024048
     8  C    5.990603
     9  C    6.013083
    10  C    5.969238
    11  C    6.000639
    12  C    5.998955
    13  C    5.999245
    14  H    1.006719
    15  N    7.004170
    16  C    5.967084
    17  C    5.974160
    18  C    5.989054
    19  C    5.967633
    20  C    6.002905
    21  C    5.986215
    22  O    7.973560
    23  C    6.007277
    24  N    7.008676
    25  C    5.958385
    26  C    6.009994
    27  C    5.991912
    28  C    6.026072
    29  C    6.003075
    30  C    5.992121
    31  C    5.999784
    32  N    7.002687
    33  C    6.028927
    34  C    6.037761
    35  C    5.998701
    36  C    6.031603
    37  C    5.997480
    38  C    6.015427
    39  O    8.026773
    40  C    6.006323
    41  C    6.004951
    42  O    8.002468
    43  O    8.002042
    44  C    5.998059
    45  H    0.989447
    46  H    0.994625
    47  H    1.011346
    48  H    0.999595
    49  H    0.994706
    50  H    0.987419
    51  H    1.001560
    52  H    0.999751
    53  H    1.007935
    54  H    0.992415
    55  H    1.002042
    56  H    0.994020
    57  H    0.979487
    58  H    0.983538
    59  H    0.984015
    60  H    0.995193
    61  H    0.990734
    62  H    0.986237
    63  H    1.000391
    64  H    1.002818
    65  H    1.004625
    66  H    0.988802
    67  H    0.997534
    68  H    0.994950
    69  H    1.012742
    70  H    1.006720
    71  H    1.002495
    72  H    0.998122
    73  H    1.017089
    74  H    1.017371
    75  H    1.022508
    76  H    1.008709
    77  H    1.000576
    78  H    1.006386
    79  H    1.004653
    80  Mg  11.999988
    81  C    5.999860
    82  C    5.999990
    83  C    6.000165
    84  C    6.000000
    85  N    7.000009
    86  C    6.000103
    87  C    5.999911
    88  C    6.000072
    89  C    5.999922
    90  C    5.999990
    91  C    6.000014
    92  C    5.999960
    93  H    1.000022
    94  N    7.000052
    95  C    5.999863
    96  C    5.999906
    97  C    5.999941
    98  C    5.999762
    99  C    6.000011
   100  C    5.999894
   101  O    7.999980
   102  C    6.000025
   103  N    6.999964
   104  C    5.999929
   105  C    6.000044
   106  C    5.999962
   107  C    6.000089
   108  C    6.000018
   109  C    5.999960
   110  C    6.000012
   111  N    6.999982
   112  C    6.000132
   113  C    6.000087
   114  C    6.000069
   115  C    6.000186
   116  C    6.000028
   117  C    6.000080
   118  O    8.000144
   119  C    6.000031
   120  C    5.999996
   121  O    8.000057
   122  O    7.999967
   123  C    5.999975
   124  H    0.999927
   125  H    0.999950
   126  H    1.000050
   127  H    1.000018
   128  H    0.999957
   129  H    0.999953
   130  H    1.000019
   131  H    0.999961
   132  H    1.000007
   133  H    1.000010
   134  H    1.000018
   135  H    1.000007
   136  H    0.999910
   137  H    0.999875
   138  H    0.999881
   139  H    0.999956
   140  H    0.999958
   141  H    0.999932
   142  H    0.999993
   143  H    1.000015
   144  H    1.000002
   145  H    0.999973
   146  H    0.999994
   147  H    0.999992
   148  H    1.000048
   149  H    1.000010
   150  H    1.000023
   151  H    1.000007
   152  H    1.000099
   153  H    1.000095
   154  H    1.000077
   155  H    1.000044
   156  H    1.000038
   157  H    1.000023
   158  H    1.000029
 Sum of Mulliken charges = 624.00000

 Dipole moment (field-independent basis, Debye):
    X=              3.1041    Y=             10.0134    Z=              0.5655  Tot=             10.4987
 Quadrupole moment (field-independent basis, Debye-Ang):
   XX=           -154.8310   YY=             -4.9029   ZZ=              3.2919
   XY=           -254.1817   XZ=            -12.2855   YZ=              3.6631

 Normal termination of Gaussian 16 at Thu Oct 14 13:25:44 2021.
