 Gaussian 16, Revision A.03,
 Gaussian 16:  ES64L-G16RevA.03 25-Dec-2016

 ---------------------------------------------------------
 #p PBE1PBE/Def2SVP td=(nstates=5, root=1) density=current
 ---------------------------------------------------------

 --------------------------------
 TDDFT excited states in gaussian
 --------------------------------
 Symbolic Z-matrix:
 Charge =  0 Multiplicity = 1

                         Standard orientation:
 ---------------------------------------------------------------------
 Center     Atomic      Atomic             Coordinates (Angstroms)
 Number     Number       Type             X           Y           Z
 ---------------------------------------------------------------------
      1         12           0       -0.765674   -0.071719    0.363932
      2          6           0        2.704964    0.330817   -0.190180
      3          6           0       -0.306657   -3.301450    0.001540
      4          6           0       -4.026710   -0.224523   -0.159824
      5          6           0       -0.981285    3.456700    0.000417
      6          7           0        1.123635   -1.296984    0.117533
      7          6           0        2.362764   -0.983492    0.005403
      8          6           0        3.260123   -2.231152    0.138002
      9          6           0        2.271893   -3.433699   -0.284861
     10          6           0        0.914004   -2.631535   -0.124082
     11          6           0        2.468481   -4.034391   -1.732863
     12          6           0        3.733873   -2.436315    1.670436
     13          6           0        5.130089   -3.061195    1.991743
     14          1           0        5.700571   -4.070912    0.928787
     15          7           0       -2.031709   -1.580607    0.181329
     16          6           0       -1.612281   -2.900515    0.110114
     17          6           0       -2.831141   -3.776789   -0.002916
     18          6           0       -3.944294   -2.836227   -0.012891
     19          6           0       -3.440650   -1.460094   -0.006150
     20          6           0       -2.708004   -5.283675   -0.127598
     21          6           0       -5.419183   -3.172662   -0.029073
     22          8           0       -6.331586   -2.336181   -0.080265
     23          6           0       -5.823240   -4.588501    0.058235
     24          7           0       -2.356522    1.468906    0.067578
     25          6           0       -3.597183    1.082686   -0.169029
     26          6           0       -4.590101    2.321147   -0.031988
     27          6           0       -3.517419    3.540054   -0.005396
     28          6           0       -2.197864    2.775958    0.062431
     29          6           0       -5.673034    2.393065   -1.158786
     30          6           0       -3.632209    4.594796    1.143687
     31          6           0       -4.060899    5.986398    0.754969
     32          7           0        0.577066    1.642960    0.195219
     33          6           0        0.291400    2.987113    0.060920
     34          6           0        1.471165    3.708243   -0.178450
     35          6           0        2.436967    2.694608   -0.325281
     36          6           0        1.883127    1.451347   -0.131193
     37          6           0        1.633548    5.136247   -0.332196
     38          6           0        3.826776    2.541287   -0.517887
     39          8           0        4.818173    3.314934   -0.611609
     40          6           0        4.013570    0.969356   -0.710672
     41          6           0        5.236436    0.505753   -0.007811
     42          8           0        5.470209    0.533036    1.198726
     43          8           0        6.080108   -0.102551   -0.990038
     44          6           0        7.368824   -0.634282   -0.528677
     45          1           0       -0.086942   -4.371442    0.013790
     46          1           0       -5.110231   -0.293724   -0.270990
     47          1           0       -1.049958    4.546688   -0.031137
     48          1           0        3.971205   -2.199998   -0.687115
     49          1           0        2.478129   -4.285732    0.362002
     50          1           0        3.109276   -3.406002   -2.351042
     51          1           0        1.526053   -4.085717   -2.277829
     52          1           0        2.925179   -5.013137   -1.586366
     53          1           0        2.984869   -2.989131    2.237651
     54          1           0        3.689968   -1.466538    2.166519
     55          1           0        5.161604   -3.601828    2.938239
     56          1           0        5.859618   -2.256526    1.892036
     57          1           0       -3.414642   -5.808539    0.516277
     58          1           0       -1.705879   -5.652048    0.091937
     59          1           0       -2.769691   -5.563291   -1.179027
     60          1           0       -5.397905   -5.170235   -0.760040
     61          1           0       -6.910397   -4.664288    0.035082
     62          1           0       -5.553260   -5.099882    0.982197
     63          1           0       -5.095243    2.349838    0.933401
     64          1           0       -3.422418    4.024524   -0.978297
     65          1           0       -5.491125    1.623892   -1.909590
     66          1           0       -5.587033    3.439327   -1.452808
     67          1           0       -6.641958    2.326201   -0.665693
     68          1           0       -2.645016    4.686536    1.597144
     69          1           0       -4.300693    4.216081    1.917126
     70          1           0       -4.358918    5.872659   -0.286469
     71          1           0       -3.177774    6.625605    0.785783
     72          1           0       -4.919653    6.349002    1.318554
     73          1           0        1.154734    5.599867    0.529885
     74          1           0        1.038921    5.603204   -1.117406
     75          1           0        2.694830    5.385307   -0.341956
     76          1           0        4.097237    0.767624   -1.779047
     77          1           0        7.962603   -0.991403   -1.370506
     78          1           0        7.182957   -1.552463    0.028856
     79          1           0        7.931448    0.162818   -0.043834
 ---------------------------------------------------------------------

 SCF Done:  E(RPBE1PBE) =  -2033.65602348     A.U. after   17 cycles

 Excitation energies and oscillator strengths:

 Excited State   1:      Singlet-A      1.9488 eV  636.21 nm  f=0.3523  <S**2>=0.000
     155 ->158         0.20426
     156 ->157         0.68089
 This state for optimization and/or second-order correction.
 Total Energy, E(TD-HF/TD-DFT) =  -2033.58440650
 Copying the excited state density for this state as the 1-particle RhoCI density.

 Excited State   2:      Singlet-A      2.2125 eV  560.39 nm  f=0.0835  <S**2>=0.000
     155 ->157         0.64637
     156 ->158        -0.26597

 Excited State   3:      Singlet-A      2.8938 eV  428.45 nm  f=0.0048  <S**2>=0.000
     153 ->157         0.65053
     153 ->159         0.15017
     153 ->160        -0.11709
     154 ->157         0.10079
     156 ->158        -0.12550

 Excited State   4:      Singlet-A      2.9976 eV  413.62 nm  f=0.0006  <S**2>=0.000
     154 ->157         0.67933
     156 ->158         0.12791

 Excited State   5:      Singlet-A      3.1405 eV  394.79 nm  f=0.0011  <S**2>=0.000
     151 ->157         0.38338
     151 ->159        -0.13244
     152 ->157         0.53625
     152 ->159        -0.14863

 The electronic state is 1-A.
 Alpha  occ. eigenvalues --  -46.92798 -19.24629 -19.20415 -19.19187 -19.18772
 Alpha  occ. eigenvalues --  -14.41664 -14.41159 -14.39671 -14.38308 -10.36306
 Alpha  occ. eigenvalues --  -10.32212 -10.31675 -10.29254 -10.28673 -10.28410
 Alpha  occ. eigenvalues --  -10.28406 -10.28353 -10.28317 -10.28079 -10.27936
 Alpha  occ. eigenvalues --  -10.26849 -10.26522 -10.26497 -10.26302 -10.26166
 Alpha  occ. eigenvalues --  -10.26083 -10.26079 -10.25496 -10.25496 -10.25433
 Alpha  occ. eigenvalues --  -10.25418 -10.25135 -10.25112 -10.24633 -10.23975
 Alpha  occ. eigenvalues --  -10.23898 -10.23870 -10.23636 -10.23363 -10.23308
 Alpha  occ. eigenvalues --  -10.23073 -10.22857 -10.22399  -3.14835  -1.87678
 Alpha  occ. eigenvalues --   -1.87217  -1.87044  -1.08690  -1.04105  -1.02047
 Alpha  occ. eigenvalues --   -1.01549  -1.00445  -0.99868  -0.98238  -0.96094
 Alpha  occ. eigenvalues --   -0.87379  -0.83842  -0.82947  -0.82203  -0.81915
 Alpha  occ. eigenvalues --   -0.81652  -0.81125  -0.78602  -0.78276  -0.77009
 Alpha  occ. eigenvalues --   -0.76238  -0.75797  -0.75029  -0.73285  -0.72060
 Alpha  occ. eigenvalues --   -0.71283  -0.70233  -0.69589  -0.67714  -0.66755
 Alpha  occ. eigenvalues --   -0.63418  -0.62958  -0.62322  -0.61631  -0.60441
 Alpha  occ. eigenvalues --   -0.60101  -0.60036  -0.59169  -0.55838  -0.55086
 Alpha  occ. eigenvalues --   -0.54738  -0.53918  -0.53043  -0.52327  -0.51887
 Alpha  occ. eigenvalues --   -0.51500  -0.50352  -0.50012  -0.48843  -0.48560
 Alpha  occ. eigenvalues --   -0.48104  -0.47747  -0.47549  -0.47085  -0.47032
 Alpha  occ. eigenvalues --   -0.46666  -0.46103  -0.45738  -0.45510  -0.45073
 Alpha  occ. eigenvalues --   -0.44994  -0.44489  -0.44246  -0.43782  -0.43436
 Alpha  occ. eigenvalues --   -0.43271  -0.43049  -0.42660  -0.42480  -0.42314
 Alpha  occ. eigenvalues --   -0.42025  -0.41671  -0.41540  -0.41078  -0.40903
 Alpha  occ. eigenvalues --   -0.40315  -0.40157  -0.39743  -0.39001  -0.38797
 Alpha  occ. eigenvalues --   -0.38744  -0.38412  -0.38148  -0.37796  -0.37500
 Alpha  occ. eigenvalues --   -0.36779  -0.36483  -0.36382  -0.35978  -0.35875
 Alpha  occ. eigenvalues --   -0.35657  -0.35527  -0.35280  -0.35020  -0.33980
 Alpha  occ. eigenvalues --   -0.33505  -0.32886  -0.32448  -0.31568  -0.31050
 Alpha  occ. eigenvalues --   -0.30685  -0.29799  -0.28962  -0.28800  -0.27429
 Alpha  occ. eigenvalues --   -0.26054  -0.25954  -0.25302  -0.25023  -0.21119
 Alpha  occ. eigenvalues --   -0.19320
 Alpha virt. eigenvalues --   -0.11181  -0.06076  -0.04432  -0.02154  -0.00551
 Alpha virt. eigenvalues --   -0.00040   0.01146   0.01405   0.03007   0.03671
 Alpha virt. eigenvalues --    0.04351   0.05298   0.05694   0.06675   0.06969

 Mulliken charges:
               1
     1  Mg   0.948204
     2  C   -0.008769
     3  C   -0.083264
     4  C   -0.059895
     5  C   -0.087011
     6  N   -0.331002
     7  C   -0.033219
     8  C   -0.049159
     9  C   -0.177846
    10  C    0.066984
    11  C    0.012148
    12  C    0.009714
    13  C   -0.144792
    14  H    0.006977
    15  N   -0.605270
    16  C    0.240731
    17  C   -0.167007
    18  C   -0.073784
    19  C    0.197265
    20  C    0.056316
    21  C    0.056134
    22  O   -0.255822
    23  C   -0.037376
    24  N   -0.330083
    25  C    0.072789
    26  C   -0.144997
    27  C   -0.111435
    28  C    0.050561
    29  C    0.027876
    30  C   -0.031092
    31  C   -0.053042
    32  N   -0.458951
    33  C    0.170085
    34  C   -0.161188
    35  C   -0.032951
    36  C    0.168872
    37  C    0.087033
    38  C    0.145855
    39  O   -0.264951
    40  C   -0.134748
    41  C    0.315035
    42  O   -0.255642
    43  O   -0.411025
    44  C    0.128496
    45  H    0.002456
    46  H    0.025506
    47  H   -0.007545
    48  H    0.040664
    49  H    0.055903
    50  H    0.043147
    51  H    0.047481
    52  H    0.049827
    53  H    0.036236
    54  H    0.067176
    55  H    0.070192
    56  H    0.091199
    57  H    0.060602
    58  H    0.033972
    59  H    0.063147
    60  H    0.057543
    61  H    0.049932
    62  H    0.062434
    63  H    0.063110
    64  H    0.051459
    65  H    0.069046
    66  H    0.037828
    67  H    0.046347
    68  H    0.046196
    69  H    0.034615
    70  H    0.031920
    71  H    0.047603
    72  H    0.052320
    73  H    0.034498
    74  H    0.047724
    75  H    0.074811
    76  H    0.088927
    77  H    0.047101
    78  H    0.049638
    79  H    0.070229
 Sum of Mulliken charges =  -0.00000

 Dipole moment (field-independent basis, Debye):
    X=             -2.4968    Y=             -3.3952    Z=             -0.0028  Tot=              4.2144
 Quadrupole moment (field-independent basis, Debye-Ang):
   XX=           -283.4515   YY=           -225.0167   ZZ=           -255.9824
   XY=            -34.5782   XZ=             -6.9219   YZ=              1.3105

 Normal termination of Gaussian 16 at Wed Oct 13 12:59:05 2021.
