 Gaussian 16, Revision A.03,
 Gaussian 16:  ES64L-G16RevA.03 25-Dec-2016

 --------------------------------------------------------
 #p PBE1PBE/Def2SVP td=(nstates=5) density=(transition=1)
 --------------------------------------------------------

 --------------------------------
 TDDFT excited states in gaussian
 --------------------------------
 Symbolic Z-matrix:
 Charge =  0 Multiplicity = 1

                         Standard orientation:
 ---------------------------------------------------------------------
 Center     Atomic      Atomic             Coordinates (Angstroms)
 Number     Number       Type             X           Y           Z
 ---------------------------------------------------------------------
      1         12           0      -17.098400    0.655878    0.099013
      2          6           0      -15.576159   -2.345734   -1.136332
      3          6           0      -14.924512    2.437056   -1.899275
      4          6           0      -18.066506    3.336917    1.695888
      5          6           0      -19.014254   -1.361327    2.165609
      6          7           0      -15.198136    0.088696   -1.186518
      7          6           0      -14.922362   -1.191129   -1.585409
      8          6           0      -13.938404   -1.158524   -2.785477
      9          6           0      -13.670488    0.389269   -3.004265
     10          6           0      -14.629194    1.072197   -1.961933
     11          6           0      -12.187411    0.919607   -2.813422
     12          6           0      -14.456060   -1.835551   -4.082580
     13          6           0      -13.521669   -2.727012   -4.820326
     14          1           0      -11.956849   -2.694817   -4.631932
     15          7           0      -16.567969    2.683657   -0.050173
     16          6           0      -15.754363    3.268248   -1.020377
     17          6           0      -15.678512    4.719663   -0.765937
     18          6           0      -16.699033    4.991678    0.224295
     19          6           0      -17.153614    3.656299    0.676616
     20          6           0      -14.781608    5.693008   -1.469058
     21          6           0      -17.236189    6.328107    0.788443
     22          8           0      -18.313720    6.463236    1.405661
     23          6           0      -16.508389    7.560090    0.427059
     24          7           0      -18.278422    0.903724    1.690642
     25          6           0      -18.467766    2.166602    2.207400
     26          6           0      -19.601922    2.173962    3.269507
     27          6           0      -20.149357    0.684742    3.130115
     28          6           0      -19.097115    0.018387    2.260813
     29          6           0      -19.232905    2.576318    4.755510
     30          6           0      -21.538005    0.511134    2.535672
     31          6           0      -22.606547   -0.060070    3.491190
     32          7           0      -17.428287   -1.418565    0.337156
     33          6           0      -18.220141   -2.083754    1.243042
     34          6           0      -18.020893   -3.533261    1.114580
     35          6           0      -17.035654   -3.651368    0.150356
     36          6           0      -16.703078   -2.351742   -0.292658
     37          6           0      -18.653430   -4.643683    1.886700
     38          6           0      -16.297920   -4.632171   -0.561317
     39          8           0      -16.372756   -5.893529   -0.591310
     40          6           0      -15.352387   -3.870096   -1.389555
     41          6           0      -13.948052   -4.357499   -1.155707
     42          8           0      -13.317652   -4.184448   -0.169156
     43          8           0      -13.486810   -4.956399   -2.253451
     44          6           0      -12.314016   -5.759171   -2.172108
     45          1           0      -14.266684    3.077901   -2.490339
     46          1           0      -18.512315    4.142037    2.285169
     47          1           0      -19.564277   -1.982829    2.874154
     48          1           0      -13.041289   -1.678427   -2.447308
     49          1           0      -13.995241    0.684243   -4.001623
     50          1           0      -11.427611    0.147867   -2.693257
     51          1           0      -12.172377    1.473018   -1.873350
     52          1           0      -11.920145    1.602118   -3.620745
     53          1           0      -14.763781   -1.115968   -4.842168
     54          1           0      -15.318346   -2.478193   -3.907231
     55          1           0      -13.592307   -2.528097   -5.890121
     56          1           0      -13.842555   -3.752046   -4.636825
     57          1           0      -14.198715    6.244822   -0.731925
     58          1           0      -15.437736    6.390012   -1.990393
     59          1           0      -14.229719    5.216710   -2.280063
     60          1           0      -15.506975    7.484771    0.850965
     61          1           0      -17.019946    8.362100    0.958664
     62          1           0      -16.588495    7.787171   -0.635663
     63          1           0      -20.358232    2.855226    2.878360
     64          1           0      -20.162855    0.261717    4.134540
     65          1           0      -18.172579    2.816111    4.826418
     66          1           0      -19.563469    1.843513    5.492597
     67          1           0      -19.827382    3.455253    5.005360
     68          1           0      -21.597803    0.001852    1.573718
     69          1           0      -21.898408    1.510015    2.292074
     70          1           0      -23.266601   -0.829613    3.091397
     71          1           0      -23.340079    0.732033    3.643922
     72          1           0      -22.229036   -0.462771    4.430122
     73          1           0      -19.561746   -4.331373    2.402790
     74          1           0      -18.015080   -4.926904    2.723472
     75          1           0      -18.719232   -5.492755    1.206484
     76          1           0      -15.642616   -4.061260   -2.422335
     77          1           0      -12.610951   -6.679146   -1.666573
     78          1           0      -11.577107   -5.307151   -1.508056
     79          1           0      -11.952962   -6.031269   -3.164282
     80         12           0       16.885557    0.608425   -0.219082
     81          6           0       15.544620   -2.578384    0.391179
     82          6           0       14.195585    1.263481   -2.188165
     83          6           0       18.026121    3.671310   -0.338418
     84          6           0       19.084117   -0.104292    2.542217
     85          7           0       15.151263   -0.558100   -0.854553
     86          6           0       14.787081   -1.819575   -0.476551
     87          6           0       13.335310   -2.053215   -0.920533
     88          6           0       13.220466   -1.117688   -2.118986
     89          6           0       14.189859   -0.023041   -1.633224
     90          6           0       13.702717   -1.766114   -3.437173
     91          6           0       12.318681   -1.688519    0.223730
     92          6           0       11.456900   -2.872435    0.886203
     93          1           0       11.612055   -3.158595    2.389568
     94          7           0       16.178062    2.258758   -1.087784
     95          6           0       15.058359    2.330124   -1.884331
     96          6           0       15.009260    3.634338   -2.467470
     97          6           0       16.172242    4.372691   -2.068607
     98          6           0       16.866672    3.456897   -1.117730
     99          6           0       13.859975    4.107482   -3.422030
    100          6           0       16.551311    5.805386   -2.592325
    101          8           0       15.901928    6.319130   -3.450502
    102          6           0       17.848098    6.356390   -2.218097
    103          7           0       18.139281    1.738881    1.157632
    104          6           0       18.682639    2.842237    0.590751
    105          6           0       20.075773    3.157694    1.109006
    106          6           0       20.241238    2.188752    2.269779
    107          6           0       19.066860    1.187247    1.991811
    108          6           0       21.193348    2.973418    0.016790
    109          6           0       20.225652    2.744242    3.771225
    110          6           0       21.473084    2.807418    4.611163
    111          7           0       17.405390   -1.027163    1.042081
    112          6           0       18.304407   -1.176357    2.105929
    113          6           0       18.198845   -2.484678    2.714840
    114          6           0       17.148515   -3.067368    2.049215
    115          6           0       16.653495   -2.166383    1.049725
    116          6           0       19.007073   -2.970128    3.845336
    117          6           0       16.339784   -4.274244    1.971107
    118          8           0       16.463273   -5.346428    2.576012
    119          6           0       15.357208   -4.053506    0.840341
    120          6           0       15.645290   -5.109116   -0.221611
    121          8           0       16.754139   -5.190736   -0.745037
    122          8           0       14.563255   -5.988247   -0.383706
    123          6           0       14.780351   -7.032837   -1.348599
    124          1           0       13.406653    1.383937   -2.933082
    125          1           0       18.547797    4.576537   -0.652893
    126          1           0       19.828162   -0.350553    3.302887
    127          1           0       13.223408   -3.127354   -1.070301
    128          1           0       12.181838   -0.799457   -2.199778
    129          1           0       12.842695   -1.523456   -4.060360
    130          1           0       13.794778   -2.827301   -3.204156
    131          1           0       14.638249   -1.394754   -3.855642
    132          1           0       11.581973   -1.009338   -0.205132
    133          1           0       12.858913   -1.109415    0.972237
    134          1           0       11.806839   -3.784799    0.402665
    135          1           0       10.387263   -2.823053    0.685913
    136          1           0       13.378483    5.061467   -3.209370
    137          1           0       13.101009    3.325904   -3.374412
    138          1           0       14.177752    4.172212   -4.462823
    139          1           0       18.003475    6.451820   -1.143236
    140          1           0       17.948091    7.339763   -2.677453
    141          1           0       18.644493    5.829675   -2.742068
    142          1           0       20.184948    4.200190    1.409839
    143          1           0       21.153766    1.605291    2.147327
    144          1           0       21.494470    3.908873   -0.454440
    145          1           0       20.897770    2.186768   -0.677396
    146          1           0       22.078507    2.593718    0.529124
    147          1           0       19.417352    2.424036    4.427777
    148          1           0       19.972788    3.768360    3.495447
    149          1           0       21.792486    3.823768    4.839456
    150          1           0       22.294382    2.324690    4.080948
    151          1           0       21.215379    2.258182    5.516426
    152          1           0       19.342508   -2.100117    4.410494
    153          1           0       19.885296   -3.434711    3.396122
    154          1           0       18.468504   -3.714467    4.430067
    155          1           0       14.400682   -4.260223    1.318457
    156          1           0       14.699224   -6.714635   -2.388301
    157          1           0       14.073619   -7.851849   -1.217997
    158          1           0       15.750372   -7.522971   -1.269898
 ---------------------------------------------------------------------

 SCF Done:  E(RPBE1PBE) =  -4067.37787190     A.U. after   16 cycles

 Excitation energies and oscillator strengths:

 Excited State   1:      Singlet-A      1.8640 eV  665.16 nm  f=0.3705  <S**2>=0.000
     310 -> 316       -0.17309
     311 -> 313        0.69300
     311 <- 313       -0.11097
 This state for optimization and/or second-order correction.
 Total Energy, E(TD-HF/TD-DFT) =  -4067.30937248
 Copying the excited state density for this state as the 1-particle RhoCI density.

 Excited State   2:      Singlet-A      1.8785 eV  660.00 nm  f=0.0000  <S**2>=0.000
     312 -> 313        0.70711

 Excited State   3:      Singlet-A      1.8786 eV  659.98 nm  f=0.3859  <S**2>=0.000
     309 -> 315       -0.18318
     312 -> 314        0.68900
     312 <- 314       -0.10080

 Excited State   4:      Singlet-A      2.0837 eV  595.01 nm  f=0.0000  <S**2>=0.000
     311 -> 314        0.70711

 Excited State   5:      Singlet-A      2.2041 eV  562.52 nm  f=0.1217  <S**2>=0.000
     310 -> 313        0.66066
     311 -> 316        0.24061

 The electronic state is 1-A.
 Alpha  occ. eigenvalues --  -46.92306 -46.92080 -19.26662 -19.25535 -19.20773
 Alpha  occ. eigenvalues --  -19.19734 -19.19318 -19.19027 -19.18989 -19.18921
 Alpha  occ. eigenvalues --  -14.41643 -14.41595 -14.41534 -14.41159 -14.39342
 Alpha  occ. eigenvalues --  -14.39222 -14.39079 -14.38999 -10.37260 -10.35912
 Alpha  occ. eigenvalues --  -10.32298 -10.32223 -10.31646 -10.31579 -10.29262
 Alpha  occ. eigenvalues --  -10.28884 -10.28880 -10.28868 -10.28711 -10.28640
 Alpha  occ. eigenvalues --  -10.28547 -10.28533 -10.28401 -10.28340 -10.28257
 Alpha  occ. eigenvalues --  -10.27959 -10.27583 -10.27478 -10.27440 -10.27290
 Alpha  occ. eigenvalues --  -10.26809 -10.26743 -10.26721 -10.26230 -10.26138
 Alpha  occ. eigenvalues --  -10.26091 -10.26079 -10.25991 -10.25981 -10.25940
 Alpha  occ. eigenvalues --  -10.25863 -10.25813 -10.25717 -10.25689 -10.25660
 Alpha  occ. eigenvalues --  -10.25600 -10.25421 -10.25381 -10.25290 -10.25286
 Alpha  occ. eigenvalues --  -10.25112 -10.24996 -10.24884 -10.24752 -10.24605
 Alpha  occ. eigenvalues --  -10.24554 -10.24523 -10.24509 -10.24381 -10.24302
 Alpha  occ. eigenvalues --  -10.24292 -10.24083 -10.23810 -10.23742 -10.23689
 Alpha  occ. eigenvalues --  -10.23611 -10.23448 -10.23436 -10.23356 -10.23120
 Alpha  occ. eigenvalues --  -10.23011 -10.23010 -10.22922 -10.22865 -10.22776
 Alpha  occ. eigenvalues --  -10.22597  -3.14463  -3.14269  -1.87286  -1.87083
 Alpha  occ. eigenvalues --   -1.86852  -1.86685  -1.86658  -1.86492  -1.13312
 Alpha  occ. eigenvalues --   -1.10703  -1.06710  -1.04429  -1.03781  -1.03221
 Alpha  occ. eigenvalues --   -1.02995  -1.02543  -0.99379  -0.99343  -0.98892
 Alpha  occ. eigenvalues --   -0.98365  -0.97492  -0.97241  -0.96783  -0.96538
 Alpha  occ. eigenvalues --   -0.87783  -0.87375  -0.83474  -0.83450  -0.83267
 Alpha  occ. eigenvalues --   -0.82863  -0.82740  -0.82697  -0.81919  -0.81898
 Alpha  occ. eigenvalues --   -0.81453  -0.81295  -0.80631  -0.79330  -0.78854
 Alpha  occ. eigenvalues --   -0.78843  -0.78518  -0.77804  -0.76872  -0.76817
 Alpha  occ. eigenvalues --   -0.76762  -0.76349  -0.76033  -0.75377  -0.75184
 Alpha  occ. eigenvalues --   -0.74856  -0.72684  -0.72344  -0.72002  -0.71529
 Alpha  occ. eigenvalues --   -0.71459  -0.70709  -0.70607  -0.70586  -0.69614
 Alpha  occ. eigenvalues --   -0.69454  -0.67548  -0.67313  -0.66598  -0.65973
 Alpha  occ. eigenvalues --   -0.63734  -0.63409  -0.63394  -0.63028  -0.62494
 Alpha  occ. eigenvalues --   -0.61872  -0.61232  -0.60767  -0.60363  -0.60262
 Alpha  occ. eigenvalues --   -0.60085  -0.59446  -0.59409  -0.59250  -0.59028
 Alpha  occ. eigenvalues --   -0.58969  -0.57518  -0.57275  -0.54757  -0.54741
 Alpha  occ. eigenvalues --   -0.54614  -0.54482  -0.53913  -0.53738  -0.53492
 Alpha  occ. eigenvalues --   -0.53483  -0.52959  -0.52801  -0.52371  -0.52287
 Alpha  occ. eigenvalues --   -0.50882  -0.50851  -0.50740  -0.50676  -0.49799
 Alpha  occ. eigenvalues --   -0.49649  -0.49505  -0.49390  -0.48578  -0.48328
 Alpha  occ. eigenvalues --   -0.48138  -0.47985  -0.47758  -0.47692  -0.47640
 Alpha  occ. eigenvalues --   -0.47612  -0.47442  -0.47313  -0.47170  -0.46971
 Alpha  occ. eigenvalues --   -0.46749  -0.46316  -0.46207  -0.46132  -0.45940
 Alpha  occ. eigenvalues --   -0.45825  -0.45611  -0.45493  -0.45124  -0.44753
 Alpha  occ. eigenvalues --   -0.44751  -0.44612  -0.44461  -0.44380  -0.44152
 Alpha  occ. eigenvalues --   -0.43901  -0.43882  -0.43715  -0.43671  -0.43407
 Alpha  occ. eigenvalues --   -0.43301  -0.43263  -0.43005  -0.42979  -0.42938
 Alpha  occ. eigenvalues --   -0.42744  -0.42406  -0.42241  -0.42103  -0.41843
 Alpha  occ. eigenvalues --   -0.41551  -0.41501  -0.41303  -0.41027  -0.41003
 Alpha  occ. eigenvalues --   -0.40933  -0.40902  -0.40856  -0.40714  -0.40620
 Alpha  occ. eigenvalues --   -0.40451  -0.40132  -0.40068  -0.40006  -0.39544
 Alpha  occ. eigenvalues --   -0.39278  -0.39217  -0.39097  -0.39072  -0.38999
 Alpha  occ. eigenvalues --   -0.38642  -0.38464  -0.38382  -0.38317  -0.38140
 Alpha  occ. eigenvalues --   -0.38012  -0.37899  -0.37606  -0.37429  -0.37393
 Alpha  occ. eigenvalues --   -0.37239  -0.37030  -0.36851  -0.36833  -0.36605
 Alpha  occ. eigenvalues --   -0.36555  -0.36507  -0.36449  -0.36302  -0.36128
 Alpha  occ. eigenvalues --   -0.36012  -0.35827  -0.35806  -0.35594  -0.35280
 Alpha  occ. eigenvalues --   -0.35195  -0.34958  -0.34935  -0.34639  -0.33941
 Alpha  occ. eigenvalues --   -0.33895  -0.33202  -0.32983  -0.32870  -0.32469
 Alpha  occ. eigenvalues --   -0.32063  -0.31994  -0.31716  -0.31597  -0.31377
 Alpha  occ. eigenvalues --   -0.31249  -0.30900  -0.29913  -0.29704  -0.29488
 Alpha  occ. eigenvalues --   -0.29254  -0.29011  -0.28497  -0.27095  -0.26959
 Alpha  occ. eigenvalues --   -0.26128  -0.26121  -0.26029  -0.25852  -0.25677
 Alpha  occ. eigenvalues --   -0.25579  -0.25323  -0.25266  -0.21287  -0.21010
 Alpha  occ. eigenvalues --   -0.18933  -0.18672
 Alpha virt. eigenvalues --   -0.11376  -0.10882  -0.05645  -0.05047  -0.04358
 Alpha virt. eigenvalues --   -0.03706  -0.02390  -0.01881  -0.00878  -0.00515
 Alpha virt. eigenvalues --   -0.00352   0.00754   0.01174   0.01656   0.01733

 Mulliken charges:
               1
     1  Mg  11.999893
     2  C    6.019820
     3  C    5.996576
     4  C    5.972982
     5  C    6.003039
     6  N    7.006225
     7  C    5.971040
     8  C    6.009493
     9  C    5.994133
    10  C    6.024861
    11  C    5.997854
    12  C    6.002150
    13  C    6.000900
    14  H    0.995108
    15  N    6.996482
    16  C    6.039696
    17  C    6.019615
    18  C    6.013559
    19  C    6.032942
    20  C    5.997399
    21  C    6.014943
    22  O    8.029436
    23  C    5.992693
    24  N    6.992604
    25  C    6.035923
    26  C    5.987994
    27  C    6.008264
    28  C    5.972368
    29  C    6.000909
    30  C    6.008300
    31  C    6.001287
    32  N    7.002281
    33  C    5.969375
    34  C    5.965528
    35  C    6.000643
    36  C    5.970124
    37  C    6.002465
    38  C    5.982658
    39  O    7.970183
    40  C    6.005118
    41  C    5.994553
    42  O    7.995060
    43  O    7.998299
    44  C    6.001355
    45  H    1.009904
    46  H    1.004935
    47  H    0.988044
    48  H    1.000574
    49  H    1.001420
    50  H    1.011504
    51  H    0.996082
    52  H    1.000851
    53  H    0.991697
    54  H    1.007079
    55  H    0.996668
    56  H    1.004983
    57  H    1.017052
    58  H    1.017348
    59  H    1.016363
    60  H    1.007488
    61  H    1.014312
    62  H    1.007070
    63  H    0.999054
    64  H    0.998273
    65  H    0.996970
    66  H    1.009133
    67  H    0.999073
    68  H    1.001740
    69  H    0.986707
    70  H    1.000233
    71  H    0.993639
    72  H    0.999409
    73  H    0.982287
    74  H    0.978166
    75  H    0.985423
    76  H    0.990222
    77  H    1.000052
    78  H    0.995296
    79  H    0.994821
    80  Mg  11.999985
    81  C    5.998782
    82  C    6.000743
    83  C    6.000802
    84  C    5.999324
    85  N    6.999781
    86  C    6.001665
    87  C    6.000031
    88  C    6.000385
    89  C    5.998324
    90  C    6.000096
    91  C    5.999932
    92  C    5.999986
    93  H    0.999775
    94  N    7.000317
    95  C    5.997862
    96  C    5.998970
    97  C    5.999377
    98  C    5.998034
    99  C    6.000186
   100  C    5.999153
   101  O    7.998960
   102  C    6.000431
   103  N    6.999917
   104  C    5.998339
   105  C    6.000447
   106  C    5.999717
   107  C    6.001774
   108  C    6.000219
   109  C    5.999503
   110  C    6.000034
   111  N    6.999936
   112  C    6.001922
   113  C    6.001626
   114  C    6.000002
   115  C    6.001791
   116  C    5.999913
   117  C    6.001126
   118  O    8.001769
   119  C    5.999835
   120  C    6.000407
   121  O    8.000116
   122  O    8.000140
   123  C    5.999794
   124  H    0.999372
   125  H    0.999523
   126  H    1.000544
   127  H    0.999819
   128  H    0.999824
   129  H    0.999914
   130  H    0.999229
   131  H    1.000052
   132  H    1.000601
   133  H    0.999945
   134  H    0.999960
   135  H    1.000235
   136  H    0.998940
   137  H    0.999112
   138  H    0.998994
   139  H    0.999453
   140  H    0.999247
   141  H    0.999518
   142  H    0.999990
   143  H    1.000001
   144  H    1.000097
   145  H    0.999853
   146  H    0.999404
   147  H    0.999973
   148  H    1.000685
   149  H    1.000278
   150  H    1.000120
   151  H    0.999926
   152  H    1.000886
   153  H    1.001054
   154  H    1.000798
   155  H    1.000595
   156  H    1.000382
   157  H    1.000352
   158  H    1.000099
 Sum of Mulliken charges = 624.00000

 Dipole moment (field-independent basis, Debye):
    X=              2.2076    Y=              9.9374    Z=             -1.0994  Tot=             10.2388
 Quadrupole moment (field-independent basis, Debye-Ang):
   XX=            -67.6624   YY=             12.5461   ZZ=             -0.6397
   XY=           -180.1774   XZ=             30.6504   YZ=              1.2710

 Normal termination of Gaussian 16 at Fri Oct 15 11:33:33 2021.
