 Gaussian 16, Revision A.03,
 Gaussian 16:  ES64L-G16RevA.03 25-Dec-2016

 --------------------------------------------------------
 #p PBE1PBE/Def2SVP td=(nstates=5) density=(transition=1)
 --------------------------------------------------------

 --------------------------------
 TDDFT excited states in gaussian
 --------------------------------
 Symbolic Z-matrix:
 Charge =  0 Multiplicity = 1

                         Standard orientation:
 ---------------------------------------------------------------------
 Center     Atomic      Atomic             Coordinates (Angstroms)
 Number     Number       Type             X           Y           Z
 ---------------------------------------------------------------------
      1         12           0      -23.925504    0.423607    0.206472
      2          6           0      -22.257276   -2.471411   -0.446124
      3          6           0      -20.839799    1.996165    0.392843
      4          6           0      -25.580795    3.332922    0.468182
      5          6           0      -26.969182   -1.115436   -0.661363
      6          7           0      -21.792918   -0.143403   -0.265283
      7          6           0      -21.401759   -1.418009   -0.464652
      8          6           0      -19.946018   -1.531177   -0.735555
      9          6           0      -19.451511   -0.101526   -0.069176
     10          6           0      -20.781293    0.673503    0.042790
     11          6           0      -18.684074   -0.293082    1.272219
     12          6           0      -19.705866   -1.587101   -2.235875
     13          6           0      -20.285914   -0.421836   -3.164011
     14          1           0      -19.462631    0.120645   -4.325612
     15          7           0      -23.313125    2.382856    0.400976
     16          6           0      -21.982031    2.828702    0.600199
     17          6           0      -22.053137    4.204040    0.965628
     18          6           0      -23.369815    4.647375    0.953024
     19          6           0      -24.188253    3.462819    0.643889
     20          6           0      -20.757070    4.927009    1.271103
     21          6           0      -23.867343    6.060996    1.138408
     22          8           0      -22.980128    6.927398    1.339444
     23          6           0      -25.194904    6.520860    0.903585
     24          7           0      -25.966073    1.042570   -0.279546
     25          6           0      -26.401658    2.306893   -0.011108
     26          6           0      -27.910240    2.458185   -0.320932
     27          6           0      -28.329614    0.994464   -0.686490
     28          6           0      -27.000043    0.262786   -0.613766
     29          6           0      -28.702843    3.065736    0.816704
     30          6           0      -29.037873    0.933780   -2.143276
     31          6           0      -30.262245    0.013413   -2.205082
     32          7           0      -24.593213   -1.458973   -0.441267
     33          6           0      -25.832601   -2.002354   -0.556573
     34          6           0      -25.658263   -3.426968   -0.639974
     35          6           0      -24.254924   -3.730588   -0.562844
     36          6           0      -23.661120   -2.482728   -0.469630
     37          6           0      -26.716998   -4.402258   -1.026182
     38          6           0      -23.218660   -4.710138   -0.631276
     39          8           0      -23.411967   -5.928837   -0.724889
     40          6           0      -21.914373   -3.942076   -0.522719
     41          6           0      -21.170568   -4.439733    0.660026
     42          8           0      -20.895235   -5.621164    0.733390
     43          8           0      -20.782969   -3.471689    1.535375
     44          6           0      -20.027573   -3.948223    2.695638
     45          1           0      -19.892307    2.427696    0.721876
     46          1           0      -26.114627    4.229786    0.788762
     47          1           0      -27.887145   -1.698553   -0.763407
     48          1           0      -19.410370   -2.386483   -0.323565
     49          1           0      -18.669972    0.359332   -0.674654
     50          1           0      -17.685939    0.136393    1.194468
     51          1           0      -18.572326   -1.367553    1.419965
     52          1           0      -19.191784    0.109892    2.149505
     53          1           0      -20.024840   -2.573993   -2.571767
     54          1           0      -18.624575   -1.713954   -2.287593
     55          1           0      -20.553771    0.502179   -2.651445
     56          1           0      -21.143751   -0.914829   -3.620439
     57          1           0      -20.375930    5.256450    0.304328
     58          1           0      -20.047036    4.215346    1.690541
     59          1           0      -20.823694    5.773929    1.954689
     60          1           0      -25.211927    7.562420    0.581156
     61          1           0      -25.883425    6.304238    1.721373
     62          1           0      -25.511112    5.996841    0.002653
     63          1           0      -27.915645    3.096671   -1.205029
     64          1           0      -28.937777    0.581061    0.117851
     65          1           0      -28.090802    3.408060    1.650736
     66          1           0      -29.579258    2.564660    1.226820
     67          1           0      -29.007548    4.026669    0.401112
     68          1           0      -28.375094    0.602804   -2.942894
     69          1           0      -29.324830    1.922711   -2.500284
     70          1           0      -31.151477    0.640070   -2.267781
     71          1           0      -30.339760   -0.512991   -1.253534
     72          1           0      -30.237798   -0.671640   -3.052693
     73          1           0      -27.522838   -4.579150   -0.314859
     74          1           0      -26.184454   -5.331031   -1.234272
     75          1           0      -27.245253   -4.097962   -1.929823
     76          1           0      -21.350338   -4.175756   -1.426164
     77          1           0      -19.147918   -4.475476    2.325319
     78          1           0      -20.620841   -4.553878    3.380892
     79          1           0      -19.781773   -3.120083    3.360208
     80         12           0       24.185702    0.341398   -0.136620
     81          6           0       22.504011   -2.262464    1.432547
     82          6           0       22.757411    2.480306    2.134548
     83          6           0       25.636440    2.970653   -1.838758
     84          6           0       25.143989   -1.779157   -2.731907
     85          7           0       22.871605    0.094110    1.634598
     86          6           0       22.394943   -1.046504    2.161878
     87          6           0       21.680680   -0.883824    3.523859
     88          6           0       21.563372    0.697863    3.615352
     89          6           0       22.424374    1.169023    2.347297
     90          6           0       20.046180    1.101635    3.582698
     91          6           0       22.634726   -1.553162    4.641013
     92          6           0       21.983025   -2.629875    5.557841
     93          1           0       20.414779   -2.551419    5.622572
     94          7           0       24.167870    2.436421    0.028327
     95          6           0       23.572060    3.115454    1.111205
     96          6           0       23.984208    4.502377    1.072448
     97          6           0       24.763037    4.678609   -0.078243
     98          6           0       24.965103    3.303035   -0.666916
     99          6           0       23.327969    5.553146    1.979318
    100          6           0       25.357736    5.998277   -0.637443
    101          8           0       26.051033    6.092146   -1.667556
    102          6           0       25.146993    7.289386    0.172036
    103          7           0       25.166543    0.524958   -2.065152
    104          6           0       25.728844    1.768636   -2.485518
    105          6           0       26.275566    1.651242   -3.923618
    106          6           0       26.363366    0.060934   -4.072583
    107          6           0       25.542623   -0.440715   -2.855563
    108          6           0       25.362647    2.405352   -4.876315
    109          6           0       27.863013   -0.449859   -3.982017
    110          6           0       28.867059   -0.108273   -2.828849
    111          7           0       23.849122   -1.573328   -0.636245
    112          6           0       24.279209   -2.328474   -1.731648
    113          6           0       23.804777   -3.666702   -1.589535
    114          6           0       23.153578   -3.708129   -0.369908
    115          6           0       23.103461   -2.389598    0.146141
    116          6           0       23.930181   -4.799069   -2.588226
    117          6           0       22.471651   -4.560840    0.520871
    118          8           0       22.177466   -5.699916    0.343533
    119          6           0       21.921690   -3.620881    1.672161
    120          6           0       20.424159   -3.631767    1.536265
    121          8           0       19.776585   -2.708016    1.089694
    122          8           0       19.992699   -4.827690    1.954153
    123          6           0       18.670249   -5.146817    1.474663
    124          1           0       22.374238    3.158577    2.899466
    125          1           0       25.874789    3.824067   -2.475940
    126          1           0       25.426472   -2.454207   -3.543086
    127          1           0       20.711413   -1.376164    3.600394
    128          1           0       22.031131    1.142025    4.494301
    129          1           0       19.808013    1.954155    2.946184
    130          1           0       19.915093    1.327805    4.640508
    131          1           0       19.484718    0.191270    3.374058
    132          1           0       23.109579   -0.737641    5.186082
    133          1           0       23.455787   -2.027647    4.103030
    134          1           0       22.442170   -2.387915    6.515738
    135          1           0       22.234940   -3.660355    5.309094
    136          1           0       22.913468    6.322166    1.326987
    137          1           0       24.097407    6.045844    2.575239
    138          1           0       22.574215    5.080996    2.608659
    139          1           0       24.100316    7.570311    0.048093
    140          1           0       25.718605    8.056844   -0.349586
    141          1           0       25.604791    7.181976    1.155085
    142          1           0       27.296877    2.027826   -3.859907
    143          1           0       26.037999   -0.235044   -5.069243
    144          1           0       24.848824    3.242905   -4.404236
    145          1           0       24.607633    1.738543   -5.292124
    146          1           0       25.937709    2.864688   -5.680052
    147          1           0       28.348425   -0.213409   -4.928942
    148          1           0       27.736209   -1.526039   -3.864030
    149          1           0       29.377577    0.819993   -3.085743
    150          1           0       29.572313   -0.939892   -2.806490
    151          1           0       28.455941   -0.104004   -1.818855
    152          1           0       24.969803   -5.039359   -2.811551
    153          1           0       23.449718   -4.407005   -3.484400
    154          1           0       23.584482   -5.774502   -2.243128
    155          1           0       22.127062   -3.907184    2.703800
    156          1           0       18.500381   -6.212393    1.322210
    157          1           0       18.209092   -4.594474    0.656035
    158          1           0       17.881471   -4.909172    2.188752
 ---------------------------------------------------------------------

 SCF Done:  E(RPBE1PBE) =  -4067.37924121     A.U. after   16 cycles

 Excitation energies and oscillator strengths:

 Excited State   1:      Singlet-A      1.8363 eV  675.18 nm  f=0.0000  <S**2>=0.000
     312 -> 313        0.70711
 This state for optimization and/or second-order correction.
 Total Energy, E(TD-HF/TD-DFT) =  -4067.31175839
 Copying the excited state density for this state as the 1-particle RhoCI density.

 Excited State   2:      Singlet-A      1.8555 eV  668.18 nm  f=0.3695  <S**2>=0.000
     310 -> 316       -0.16982
     312 -> 314        0.69317
     312 <- 314       -0.10776

 Excited State   3:      Singlet-A      1.8908 eV  655.72 nm  f=0.3840  <S**2>=0.000
     309 -> 315       -0.16983
     311 -> 313        0.69195
     311 <- 313       -0.10819

 Excited State   4:      Singlet-A      2.1738 eV  570.37 nm  f=0.0000  <S**2>=0.000
     311 -> 314        0.70711

 Excited State   5:      Singlet-A      2.2081 eV  561.51 nm  f=0.1167  <S**2>=0.000
     309 -> 313        0.66034
     311 -> 315        0.22030

 The electronic state is 1-A.
 Alpha  occ. eigenvalues --  -46.92475 -46.91469 -19.27056 -19.26689 -19.20174
 Alpha  occ. eigenvalues --  -19.19757 -19.19343 -19.18993 -19.18684 -19.18252
 Alpha  occ. eigenvalues --  -14.41706 -14.41574 -14.41485 -14.40931 -14.39387
 Alpha  occ. eigenvalues --  -14.39312 -14.38642 -14.38384 -10.36517 -10.36206
 Alpha  occ. eigenvalues --  -10.32436 -10.31823 -10.31736 -10.31730 -10.29977
 Alpha  occ. eigenvalues --  -10.29242 -10.29184 -10.28740 -10.28683 -10.28495
 Alpha  occ. eigenvalues --  -10.28330 -10.28230 -10.28204 -10.28027 -10.27872
 Alpha  occ. eigenvalues --  -10.27732 -10.27669 -10.27618 -10.27560 -10.27369
 Alpha  occ. eigenvalues --  -10.27139 -10.26581 -10.26371 -10.26331 -10.26264
 Alpha  occ. eigenvalues --  -10.26263 -10.26248 -10.26220 -10.26147 -10.26070
 Alpha  occ. eigenvalues --  -10.25878 -10.25695 -10.25692 -10.25660 -10.25611
 Alpha  occ. eigenvalues --  -10.25580 -10.25530 -10.25328 -10.25251 -10.24980
 Alpha  occ. eigenvalues --  -10.24915 -10.24910 -10.24904 -10.24889 -10.24871
 Alpha  occ. eigenvalues --  -10.24721 -10.24709 -10.24682 -10.24490 -10.24279
 Alpha  occ. eigenvalues --  -10.24256 -10.24147 -10.23988 -10.23787 -10.23662
 Alpha  occ. eigenvalues --  -10.23506 -10.23332 -10.23191 -10.23082 -10.23003
 Alpha  occ. eigenvalues --  -10.22915 -10.22859 -10.22777 -10.22567 -10.22465
 Alpha  occ. eigenvalues --  -10.22133  -3.14510  -3.13649  -1.87325  -1.86903
 Alpha  occ. eigenvalues --   -1.86715  -1.86491  -1.86001  -1.85895  -1.12834
 Alpha  occ. eigenvalues --   -1.12211  -1.06576  -1.03898  -1.03776  -1.03199
 Alpha  occ. eigenvalues --   -1.02958  -1.02888  -0.99563  -0.99146  -0.98678
 Alpha  occ. eigenvalues --   -0.97886  -0.97554  -0.97284  -0.95983  -0.95981
 Alpha  occ. eigenvalues --   -0.88542  -0.87008  -0.83532  -0.83322  -0.83044
 Alpha  occ. eigenvalues --   -0.82930  -0.82339  -0.82089  -0.82024  -0.81317
 Alpha  occ. eigenvalues --   -0.80805  -0.80522  -0.80364  -0.80181  -0.79397
 Alpha  occ. eigenvalues --   -0.78454  -0.78181  -0.77621  -0.77510  -0.77056
 Alpha  occ. eigenvalues --   -0.76529  -0.75794  -0.75477  -0.75265  -0.75182
 Alpha  occ. eigenvalues --   -0.74191  -0.72982  -0.72250  -0.72051  -0.71388
 Alpha  occ. eigenvalues --   -0.71373  -0.71005  -0.70441  -0.70091  -0.69341
 Alpha  occ. eigenvalues --   -0.69284  -0.67341  -0.67006  -0.66553  -0.65634
 Alpha  occ. eigenvalues --   -0.64425  -0.63631  -0.63239  -0.63225  -0.63060
 Alpha  occ. eigenvalues --   -0.62309  -0.61540  -0.60976  -0.60859  -0.60255
 Alpha  occ. eigenvalues --   -0.59826  -0.59758  -0.59062  -0.59014  -0.58907
 Alpha  occ. eigenvalues --   -0.58409  -0.58382  -0.56905  -0.54786  -0.54438
 Alpha  occ. eigenvalues --   -0.54233  -0.53917  -0.53844  -0.53533  -0.53232
 Alpha  occ. eigenvalues --   -0.53007  -0.52744  -0.52677  -0.52585  -0.51820
 Alpha  occ. eigenvalues --   -0.51295  -0.51139  -0.50683  -0.50423  -0.50294
 Alpha  occ. eigenvalues --   -0.49723  -0.49501  -0.49143  -0.49023  -0.48876
 Alpha  occ. eigenvalues --   -0.48490  -0.48434  -0.47796  -0.47794  -0.47752
 Alpha  occ. eigenvalues --   -0.47699  -0.47006  -0.46967  -0.46798  -0.46509
 Alpha  occ. eigenvalues --   -0.46487  -0.46429  -0.46369  -0.46200  -0.46017
 Alpha  occ. eigenvalues --   -0.45788  -0.45556  -0.45540  -0.45079  -0.44753
 Alpha  occ. eigenvalues --   -0.44425  -0.44397  -0.44202  -0.44051  -0.44047
 Alpha  occ. eigenvalues --   -0.43813  -0.43799  -0.43521  -0.43368  -0.43360
 Alpha  occ. eigenvalues --   -0.43271  -0.43192  -0.42959  -0.42766  -0.42592
 Alpha  occ. eigenvalues --   -0.42439  -0.42263  -0.42167  -0.41764  -0.41681
 Alpha  occ. eigenvalues --   -0.41489  -0.41338  -0.41131  -0.41020  -0.41015
 Alpha  occ. eigenvalues --   -0.40925  -0.40752  -0.40528  -0.40432  -0.40410
 Alpha  occ. eigenvalues --   -0.40253  -0.39984  -0.39738  -0.39657  -0.39580
 Alpha  occ. eigenvalues --   -0.39494  -0.39481  -0.39443  -0.39308  -0.39229
 Alpha  occ. eigenvalues --   -0.38939  -0.38459  -0.38413  -0.38373  -0.38332
 Alpha  occ. eigenvalues --   -0.38143  -0.37872  -0.37747  -0.37675  -0.37476
 Alpha  occ. eigenvalues --   -0.37388  -0.37242  -0.37150  -0.37102  -0.36863
 Alpha  occ. eigenvalues --   -0.36774  -0.36649  -0.36621  -0.36207  -0.36092
 Alpha  occ. eigenvalues --   -0.36025  -0.35809  -0.35692  -0.35636  -0.35268
 Alpha  occ. eigenvalues --   -0.35167  -0.34514  -0.34485  -0.34120  -0.34082
 Alpha  occ. eigenvalues --   -0.33665  -0.32808  -0.32686  -0.32667  -0.32468
 Alpha  occ. eigenvalues --   -0.32461  -0.32073  -0.31956  -0.31926  -0.31531
 Alpha  occ. eigenvalues --   -0.31195  -0.31032  -0.29771  -0.29598  -0.29188
 Alpha  occ. eigenvalues --   -0.29176  -0.28561  -0.28250  -0.27374  -0.27124
 Alpha  occ. eigenvalues --   -0.26131  -0.25589  -0.25574  -0.25459  -0.25434
 Alpha  occ. eigenvalues --   -0.25360  -0.25155  -0.24811  -0.21203  -0.20672
 Alpha  occ. eigenvalues --   -0.19258  -0.18598
 Alpha virt. eigenvalues --   -0.11574  -0.10994  -0.05409  -0.04910  -0.04041
 Alpha virt. eigenvalues --   -0.03621  -0.02358  -0.01903  -0.01386  -0.00320
 Alpha virt. eigenvalues --    0.00519   0.00558   0.01311   0.01624   0.01870

 Mulliken charges:
               1
     1  Mg  12.000000
     2  C    6.000000
     3  C    6.000000
     4  C    6.000000
     5  C    6.000000
     6  N    7.000000
     7  C    6.000000
     8  C    6.000000
     9  C    6.000000
    10  C    6.000000
    11  C    6.000000
    12  C    6.000000
    13  C    6.000000
    14  H    1.000000
    15  N    7.000000
    16  C    6.000000
    17  C    6.000000
    18  C    6.000000
    19  C    6.000000
    20  C    6.000000
    21  C    6.000000
    22  O    8.000000
    23  C    6.000000
    24  N    7.000000
    25  C    6.000000
    26  C    6.000000
    27  C    6.000000
    28  C    6.000000
    29  C    6.000000
    30  C    6.000000
    31  C    6.000000
    32  N    7.000000
    33  C    6.000000
    34  C    6.000000
    35  C    6.000000
    36  C    6.000000
    37  C    6.000000
    38  C    6.000000
    39  O    8.000000
    40  C    6.000000
    41  C    6.000000
    42  O    8.000000
    43  O    8.000000
    44  C    6.000000
    45  H    1.000000
    46  H    1.000000
    47  H    1.000000
    48  H    1.000000
    49  H    1.000000
    50  H    1.000000
    51  H    1.000000
    52  H    1.000000
    53  H    1.000000
    54  H    1.000000
    55  H    1.000000
    56  H    1.000000
    57  H    1.000000
    58  H    1.000000
    59  H    1.000000
    60  H    1.000000
    61  H    1.000000
    62  H    1.000000
    63  H    1.000000
    64  H    1.000000
    65  H    1.000000
    66  H    1.000000
    67  H    1.000000
    68  H    1.000000
    69  H    1.000000
    70  H    1.000000
    71  H    1.000000
    72  H    1.000000
    73  H    1.000000
    74  H    1.000000
    75  H    1.000000
    76  H    1.000000
    77  H    1.000000
    78  H    1.000000
    79  H    1.000000
    80  Mg  12.000000
    81  C    6.000000
    82  C    6.000000
    83  C    6.000000
    84  C    6.000000
    85  N    7.000000
    86  C    6.000000
    87  C    6.000000
    88  C    6.000000
    89  C    6.000000
    90  C    6.000000
    91  C    6.000000
    92  C    6.000000
    93  H    1.000000
    94  N    7.000000
    95  C    6.000000
    96  C    6.000000
    97  C    6.000000
    98  C    6.000000
    99  C    6.000000
   100  C    6.000000
   101  O    8.000000
   102  C    6.000000
   103  N    7.000000
   104  C    6.000000
   105  C    6.000000
   106  C    6.000000
   107  C    6.000000
   108  C    6.000000
   109  C    6.000000
   110  C    6.000000
   111  N    7.000000
   112  C    6.000000
   113  C    6.000000
   114  C    6.000000
   115  C    6.000000
   116  C    6.000000
   117  C    6.000000
   118  O    8.000000
   119  C    6.000000
   120  C    6.000000
   121  O    8.000000
   122  O    8.000000
   123  C    6.000000
   124  H    1.000000
   125  H    1.000000
   126  H    1.000000
   127  H    1.000000
   128  H    1.000000
   129  H    1.000000
   130  H    1.000000
   131  H    1.000000
   132  H    1.000000
   133  H    1.000000
   134  H    1.000000
   135  H    1.000000
   136  H    1.000000
   137  H    1.000000
   138  H    1.000000
   139  H    1.000000
   140  H    1.000000
   141  H    1.000000
   142  H    1.000000
   143  H    1.000000
   144  H    1.000000
   145  H    1.000000
   146  H    1.000000
   147  H    1.000000
   148  H    1.000000
   149  H    1.000000
   150  H    1.000000
   151  H    1.000000
   152  H    1.000000
   153  H    1.000000
   154  H    1.000000
   155  H    1.000000
   156  H    1.000000
   157  H    1.000000
   158  H    1.000000
 Sum of Mulliken charges = 624.00000

 Dipole moment (field-independent basis, Debye):
    X=              0.0000    Y=              0.0000    Z=              0.0000  Tot=              0.0000
 Quadrupole moment (field-independent basis, Debye-Ang):
   XX=             -0.0000   YY=              0.0000   ZZ=             -0.0000
   XY=             -0.0000   XZ=             -0.0000   YZ=              0.0000

 Normal termination of Gaussian 16 at Thu Oct 14 23:19:27 2021.
