 Gaussian 16, Revision A.03,
 Gaussian 16:  ES64L-G16RevA.03 25-Dec-2016

 --------------------------------------------------------
 #p PBE1PBE/Def2SVP td=(nstates=5) density=(transition=1)
 --------------------------------------------------------

 --------------------------------
 TDDFT excited states in gaussian
 --------------------------------
 Symbolic Z-matrix:
 Charge =  0 Multiplicity = 1

                         Standard orientation:
 ---------------------------------------------------------------------
 Center     Atomic      Atomic             Coordinates (Angstroms)
 Number     Number       Type             X           Y           Z
 ---------------------------------------------------------------------
      1         12           0       13.227142    0.730768   -0.312750
      2          6           0       11.751355   -1.960726    1.534609
      3          6           0       15.283500   -1.718565   -1.801282
      4          6           0       15.147356    3.083378   -1.530194
      5          6           0       11.386288    2.932007    1.511605
      6          7           0       13.422473   -1.569908   -0.163884
      7          6           0       12.623542   -2.372946    0.579175
      8          6           0       12.920899   -3.819487    0.220099
      9          6           0       14.029622   -3.825644   -0.869790
     10          6           0       14.251000   -2.305622   -0.991060
     11          6           0       15.349346   -4.691618   -0.456924
     12          6           0       11.641561   -4.596321   -0.312490
     13          6           0       11.372868   -5.971955    0.298559
     14          1           0       12.563444   -6.910906    0.747717
     15          7           0       15.023389    0.684472   -1.470799
     16          6           0       15.637403   -0.368518   -1.967351
     17          6           0       16.779281    0.105732   -2.697179
     18          6           0       16.736253    1.519557   -2.796501
     19          6           0       15.649774    1.813936   -1.899261
     20          6           0       17.682755   -0.820513   -3.509562
     21          6           0       17.478235    2.549676   -3.633582
     22          8           0       17.319755    3.749438   -3.501394
     23          6           0       18.391121    2.003888   -4.696923
     24          7           0       13.469300    2.688105    0.241395
     25          6           0       14.218479    3.525145   -0.587575
     26          6           0       13.873834    5.028480   -0.406732
     27          6           0       12.560441    4.882630    0.450638
     28          6           0       12.445516    3.391066    0.764892
     29          6           0       15.033955    5.779186    0.262984
     30          6           0       11.231565    5.307425   -0.336074
     31          6           0       10.581100    6.603639    0.014251
     32          7           0       11.795713    0.562928    1.100109
     33          6           0       11.151045    1.571920    1.782517
     34          6           0       10.283626    1.072164    2.846040
     35          6           0       10.480885   -0.353701    2.789683
     36          6           0       11.481797   -0.588169    1.817530
     37          6           0        9.302867    1.907455    3.586540
     38          6           0       10.027919   -1.639096    3.298720
     39          8           0        9.141222   -1.839869    4.148593
     40          6           0       10.880378   -2.783884    2.504883
     41          6           0       11.631879   -3.473466    3.541641
     42          8           0       12.387834   -2.917369    4.307953
     43          8           0       11.390263   -4.789691    3.529707
     44          6           0       11.993758   -5.721998    4.532878
     45          1           0       15.896172   -2.438963   -2.347123
     46          1           0       15.434826    3.907455   -2.187477
     47          1           0       10.757094    3.671152    2.011299
     48          1           0       13.317155   -4.295097    1.117262
     49          1           0       13.705150   -4.331991   -1.779031
     50          1           0       15.104121   -5.434610    0.302037
     51          1           0       16.066223   -3.951243   -0.100968
     52          1           0       15.760488   -5.177710   -1.341521
     53          1           0       11.581439   -4.700637   -1.394956
     54          1           0       10.747833   -4.023269   -0.065879
     55          1           0       10.746077   -6.584097   -0.350256
     56          1           0       10.734241   -5.733154    1.148996
     57          1           0       17.432911   -0.871192   -4.569461
     58          1           0       17.770537   -1.804010   -3.046919
     59          1           0       18.689440   -0.413617   -3.416774
     60          1           0       18.003365    1.145922   -5.246969
     61          1           0       19.373909    1.696588   -4.342179
     62          1           0       18.439636    2.718036   -5.518999
     63          1           0       13.698210    5.441111   -1.399832
     64          1           0       12.670686    5.506837    1.337477
     65          1           0       15.959713    5.208524    0.335281
     66          1           0       14.794988    6.055002    1.289477
     67          1           0       15.229916    6.699821   -0.287656
     68          1           0       10.406772    4.599257   -0.256813
     69          1           0       11.368916    5.314380   -1.416736
     70          1           0       10.608664    7.281122   -0.838232
     71          1           0       11.197967    6.971575    0.834339
     72          1           0        9.539821    6.444864    0.294495
     73          1           0        8.402150    1.343448    3.826444
     74          1           0        9.160884    2.809210    2.991192
     75          1           0        9.784420    2.195122    4.522128
     76          1           0       10.228539   -3.497418    2.002623
     77          1           0       11.828361   -5.329049    5.536212
     78          1           0       13.068424   -5.845950    4.397106
     79          1           0       11.663763   -6.754889    4.425273
     80         12           0      -13.484522    0.466712    0.160033
     81          6           0      -11.496174   -2.272599   -0.622982
     82          6           0      -16.223918   -1.573931   -0.163435
     83          6           0      -15.488679    3.229173    0.676815
     84          6           0      -10.732529    2.592487   -0.081200
     85          7           0      -13.787487   -1.694785   -0.241659
     86          6           0      -12.853805   -2.644674   -0.421048
     87          6           0      -13.399370   -4.090931   -0.469292
     88          6           0      -14.962206   -3.820377   -0.559897
     89          6           0      -15.037557   -2.232607   -0.348729
     90          6           0      -15.492200   -4.338226   -1.944421
     91          6           0      -12.921048   -4.822239    0.888149
     92          6           0      -12.157376   -6.168886    0.720979
     93          1           0      -12.400432   -6.875372   -0.661607
     94          7           0      -15.551493    0.845869    0.182824
     95          6           0      -16.519705   -0.176896    0.110607
     96          6           0      -17.812316    0.383696    0.441995
     97          6           0      -17.637820    1.759875    0.635393
     98          6           0      -16.149715    2.009225    0.581192
     99          6           0      -19.104763   -0.418086    0.232460
    100          6           0      -18.725793    2.833203    0.904052
    101          8           0      -18.508153    4.047338    1.074680
    102          6           0      -20.184744    2.367122    1.048490
    103          7           0      -13.115369    2.606229    0.194295
    104          6           0      -14.165489    3.525983    0.495836
    105          6           0      -13.662142    4.978172    0.359426
    106          6           0      -12.080367    4.742713    0.398478
    107          6           0      -11.959668    3.208733    0.201637
    108          6           0      -14.256997    5.605751   -0.890385
    109          6           0      -11.462110    5.175726    1.794296
    110          6           0      -11.965290    4.690244    3.196332
    111          7           0      -11.547933    0.272211   -0.330762
    112          6           0      -10.519223    1.215779   -0.411782
    113          6           0       -9.303959    0.551176   -0.754674
    114          6           0       -9.612632   -0.796200   -0.805311
    115          6           0      -11.013821   -0.932011   -0.645415
    116          6           0       -7.962526    1.185180   -1.061207
    117          6           0       -9.062476   -2.076490   -1.014631
    118          8           0       -7.947578   -2.336411   -1.338560
    119          6           0      -10.294672   -3.073042   -1.019839
    120          6           0      -10.397464   -3.597767   -2.425286
    121          8           0      -11.249234   -3.253201   -3.217661
    122          8           0       -9.380279   -4.447379   -2.611063
    123          6           0       -9.087458   -4.677024   -4.004672
    124          1           0      -17.096319   -2.230039   -0.183734
    125          1           0      -16.141899    4.099969    0.598442
    126          1           0       -9.862168    3.246536   -0.171719
    127          1           0      -13.034977   -4.696092   -1.299190
    128          1           0      -15.552372   -4.271058    0.238364
    129          1           0      -16.190899   -3.671861   -2.450822
    130          1           0      -15.971423   -5.255201   -1.602659
    131          1           0      -14.617121   -4.627337   -2.525957
    132          1           0      -13.791567   -4.886147    1.540664
    133          1           0      -12.256484   -4.124441    1.398182
    134          1           0      -12.571266   -6.742923    1.549291
    135          1           0      -11.077873   -6.105993    0.854932
    136          1           0      -19.736075    0.165535   -0.438040
    137          1           0      -19.646355   -0.481911    1.177188
    138          1           0      -18.868476   -1.405878   -0.161972
    139          1           0      -20.528919    2.098496    0.048891
    140          1           0      -20.749577    3.258281    1.321656
    141          1           0      -20.266693    1.682301    1.892176
    142          1           0      -13.942359    5.454559    1.299364
    143          1           0      -11.592179    5.393898   -0.325695
    144          1           0      -15.227561    5.188287   -1.158893
    145          1           0      -13.587761    5.475362   -1.740503
    146          1           0      -14.457365    6.665316   -0.732738
    147          1           0      -11.422026    6.264888    1.812211
    148          1           0      -10.460993    4.746901    1.749140
    149          1           0      -12.753599    5.366193    3.527939
    150          1           0      -11.097706    4.761844    3.853329
    151          1           0      -12.245802    3.638978    3.268977
    152          1           0       -7.577016    1.762494   -0.220662
    153          1           0       -8.178478    1.856913   -1.891764
    154          1           0       -7.133271    0.491170   -1.205284
    155          1           0      -10.239416   -3.953157   -0.378926
    156          1           0       -8.037438   -4.886829   -4.207129
    157          1           0       -9.474744   -4.023805   -4.786475
    158          1           0       -9.561030   -5.573796   -4.404795
 ---------------------------------------------------------------------

 SCF Done:  E(RPBE1PBE) =  -4067.37476240     A.U. after   17 cycles

 Excitation energies and oscillator strengths:

 Excited State   1:      Singlet-A      1.8469 eV  671.30 nm  f=0.5486  <S**2>=0.000
     309 -> 316       -0.15589
     311 -> 313        0.67287
     312 -> 314       -0.17470
     311 <- 313       -0.11248
 This state for optimization and/or second-order correction.
 Total Energy, E(TD-HF/TD-DFT) =  -4067.30688949
 Copying the excited state density for this state as the 1-particle RhoCI density.

 Excited State   2:      Singlet-A      1.8561 eV  667.98 nm  f=0.2251  <S**2>=0.000
     310 -> 315       -0.16441
     311 -> 313        0.17500
     312 -> 314        0.67083
     312 <- 314       -0.10438

 Excited State   3:      Singlet-A      1.8960 eV  653.92 nm  f=0.0000  <S**2>=0.000
     312 -> 313        0.70710

 Excited State   4:      Singlet-A      1.9328 eV  641.47 nm  f=0.0000  <S**2>=0.000
     311 -> 314        0.70709

 Excited State   5:      Singlet-A      2.2073 eV  561.70 nm  f=0.1191  <S**2>=0.000
     309 -> 313        0.66017
     311 -> 316        0.23213

 The electronic state is 1-A.
 Alpha  occ. eigenvalues --  -46.92012 -46.91453 -19.26679 -19.25817 -19.20163
 Alpha  occ. eigenvalues --  -19.19705 -19.19326 -19.19246 -19.18979 -19.18659
 Alpha  occ. eigenvalues --  -14.41690 -14.41352 -14.41253 -14.40916 -14.39297
 Alpha  occ. eigenvalues --  -14.39069 -14.38697 -14.38626 -10.36195 -10.35404
 Alpha  occ. eigenvalues --  -10.32871 -10.32629 -10.32422 -10.31720 -10.29694
 Alpha  occ. eigenvalues --  -10.29168 -10.29060 -10.28509 -10.28491 -10.28233
 Alpha  occ. eigenvalues --  -10.28214 -10.28189 -10.27947 -10.27717 -10.27653
 Alpha  occ. eigenvalues --  -10.27603 -10.27544 -10.27350 -10.27302 -10.27300
 Alpha  occ. eigenvalues --  -10.26901 -10.26663 -10.26356 -10.26315 -10.26249
 Alpha  occ. eigenvalues --  -10.26206 -10.26153 -10.26011 -10.25880 -10.25799
 Alpha  occ. eigenvalues --  -10.25668 -10.25644 -10.25623 -10.25595 -10.25565
 Alpha  occ. eigenvalues --  -10.25514 -10.25492 -10.25405 -10.25313 -10.25232
 Alpha  occ. eigenvalues --  -10.24900 -10.24706 -10.24694 -10.24681 -10.24589
 Alpha  occ. eigenvalues --  -10.24267 -10.24264 -10.24243 -10.24128 -10.24064
 Alpha  occ. eigenvalues --  -10.23918 -10.23890 -10.23500 -10.23489 -10.23464
 Alpha  occ. eigenvalues --  -10.23320 -10.23314 -10.23307 -10.23269 -10.23178
 Alpha  occ. eigenvalues --  -10.22981 -10.22952 -10.22900 -10.22766 -10.22432
 Alpha  occ. eigenvalues --  -10.22117  -3.14217  -3.13633  -1.87022  -1.86597
 Alpha  occ. eigenvalues --   -1.86475  -1.86450  -1.85985  -1.85879  -1.12824
 Alpha  occ. eigenvalues --   -1.11255  -1.06559  -1.05547  -1.03765  -1.03185
 Alpha  occ. eigenvalues --   -1.03152  -1.02112  -0.99328  -0.98662  -0.98136
 Alpha  occ. eigenvalues --   -0.97870  -0.97722  -0.97268  -0.96551  -0.95968
 Alpha  occ. eigenvalues --   -0.86992  -0.86476  -0.82918  -0.82915  -0.82571
 Alpha  occ. eigenvalues --   -0.82326  -0.82323  -0.82008  -0.81426  -0.81301
 Alpha  occ. eigenvalues --   -0.81259  -0.80790  -0.80738  -0.80348  -0.78498
 Alpha  occ. eigenvalues --   -0.78399  -0.78167  -0.77605  -0.76900  -0.76513
 Alpha  occ. eigenvalues --   -0.75977  -0.75583  -0.75464  -0.75168  -0.75013
 Alpha  occ. eigenvalues --   -0.74176  -0.72557  -0.72035  -0.71959  -0.71358
 Alpha  occ. eigenvalues --   -0.71155  -0.70989  -0.70543  -0.70078  -0.69326
 Alpha  occ. eigenvalues --   -0.69207  -0.67325  -0.66931  -0.65866  -0.65620
 Alpha  occ. eigenvalues --   -0.63209  -0.63152  -0.63045  -0.62291  -0.62217
 Alpha  occ. eigenvalues --   -0.62041  -0.61301  -0.60844  -0.60241  -0.59940
 Alpha  occ. eigenvalues --   -0.59567  -0.59199  -0.59048  -0.59001  -0.58999
 Alpha  occ. eigenvalues --   -0.58367  -0.56987  -0.56891  -0.55025  -0.54422
 Alpha  occ. eigenvalues --   -0.53901  -0.53719  -0.53518  -0.53412  -0.53081
 Alpha  occ. eigenvalues --   -0.52730  -0.52573  -0.52570  -0.51974  -0.51805
 Alpha  occ. eigenvalues --   -0.50670  -0.50662  -0.50279  -0.50163  -0.49735
 Alpha  occ. eigenvalues --   -0.49489  -0.49009  -0.48841  -0.48475  -0.48102
 Alpha  occ. eigenvalues --   -0.47952  -0.47779  -0.47737  -0.47549  -0.47388
 Alpha  occ. eigenvalues --   -0.47008  -0.46992  -0.46863  -0.46781  -0.46671
 Alpha  occ. eigenvalues --   -0.46492  -0.46353  -0.46185  -0.45883  -0.45772
 Alpha  occ. eigenvalues --   -0.45540  -0.45123  -0.45065  -0.44991  -0.44729
 Alpha  occ. eigenvalues --   -0.44507  -0.44410  -0.44382  -0.44033  -0.43798
 Alpha  occ. eigenvalues --   -0.43763  -0.43682  -0.43507  -0.43354  -0.43257
 Alpha  occ. eigenvalues --   -0.43185  -0.43056  -0.42945  -0.42779  -0.42577
 Alpha  occ. eigenvalues --   -0.42425  -0.42406  -0.42153  -0.42007  -0.41666
 Alpha  occ. eigenvalues --   -0.41426  -0.41323  -0.41263  -0.41005  -0.40910
 Alpha  occ. eigenvalues --   -0.40898  -0.40827  -0.40652  -0.40395  -0.40237
 Alpha  occ. eigenvalues --   -0.40015  -0.39865  -0.39722  -0.39641  -0.39480
 Alpha  occ. eigenvalues --   -0.39250  -0.39213  -0.39057  -0.38926  -0.38642
 Alpha  occ. eigenvalues --   -0.38444  -0.38412  -0.38358  -0.38139  -0.38130
 Alpha  occ. eigenvalues --   -0.37859  -0.37748  -0.37733  -0.37633  -0.37461
 Alpha  occ. eigenvalues --   -0.37353  -0.37227  -0.37227  -0.36848  -0.36606
 Alpha  occ. eigenvalues --   -0.36547  -0.36393  -0.36277  -0.36192  -0.36176
 Alpha  occ. eigenvalues --   -0.35895  -0.35675  -0.35620  -0.35428  -0.35176
 Alpha  occ. eigenvalues --   -0.35151  -0.34645  -0.34470  -0.34171  -0.34066
 Alpha  occ. eigenvalues --   -0.33330  -0.32900  -0.32650  -0.32444  -0.32056
 Alpha  occ. eigenvalues --   -0.31982  -0.31915  -0.31516  -0.31463  -0.31247
 Alpha  occ. eigenvalues --   -0.31180  -0.31177  -0.29635  -0.29585  -0.29163
 Alpha  occ. eigenvalues --   -0.28721  -0.28309  -0.28235  -0.27109  -0.26869
 Alpha  occ. eigenvalues --   -0.26447  -0.26115  -0.25819  -0.25559  -0.25549
 Alpha  occ. eigenvalues --   -0.25443  -0.25141  -0.25034  -0.20749  -0.20656
 Alpha  occ. eigenvalues --   -0.18587  -0.18583
 Alpha virt. eigenvalues --   -0.11125  -0.10978  -0.04895  -0.04695  -0.04033
 Alpha virt. eigenvalues --   -0.03605  -0.02312  -0.01888  -0.00983  -0.00302
 Alpha virt. eigenvalues --    0.00575   0.00718   0.01124   0.01439   0.01637

 Mulliken charges:
               1
     1  Mg  11.997961
     2  C    6.018256
     3  C    5.992699
     4  C    5.976125
     5  C    6.005305
     6  N    7.007924
     7  C    5.976794
     8  C    6.009105
     9  C    5.987351
    10  C    6.029766
    11  C    5.999360
    12  C    6.001028
    13  C    6.000725
    14  H    0.993595
    15  N    6.995938
    16  C    6.031794
    17  C    6.025103
    18  C    6.010630
    19  C    6.031338
    20  C    5.997197
    21  C    6.013316
    22  O    8.025600
    23  C    5.992935
    24  N    6.991701
    25  C    6.040175
    26  C    5.990336
    27  C    6.007780
    28  C    5.974774
    29  C    5.997018
    30  C    6.007664
    31  C    6.000230
    32  N    6.997408
    33  C    5.972074
    34  C    5.963410
    35  C    6.001233
    36  C    5.969384
    37  C    6.002444
    38  C    5.985047
    39  O    7.974005
    40  C    5.993945
    41  C    5.995219
    42  O    7.997631
    43  O    7.998018
    44  C    6.001858
    45  H    1.010251
    46  H    1.005209
    47  H    0.989001
    48  H    1.000422
    49  H    1.005108
    50  H    1.012199
    51  H    0.998523
    52  H    1.000262
    53  H    0.992293
    54  H    1.007257
    55  H    0.997968
    56  H    1.005747
    57  H    1.019865
    58  H    1.015960
    59  H    1.015513
    60  H    1.004662
    61  H    1.009022
    62  H    1.013369
    63  H    0.999612
    64  H    0.997297
    65  H    0.995559
    66  H    1.010858
    67  H    1.002422
    68  H    1.004803
    69  H    0.987657
    70  H    0.993507
    71  H    0.997635
    72  H    1.001734
    73  H    0.983361
    74  H    0.983137
    75  H    0.978261
    76  H    0.991512
    77  H    0.999447
    78  H    0.993871
    79  H    0.995495
    80  Mg  12.000683
    81  C    5.995677
    82  C    6.002744
    83  C    6.005187
    84  C    6.001116
    85  N    6.998418
    86  C    6.006922
    87  C    5.997674
    88  C    6.002108
    89  C    5.992811
    90  C    6.000809
    91  C    5.999083
    92  C    5.999492
    93  H    1.000708
    94  N    7.001154
    95  C    5.989103
    96  C    5.995912
    97  C    5.996104
    98  C    5.990463
    99  C    6.000458
   100  C    5.996685
   101  O    7.992527
   102  C    6.001358
   103  N    7.002342
   104  C    5.991842
   105  C    6.002039
   106  C    5.997338
   107  C    6.005791
   108  C    6.000961
   109  C    5.998381
   110  C    6.000935
   111  N    6.999089
   112  C    6.007092
   113  C    6.007870
   114  C    5.999797
   115  C    6.007456
   116  C    6.000056
   117  C    6.004780
   118  O    8.007198
   119  C    6.000297
   120  C    6.000432
   121  O    8.002455
   122  O    7.999910
   123  C    5.998879
   124  H    0.997124
   125  H    0.998837
   126  H    1.003164
   127  H    0.999854
   128  H    0.999877
   129  H    1.000758
   130  H    0.998708
   131  H    0.996841
   132  H    1.002713
   133  H    0.999142
   134  H    1.000972
   135  H    0.999282
   136  H    0.996061
   137  H    0.995690
   138  H    0.995880
   139  H    0.997863
   140  H    0.996329
   141  H    0.998171
   142  H    1.000297
   143  H    1.000792
   144  H    1.001922
   145  H    0.997169
   146  H    0.998780
   147  H    1.002201
   148  H    0.998774
   149  H    1.001856
   150  H    0.999973
   151  H    1.000415
   152  H    1.005054
   153  H    1.003873
   154  H    1.003541
   155  H    1.002873
   156  H    1.000804
   157  H    1.000615
   158  H    1.001664
 Sum of Mulliken charges = 624.00000

 Dipole moment (field-independent basis, Debye):
    X=             10.3166    Y=             -0.2648    Z=             -7.0810  Tot=             12.5157
 Quadrupole moment (field-independent basis, Debye-Ang):
   XX=            136.2766   YY=             -1.5322   ZZ=             -0.2007
   XY=             11.4669   XZ=            -87.3727   YZ=             -2.5642

 Normal termination of Gaussian 16 at Thu Oct 14 13:19:23 2021.
