 Gaussian 16, Revision A.03,
 Gaussian 16:  ES64L-G16RevA.03 25-Dec-2016

 --------------------------------------------------------
 #p PBE1PBE/Def2SVP td=(nstates=5) density=(transition=1)
 --------------------------------------------------------

 --------------------------------
 TDDFT excited states in gaussian
 --------------------------------
 Symbolic Z-matrix:
 Charge =  0 Multiplicity = 1

                         Standard orientation:
 ---------------------------------------------------------------------
 Center     Atomic      Atomic             Coordinates (Angstroms)
 Number     Number       Type             X           Y           Z
 ---------------------------------------------------------------------
      1         12           0       -8.868369   -0.278747   -0.180765
      2          6           0       -7.119327    2.444167    0.942693
      3          6           0      -10.929538    1.731013   -1.887170
      4          6           0      -10.628810   -3.034188   -1.000242
      5          6           0       -6.928690   -2.344203    2.097569
      6          7           0       -9.146864    1.919791   -0.208252
      7          6           0       -8.265694    2.833172    0.216995
      8          6           0       -8.712134    4.314026   -0.245018
      9          6           0       -9.942955    3.952071   -1.157734
     10          6           0      -10.075402    2.418179   -1.071573
     11          6           0      -11.217955    4.750719   -0.823838
     12          6           0       -7.596524    5.103067   -0.987408
     13          6           0       -8.002011    6.381307   -1.791520
     14          1           0       -7.685667    7.783423   -1.145543
     15          7           0      -10.594234   -0.600588   -1.263710
     16          6           0      -11.233148    0.313142   -1.964321
     17          6           0      -12.320119   -0.330995   -2.685964
     18          6           0      -12.351047   -1.723998   -2.376354
     19          6           0      -11.154394   -1.841370   -1.514375
     20          6           0      -13.380215    0.384448   -3.506931
     21          6           0      -13.350147   -2.808873   -2.764841
     22          8           0      -13.380143   -3.883612   -2.172333
     23          6           0      -14.299668   -2.541106   -3.879670
     24          7           0       -8.809765   -2.389155    0.502671
     25          6           0       -9.605684   -3.309673   -0.028346
     26          6           0       -9.219902   -4.731319    0.412786
     27          6           0       -7.942032   -4.449593    1.198780
     28          6           0       -7.920545   -2.969673    1.294216
     29          6           0      -10.266955   -5.560446    1.171264
     30          6           0       -6.729416   -5.186068    0.688370
     31          6           0       -6.082860   -6.224305    1.673285
     32          7           0       -7.343701   -0.056970    1.163015
     33          6           0       -6.584818   -0.975680    1.963049
     34          6           0       -5.487016   -0.307346    2.626535
     35          6           0       -5.696733    1.034954    2.204339
     36          6           0       -6.807861    1.118159    1.355783
     37          6           0       -4.329099   -0.835563    3.397586
     38          6           0       -5.004928    2.298835    2.234820
     39          8           0       -3.885072    2.663052    2.623563
     40          6           0       -5.897993    3.310528    1.561195
     41          6           0       -6.488634    4.237800    2.646183
     42          8           0       -6.933605    3.914604    3.758195
     43          8           0       -6.448019    5.512148    2.163552
     44          6           0       -6.937267    6.610669    3.055648
     45          1           0      -11.589182    2.258927   -2.579018
     46          1           0      -11.248450   -3.932088   -1.048029
     47          1           0       -6.302895   -3.046403    2.651307
     48          1           0       -9.029192    4.788550    0.682929
     49          1           0       -9.656891    4.160421   -2.188661
     50          1           0      -11.658536    5.052722   -1.773364
     51          1           0      -10.993954    5.667501   -0.278353
     52          1           0      -11.918482    4.143803   -0.250111
     53          1           0       -7.264342    4.437996   -1.784534
     54          1           0       -6.826557    5.412758   -0.280857
     55          1           0       -9.091386    6.389122   -1.840085
     56          1           0       -7.494436    6.361886   -2.755317
     57          1           0      -13.210406    1.460977   -3.524267
     58          1           0      -14.363543    0.196917   -3.076341
     59          1           0      -13.405901    0.027990   -4.535896
     60          1           0      -13.681318   -2.162594   -4.694077
     61          1           0      -15.135312   -1.847097   -3.794652
     62          1           0      -14.822274   -3.436879   -4.213454
     63          1           0       -8.973817   -5.297708   -0.484756
     64          1           0       -8.096180   -4.830081    2.208360
     65          1           0      -10.142292   -6.567269    0.773451
     66          1           0      -11.260966   -5.131223    1.046371
     67          1           0      -10.170771   -5.522857    2.256316
     68          1           0       -5.981284   -4.401391    0.580338
     69          1           0       -6.904727   -5.725026   -0.242254
     70          1           0       -6.624647   -6.227432    2.619471
     71          1           0       -5.063243   -5.890665    1.868503
     72          1           0       -5.959244   -7.232063    1.276487
     73          1           0       -4.290187   -1.921707    3.318961
     74          1           0       -4.570472   -0.639695    4.441687
     75          1           0       -3.458025   -0.345952    2.959750
     76          1           0       -5.230240    3.846449    0.886396
     77          1           0       -7.889351    6.417221    3.550432
     78          1           0       -6.988065    7.588836    2.578553
     79          1           0       -6.215927    6.660759    3.871104
     80         12           0        8.247703   -0.928655   -0.152146
     81          6           0       10.214354    1.974409   -0.292037
     82          6           0        5.526134    0.864788    0.553645
     83          6           0        6.617352   -3.719322    0.014443
     84          6           0       11.376911   -2.725501    0.108760
     85          7           0        7.984807    1.181431    0.195284
     86          6           0        8.820909    2.194649   -0.063824
     87          6           0        8.200318    3.531833    0.248648
     88          6           0        6.826093    3.120565    0.914327
     89          6           0        6.751069    1.655507    0.530179
     90          6           0        6.641199    3.356581    2.448492
     91          6           0        7.924967    4.358783   -1.109204
     92          6           0        8.418394    5.841427   -1.045594
     93          1           0        8.409206    6.537153   -2.512656
     94          7           0        6.351356   -1.336861   -0.023980
     95          6           0        5.317506   -0.452296    0.231871
     96          6           0        4.071109   -1.133257    0.013133
     97          6           0        4.316494   -2.552082   -0.195065
     98          6           0        5.828564   -2.606763   -0.192984
     99          6           0        2.741954   -0.347094    0.201907
    100          6           0        3.454531   -3.789049   -0.420556
    101          8           0        3.862218   -4.936993   -0.674085
    102          6           0        1.999744   -3.477768   -0.424931
    103          7           0        8.972546   -2.875365    0.190055
    104          6           0        7.999805   -3.844092    0.214285
    105          6           0        8.600820   -5.215137    0.526039
    106          6           0       10.104362   -4.959930    0.242084
    107          6           0       10.195281   -3.432706    0.236959
    108          6           0        8.169726   -5.677606    1.974289
    109          6           0       10.681008   -5.599318   -1.091794
    110          6           0       12.193917   -5.867694   -1.132783
    111          7           0       10.383161   -0.516599   -0.135592
    112          6           0       11.462700   -1.340179   -0.029236
    113          6           0       12.697511   -0.609167   -0.205768
    114          6           0       12.214544    0.700242   -0.383568
    115          6           0       10.817055    0.722535   -0.270710
    116          6           0       14.176760   -1.058556   -0.213599
    117          6           0       12.647854    2.044392   -0.645244
    118          8           0       13.700788    2.525024   -0.973742
    119          6           0       11.333181    2.957604   -0.423143
    120          6           0       11.438742    3.868821   -1.565778
    121          8           0       11.082475    3.688642   -2.757692
    122          8           0       12.028209    4.972698   -1.075024
    123          6           0       12.312871    6.073922   -1.996070
    124          1           0        4.614987    1.450245    0.694349
    125          1           0        6.071617   -4.665176   -0.005192
    126          1           0       12.287286   -3.328437    0.096927
    127          1           0        8.801521    4.186642    0.880038
    128          1           0        5.929984    3.553804    0.469634
    129          1           0        6.622094    2.380498    2.933225
    130          1           0        5.669148    3.840116    2.543922
    131          1           0        7.393707    3.935431    2.982850
    132          1           0        6.895988    4.351651   -1.470659
    133          1           0        8.398283    3.789959   -1.909602
    134          1           0        9.433592    5.890058   -0.652297
    135          1           0        7.790614    6.514987   -0.462729
    136          1           0        2.471511    0.087496   -0.759444
    137          1           0        2.857756    0.580459    0.763910
    138          1           0        1.954377   -0.834578    0.776048
    139          1           0        1.685514   -2.785797   -1.205499
    140          1           0        1.847559   -3.101606    0.587458
    141          1           0        1.363134   -4.359469   -0.503873
    142          1           0        8.151740   -5.894505   -0.198572
    143          1           0       10.699549   -5.401805    1.041156
    144          1           0        9.015681   -5.611374    2.658332
    145          1           0        7.797774   -6.692760    2.110468
    146          1           0        7.442911   -5.051918    2.492739
    147          1           0       10.536519   -4.800183   -1.819353
    148          1           0       10.212500   -6.513299   -1.457450
    149          1           0       12.702555   -5.241199   -1.866663
    150          1           0       12.549429   -6.877856   -1.336999
    151          1           0       12.574105   -5.506639   -0.178199
    152          1           0       14.208004   -1.977666    0.371519
    153          1           0       14.821646   -0.294899    0.223212
    154          1           0       14.424410   -1.273527   -1.253045
    155          1           0       11.445617    3.543812    0.489069
    156          1           0       11.652605    6.906169   -1.752740
    157          1           0       12.302464    5.754199   -3.037529
    158          1           0       13.309502    6.454000   -1.771987
 ---------------------------------------------------------------------

 SCF Done:  E(RPBE1PBE) =  -4067.37207278     A.U. after   16 cycles

 Excitation energies and oscillator strengths:

 Excited State   1:      Singlet-A      1.8029 eV  687.71 nm  f=0.0000  <S**2>=0.000
     312 -> 313        0.70704
 This state for optimization and/or second-order correction.
 Total Energy, E(TD-HF/TD-DFT) =  -4067.30581878
 Copying the excited state density for this state as the 1-particle RhoCI density.

 Excited State   2:      Singlet-A      1.8665 eV  664.26 nm  f=0.7096  <S**2>=0.000
     309 -> 316       -0.10505
     310 -> 315       -0.14221
     311 -> 313       -0.44571
     312 -> 314        0.52653

 Excited State   3:      Singlet-A      1.8863 eV  657.28 nm  f=0.0838  <S**2>=0.000
     309 -> 316        0.12942
     310 -> 315       -0.12475
     311 -> 313        0.52771
     312 -> 314        0.44292

 Excited State   4:      Singlet-A      1.9794 eV  626.39 nm  f=0.0000  <S**2>=0.000
     311 -> 314        0.70700

 Excited State   5:      Singlet-A      2.2461 eV  552.00 nm  f=0.0495  <S**2>=0.000
     310 -> 314        0.63263
     312 -> 315        0.29760

 The electronic state is 1-A.
 Alpha  occ. eigenvalues --  -46.92772 -46.90834 -19.26513 -19.25389 -19.19947
 Alpha  occ. eigenvalues --  -19.19815 -19.19693 -19.19154 -19.18555 -19.18261
 Alpha  occ. eigenvalues --  -14.41902 -14.41636 -14.41563 -14.41138 -14.39819
 Alpha  occ. eigenvalues --  -14.39168 -14.38961 -14.37945 -10.36853 -10.35426
 Alpha  occ. eigenvalues --  -10.33299 -10.32908 -10.31702 -10.30792 -10.29618
 Alpha  occ. eigenvalues --  -10.29600 -10.29271 -10.28840 -10.28820 -10.28437
 Alpha  occ. eigenvalues --  -10.28348 -10.28290 -10.28112 -10.28105 -10.28072
 Alpha  occ. eigenvalues --  -10.28001 -10.27979 -10.27926 -10.27552 -10.27432
 Alpha  occ. eigenvalues --  -10.27050 -10.26874 -10.26802 -10.26637 -10.26462
 Alpha  occ. eigenvalues --  -10.26391 -10.26386 -10.26341 -10.26058 -10.26057
 Alpha  occ. eigenvalues --  -10.25971 -10.25809 -10.25758 -10.25519 -10.25489
 Alpha  occ. eigenvalues --  -10.25428 -10.25425 -10.25363 -10.25354 -10.25140
 Alpha  occ. eigenvalues --  -10.25014 -10.24988 -10.24789 -10.24766 -10.24686
 Alpha  occ. eigenvalues --  -10.24595 -10.24551 -10.24278 -10.24208 -10.24142
 Alpha  occ. eigenvalues --  -10.24051 -10.24009 -10.24005 -10.23919 -10.23899
 Alpha  occ. eigenvalues --  -10.23810 -10.23795 -10.23733 -10.23351 -10.23294
 Alpha  occ. eigenvalues --  -10.23284 -10.23265 -10.23150 -10.22747 -10.22421
 Alpha  occ. eigenvalues --  -10.22086  -3.14878  -3.13248  -1.87710  -1.87246
 Alpha  occ. eigenvalues --   -1.87114  -1.86075  -1.85635  -1.85487  -1.10581
 Alpha  occ. eigenvalues --   -1.10568  -1.05428  -1.05187  -1.03909  -1.03013
 Alpha  occ. eigenvalues --   -1.01598  -1.00517  -1.00185  -0.99690  -0.99230
 Alpha  occ. eigenvalues --   -0.98833  -0.98764  -0.98127  -0.97871  -0.96879
 Alpha  occ. eigenvalues --   -0.86955  -0.85882  -0.84389  -0.83268  -0.83185
 Alpha  occ. eigenvalues --   -0.82673  -0.82343  -0.82238  -0.81954  -0.81657
 Alpha  occ. eigenvalues --   -0.81635  -0.81523  -0.81002  -0.80473  -0.78658
 Alpha  occ. eigenvalues --   -0.78651  -0.77984  -0.77774  -0.76670  -0.76558
 Alpha  occ. eigenvalues --   -0.76552  -0.76307  -0.75603  -0.75478  -0.74612
 Alpha  occ. eigenvalues --   -0.74477  -0.73060  -0.72279  -0.72003  -0.71488
 Alpha  occ. eigenvalues --   -0.71247  -0.71048  -0.70588  -0.70078  -0.69875
 Alpha  occ. eigenvalues --   -0.69585  -0.67306  -0.67093  -0.66439  -0.66329
 Alpha  occ. eigenvalues --   -0.63935  -0.63627  -0.63440  -0.63088  -0.62412
 Alpha  occ. eigenvalues --   -0.62161  -0.62146  -0.61474  -0.60470  -0.60308
 Alpha  occ. eigenvalues --   -0.59878  -0.59659  -0.59273  -0.59113  -0.58867
 Alpha  occ. eigenvalues --   -0.58618  -0.57418  -0.56222  -0.55405  -0.54620
 Alpha  occ. eigenvalues --   -0.54431  -0.54212  -0.53672  -0.53607  -0.53445
 Alpha  occ. eigenvalues --   -0.53112  -0.52816  -0.52485  -0.52097  -0.51422
 Alpha  occ. eigenvalues --   -0.51081  -0.50740  -0.50414  -0.50254  -0.49891
 Alpha  occ. eigenvalues --   -0.49873  -0.49292  -0.48850  -0.48739  -0.48498
 Alpha  occ. eigenvalues --   -0.48365  -0.48188  -0.47767  -0.47514  -0.47309
 Alpha  occ. eigenvalues --   -0.47300  -0.47239  -0.46969  -0.46952  -0.46615
 Alpha  occ. eigenvalues --   -0.46563  -0.46106  -0.45965  -0.45891  -0.45790
 Alpha  occ. eigenvalues --   -0.45525  -0.45453  -0.45189  -0.45037  -0.44904
 Alpha  occ. eigenvalues --   -0.44755  -0.44626  -0.44568  -0.44450  -0.44429
 Alpha  occ. eigenvalues --   -0.44130  -0.43879  -0.43793  -0.43725  -0.43554
 Alpha  occ. eigenvalues --   -0.43372  -0.43371  -0.43046  -0.42914  -0.42692
 Alpha  occ. eigenvalues --   -0.42524  -0.42465  -0.42452  -0.42140  -0.41993
 Alpha  occ. eigenvalues --   -0.41813  -0.41657  -0.41460  -0.41359  -0.41083
 Alpha  occ. eigenvalues --   -0.41061  -0.40938  -0.40893  -0.40426  -0.40335
 Alpha  occ. eigenvalues --   -0.40130  -0.39911  -0.39797  -0.39730  -0.39497
 Alpha  occ. eigenvalues --   -0.39467  -0.39346  -0.39019  -0.38968  -0.38864
 Alpha  occ. eigenvalues --   -0.38778  -0.38586  -0.38439  -0.38246  -0.38126
 Alpha  occ. eigenvalues --   -0.37931  -0.37863  -0.37785  -0.37540  -0.37479
 Alpha  occ. eigenvalues --   -0.37252  -0.37184  -0.37031  -0.36961  -0.36911
 Alpha  occ. eigenvalues --   -0.36884  -0.36707  -0.36562  -0.36550  -0.36187
 Alpha  occ. eigenvalues --   -0.36094  -0.35884  -0.35866  -0.35588  -0.35535
 Alpha  occ. eigenvalues --   -0.35389  -0.35055  -0.34383  -0.34366  -0.34186
 Alpha  occ. eigenvalues --   -0.33560  -0.33407  -0.33067  -0.32677  -0.32287
 Alpha  occ. eigenvalues --   -0.32283  -0.31863  -0.31862  -0.31403  -0.31201
 Alpha  occ. eigenvalues --   -0.30340  -0.30199  -0.29693  -0.29335  -0.29303
 Alpha  occ. eigenvalues --   -0.29033  -0.28887  -0.27736  -0.26964  -0.26821
 Alpha  occ. eigenvalues --   -0.26782  -0.26320  -0.26282  -0.25818  -0.25596
 Alpha  occ. eigenvalues --   -0.25428  -0.25065  -0.25059  -0.21055  -0.20954
 Alpha  occ. eigenvalues --   -0.18924  -0.18633
 Alpha virt. eigenvalues --   -0.11227  -0.10850  -0.05589  -0.05517  -0.04317
 Alpha virt. eigenvalues --   -0.03779  -0.02087  -0.01806  -0.01037   0.00321
 Alpha virt. eigenvalues --    0.00598   0.00731   0.00991   0.01112   0.01626

 Mulliken charges:
               1
     1  Mg  12.000000
     2  C    5.999997
     3  C    6.000002
     4  C    6.000000
     5  C    5.999998
     6  N    6.999999
     7  C    6.000004
     8  C    5.999999
     9  C    6.000001
    10  C    5.999996
    11  C    6.000000
    12  C    5.999999
    13  C    6.000000
    14  H    1.000000
    15  N    7.000000
    16  C    5.999995
    17  C    5.999997
    18  C    5.999998
    19  C    5.999997
    20  C    6.000000
    21  C    5.999998
    22  O    7.999997
    23  C    6.000001
    24  N    6.999999
    25  C    5.999996
    26  C    6.000001
    27  C    5.999999
    28  C    6.000004
    29  C    6.000000
    30  C    6.000000
    31  C    6.000000
    32  N    7.000000
    33  C    6.000005
    34  C    6.000006
    35  C    5.999999
    36  C    6.000003
    37  C    6.000000
    38  C    6.000002
    39  O    8.000003
    40  C    6.000000
    41  C    6.000001
    42  O    8.000000
    43  O    8.000000
    44  C    6.000000
    45  H    0.999999
    46  H    0.999999
    47  H    1.000002
    48  H    1.000000
    49  H    1.000000
    50  H    1.000000
    51  H    0.999999
    52  H    1.000000
    53  H    1.000001
    54  H    0.999999
    55  H    1.000001
    56  H    1.000000
    57  H    0.999998
    58  H    0.999998
    59  H    0.999998
    60  H    0.999999
    61  H    0.999999
    62  H    0.999998
    63  H    1.000000
    64  H    1.000000
    65  H    0.999999
    66  H    1.000001
    67  H    0.999999
    68  H    1.000000
    69  H    1.000001
    70  H    1.000000
    71  H    1.000000
    72  H    1.000001
    73  H    1.000002
    74  H    1.000003
    75  H    0.999998
    76  H    1.000001
    77  H    1.000000
    78  H    1.000001
    79  H    1.000000
    80  Mg  12.000000
    81  C    5.999998
    82  C    6.000002
    83  C    6.000001
    84  C    5.999997
    85  N    7.000000
    86  C    6.000008
    87  C    5.999998
    88  C    6.000001
    89  C    5.999995
    90  C    6.000000
    91  C    6.000000
    92  C    6.000000
    93  H    1.000001
    94  N    7.000001
    95  C    5.999994
    96  C    6.000003
    97  C    5.999997
    98  C    5.999997
    99  C    5.999998
   100  C    5.999998
   101  O    7.999995
   102  C    6.000001
   103  N    6.999998
   104  C    5.999997
   105  C    6.000001
   106  C    5.999999
   107  C    6.000007
   108  C    6.000001
   109  C    6.000000
   110  C    6.000000
   111  N    7.000000
   112  C    6.000008
   113  C    6.000006
   114  C    6.000000
   115  C    6.000006
   116  C    6.000000
   117  C    6.000004
   118  O    8.000006
   119  C    6.000000
   120  C    6.000001
   121  O    8.000002
   122  O    8.000000
   123  C    5.999999
   124  H    0.999999
   125  H    0.999999
   126  H    1.000002
   127  H    1.000000
   128  H    1.000000
   129  H    1.000000
   130  H    1.000000
   131  H    0.999998
   132  H    1.000002
   133  H    0.999999
   134  H    0.999999
   135  H    1.000001
   136  H    0.999998
   137  H    0.999996
   138  H    0.999990
   139  H    0.999999
   140  H    0.999999
   141  H    0.999997
   142  H    1.000001
   143  H    1.000001
   144  H    0.999998
   145  H    1.000000
   146  H    1.000001
   147  H    1.000000
   148  H    1.000002
   149  H    0.999999
   150  H    1.000001
   151  H    1.000000
   152  H    1.000003
   153  H    1.000002
   154  H    1.000003
   155  H    1.000001
   156  H    1.000001
   157  H    1.000001
   158  H    1.000000
 Sum of Mulliken charges = 624.00000

 Dipole moment (field-independent basis, Debye):
    X=              0.0039    Y=              0.0006    Z=              0.0005  Tot=              0.0040
 Quadrupole moment (field-independent basis, Debye-Ang):
   XX=              0.0142   YY=              0.0002   ZZ=             -0.0003
   XY=             -0.0009   XZ=             -0.0085   YZ=             -0.0008

 Normal termination of Gaussian 16 at Thu Oct 14 12:58:17 2021.
