 Gaussian 16, Revision A.03,
 Gaussian 16:  ES64L-G16RevA.03 25-Dec-2016

 --------------------------------------------------------
 #p PBE1PBE/Def2SVP td=(nstates=5) density=(transition=1)
 --------------------------------------------------------

 --------------------------------
 TDDFT excited states in gaussian
 --------------------------------
 Symbolic Z-matrix:
 Charge =  0 Multiplicity = 1

                         Standard orientation:
 ---------------------------------------------------------------------
 Center     Atomic      Atomic             Coordinates (Angstroms)
 Number     Number       Type             X           Y           Z
 ---------------------------------------------------------------------
      1         12           0      -23.793046   -0.695017    0.071715
      2          6           0      -23.201726    2.454861   -1.259821
      3          6           0      -23.992475    0.632859    3.165434
      4          6           0      -24.177451   -3.802202    1.255993
      5          6           0      -23.408704   -1.997726   -3.155855
      6          7           0      -23.633063    1.364337    0.792096
      7          6           0      -23.490410    2.474748    0.108803
      8          6           0      -23.544797    3.688662    1.146553
      9          6           0      -23.022290    2.952995    2.362381
     10          6           0      -23.620687    1.528373    2.135008
     11          6           0      -21.482265    3.044556    2.422801
     12          6           0      -24.980819    4.369130    1.138730
     13          6           0      -25.016009    5.790714    1.708145
     14          1           0      -23.788000    6.321860    2.427216
     15          7           0      -24.221965   -1.449867    1.899221
     16          6           0      -24.341307   -0.699890    3.066881
     17          6           0      -24.878446   -1.603276    4.128263
     18          6           0      -24.878761   -2.960061    3.590066
     19          6           0      -24.334208   -2.741517    2.223636
     20          6           0      -25.256102   -1.112962    5.506014
     21          6           0      -25.368230   -4.345563    4.218614
     22          8           0      -25.373320   -5.415356    3.600226
     23          6           0      -25.863891   -4.299544    5.648932
     24          7           0      -23.683978   -2.580620   -0.773541
     25          6           0      -23.859827   -3.710581   -0.093830
     26          6           0      -23.629588   -4.983112   -0.966163
     27          6           0      -23.638190   -4.353089   -2.366355
     28          6           0      -23.633464   -2.877133   -2.119746
     29          6           0      -22.338696   -5.778955   -0.625693
     30          6           0      -24.696383   -4.886308   -3.431595
     31          6           0      -25.891035   -4.032005   -3.702172
     32          7           0      -23.187277   -0.003620   -1.805549
     33          6           0      -23.140069   -0.610523   -3.015240
     34          6           0      -22.754465    0.263870   -4.064851
     35          6           0      -22.766879    1.536882   -3.412632
     36          6           0      -23.038494    1.267683   -2.090634
     37          6           0      -22.404696    0.068827   -5.517379
     38          6           0      -22.606790    2.954311   -3.545567
     39          8           0      -22.339311    3.654572   -4.498129
     40          6           0      -23.028008    3.647464   -2.210659
     41          6           0      -21.986727    4.593645   -1.798837
     42          8           0      -20.845907    4.240826   -1.541103
     43          8           0      -22.373204    5.954206   -1.905081
     44          6           0      -21.326377    6.947092   -1.616733
     45          1           0      -23.983735    1.091253    4.155396
     46          1           0      -24.263726   -4.803955    1.680224
     47          1           0      -23.246830   -2.445805   -4.138091
     48          1           0      -22.882050    4.486615    0.814402
     49          1           0      -23.450266    3.285827    3.307650
     50          1           0      -21.325407    3.660311    3.309073
     51          1           0      -21.048989    3.522787    1.543368
     52          1           0      -21.133166    2.038291    2.653395
     53          1           0      -25.680781    3.773004    1.724893
     54          1           0      -25.242419    4.455463    0.083857
     55          1           0      -25.870185    5.832683    2.383257
     56          1           0      -25.250612    6.455287    0.876998
     57          1           0      -25.653122   -0.097741    5.472753
     58          1           0      -24.481250   -1.136423    6.271587
     59          1           0      -26.084890   -1.720022    5.869975
     60          1           0      -25.054730   -3.799131    6.180334
     61          1           0      -25.985656   -5.274888    6.119186
     62          1           0      -26.827251   -3.790971    5.689719
     63          1           0      -24.449562   -5.692838   -0.857553
     64          1           0      -22.626281   -4.486632   -2.747107
     65          1           0      -21.907381   -6.042503   -1.591716
     66          1           0      -22.454531   -6.667068   -0.006387
     67          1           0      -21.695898   -5.129208   -0.031711
     68          1           0      -24.968672   -5.907041   -3.162903
     69          1           0      -24.221881   -4.919569   -4.412066
     70          1           0      -25.797328   -3.656578   -4.721453
     71          1           0      -25.935590   -3.082895   -3.166609
     72          1           0      -26.844545   -4.558041   -3.653948
     73          1           0      -22.375511   -0.983970   -5.800418
     74          1           0      -21.491048    0.621517   -5.738117
     75          1           0      -23.139921    0.412811   -6.245172
     76          1           0      -23.965843    4.192267   -2.315800
     77          1           0      -21.677075    7.975323   -1.531609
     78          1           0      -20.649346    6.842178   -2.464945
     79          1           0      -20.817335    6.577468   -0.727367
     80         12           0       23.988839   -0.779083    0.164567
     81          6           0       22.060304    2.022995    1.186000
     82          6           0       26.533826    1.557896   -0.592788
     83          6           0       25.736413   -3.204704   -1.141833
     84          6           0       21.225556   -2.816435    0.721390
     85          7           0       24.267678    1.577428    0.277064
     86          6           0       23.341211    2.425924    0.831867
     87          6           0       23.844425    3.852765    0.970532
     88          6           0       25.255808    3.683624    0.260859
     89          6           0       25.395568    2.177406   -0.008305
     90          6           0       25.384390    4.626003   -0.932289
     91          6           0       23.947200    4.254673    2.458293
     92          6           0       23.608983    5.740047    2.863007
     93          1           0       23.657205    6.824446    1.760933
     94          7           0       25.914578   -0.845750   -0.678561
     95          6           0       26.750132    0.233437   -0.967889
     96          6           0       27.982152   -0.293910   -1.575627
     97          6           0       27.793177   -1.712630   -1.647897
     98          6           0       26.445409   -1.948726   -1.095811
     99          6           0       29.049905    0.541740   -2.044755
    100          6           0       28.747086   -2.771334   -2.191917
    101          8           0       28.401293   -3.960338   -2.278221
    102          6           0       30.162610   -2.444330   -2.465187
    103          7           0       23.505274   -2.719468   -0.260166
    104          6           0       24.443577   -3.556184   -0.711152
    105          6           0       23.861672   -4.991530   -0.923392
    106          6           0       22.507734   -4.892942   -0.151338
    107          6           0       22.359881   -3.427780    0.115393
    108          6           0       23.769652   -5.436663   -2.427336
    109          6           0       22.735479   -5.698290    1.184611
    110          6           0       23.200769   -4.957651    2.485506
    111          7           0       22.078138   -0.530847    0.906934
    112          6           0       21.050830   -1.479744    1.058393
    113          6           0       19.835424   -0.775774    1.537549
    114          6           0       20.191286    0.567868    1.534929
    115          6           0       21.519687    0.716419    1.196578
    116          6           0       18.559648   -1.468517    1.591649
    117          6           0       19.604434    1.896849    1.688098
    118          8           0       18.436177    2.181543    1.926476
    119          6           0       20.801539    2.929998    1.440382
    120          6           0       20.488026    3.857922    0.326651
    121          8           0       20.809892    3.713804   -0.849254
    122          8           0       19.769982    4.957060    0.834579
    123          6           0       19.274718    6.002295   -0.032322
    124          1           0       27.444189    2.160852   -0.623272
    125          1           0       26.274020   -4.064915   -1.547081
    126          1           0       20.447438   -3.561615    0.897766
    127          1           0       23.214254    4.573222    0.448423
    128          1           0       25.989825    4.076968    0.963605
    129          1           0       26.250930    5.285754   -0.905696
    130          1           0       24.525785    5.266666   -1.133550
    131          1           0       25.571097    3.995102   -1.802331
    132          1           0       24.941079    4.038809    2.850165
    133          1           0       23.249792    3.542843    2.901269
    134          1           0       24.339408    6.111822    3.580814
    135          1           0       22.712749    5.666762    3.479020
    136          1           0       29.960046    0.160339   -1.581401
    137          1           0       28.783571    1.595438   -1.967573
    138          1           0       28.979600    0.355096   -3.116818
    139          1           0       30.303764   -1.828022   -3.353587
    140          1           0       30.715330   -3.364396   -2.654169
    141          1           0       30.518055   -1.815230   -1.649613
    142          1           0       24.653466   -5.550572   -0.424703
    143          1           0       21.692807   -5.368563   -0.697610
    144          1           0       24.640926   -6.035525   -2.692896
    145          1           0       23.623968   -4.529296   -3.012586
    146          1           0       22.867944   -6.044248   -2.502073
    147          1           0       23.291658   -6.609519    0.963630
    148          1           0       21.718075   -5.919398    1.508627
    149          1           0       23.966908   -5.619661    2.888042
    150          1           0       22.409411   -4.865223    3.230472
    151          1           0       23.665316   -3.982506    2.343319
    152          1           0       18.410475   -1.992460    0.648407
    153          1           0       17.793898   -0.696702    1.675657
    154          1           0       18.460508   -2.034529    2.517482
    155          1           0       20.842025    3.491054    2.374534
    156          1           0       18.233714    5.865512   -0.324058
    157          1           0       19.998002    6.250680   -0.809171
    158          1           0       19.392061    6.871218    0.615845
 ---------------------------------------------------------------------

 SCF Done:  E(RPBE1PBE) =  -4067.38534903     A.U. after   16 cycles

 Excitation energies and oscillator strengths:

 Excited State   1:      Singlet-A      1.8706 eV  662.80 nm  f=0.0000  <S**2>=0.000
     312 -> 313        0.70711
 This state for optimization and/or second-order correction.
 Total Energy, E(TD-HF/TD-DFT) =  -4067.31660478
 Copying the excited state density for this state as the 1-particle RhoCI density.

 Excited State   2:      Singlet-A      1.8723 eV  662.22 nm  f=0.3791  <S**2>=0.000
     309 -> 316        0.17579
     311 -> 313        0.69310
     311 <- 313       -0.10656

 Excited State   3:      Singlet-A      1.8853 eV  657.63 nm  f=0.3628  <S**2>=0.000
     310 -> 315        0.18512
     312 -> 314        0.68868
     312 <- 314       -0.10057

 Excited State   4:      Singlet-A      2.1800 eV  568.73 nm  f=0.0000  <S**2>=0.000
     311 -> 314        0.70711

 Excited State   5:      Singlet-A      2.2174 eV  559.13 nm  f=0.1402  <S**2>=0.000
     309 -> 313        0.66476
     311 -> 316       -0.23644

 The electronic state is 1-A.
 Alpha  occ. eigenvalues --  -46.91899 -46.91165 -19.24636 -19.24610 -19.20475
 Alpha  occ. eigenvalues --  -19.20065 -19.19712 -19.19641 -19.18801 -19.18327
 Alpha  occ. eigenvalues --  -14.41427 -14.41371 -14.41084 -14.40968 -14.39625
 Alpha  occ. eigenvalues --  -14.39191 -14.38704 -14.38416 -10.36439 -10.35905
 Alpha  occ. eigenvalues --  -10.34180 -10.32621 -10.32243 -10.31417 -10.28865
 Alpha  occ. eigenvalues --  -10.28673 -10.28536 -10.28524 -10.28387 -10.28385
 Alpha  occ. eigenvalues --  -10.28318 -10.28303 -10.28141 -10.28096 -10.28014
 Alpha  occ. eigenvalues --  -10.27849 -10.27801 -10.27759 -10.27640 -10.27124
 Alpha  occ. eigenvalues --  -10.26837 -10.26737 -10.26523 -10.26466 -10.26340
 Alpha  occ. eigenvalues --  -10.26157 -10.26135 -10.26024 -10.25905 -10.25789
 Alpha  occ. eigenvalues --  -10.25745 -10.25463 -10.25368 -10.25358 -10.25308
 Alpha  occ. eigenvalues --  -10.25236 -10.25111 -10.25096 -10.25030 -10.25007
 Alpha  occ. eigenvalues --  -10.25000 -10.24965 -10.24765 -10.24760 -10.24684
 Alpha  occ. eigenvalues --  -10.24652 -10.24621 -10.24422 -10.24266 -10.24242
 Alpha  occ. eigenvalues --  -10.24115 -10.24019 -10.23742 -10.23639 -10.23418
 Alpha  occ. eigenvalues --  -10.23266 -10.23240 -10.23209 -10.23123 -10.23065
 Alpha  occ. eigenvalues --  -10.22761 -10.22717 -10.22682 -10.22554 -10.22177
 Alpha  occ. eigenvalues --  -10.22000  -3.14024  -3.13504  -1.86873  -1.86412
 Alpha  occ. eigenvalues --   -1.86358  -1.86234  -1.85843  -1.85776  -1.09374
 Alpha  occ. eigenvalues --   -1.09248  -1.05001  -1.04508  -1.04492  -1.03757
 Alpha  occ. eigenvalues --   -1.02040  -1.01594  -1.00362  -0.99423  -0.99267
 Alpha  occ. eigenvalues --   -0.98778  -0.98583  -0.97754  -0.97701  -0.96172
 Alpha  occ. eigenvalues --   -0.86589  -0.86364  -0.83944  -0.83536  -0.82904
 Alpha  occ. eigenvalues --   -0.82796  -0.82721  -0.82504  -0.81579  -0.81567
 Alpha  occ. eigenvalues --   -0.81267  -0.81106  -0.80737  -0.80621  -0.78508
 Alpha  occ. eigenvalues --   -0.78323  -0.78010  -0.77604  -0.77002  -0.76670
 Alpha  occ. eigenvalues --   -0.76574  -0.76242  -0.75323  -0.75179  -0.74803
 Alpha  occ. eigenvalues --   -0.74435  -0.73077  -0.72733  -0.71594  -0.71455
 Alpha  occ. eigenvalues --   -0.71188  -0.71006  -0.70123  -0.70076  -0.69415
 Alpha  occ. eigenvalues --   -0.69120  -0.67328  -0.66620  -0.65751  -0.65610
 Alpha  occ. eigenvalues --   -0.63681  -0.63641  -0.63193  -0.63136  -0.62351
 Alpha  occ. eigenvalues --   -0.62345  -0.61029  -0.60872  -0.59574  -0.59334
 Alpha  occ. eigenvalues --   -0.59180  -0.59155  -0.58989  -0.58761  -0.58759
 Alpha  occ. eigenvalues --   -0.58401  -0.56107  -0.55882  -0.55046  -0.54753
 Alpha  occ. eigenvalues --   -0.54199  -0.53916  -0.53731  -0.53565  -0.52683
 Alpha  occ. eigenvalues --   -0.52565  -0.52536  -0.52443  -0.52087  -0.51741
 Alpha  occ. eigenvalues --   -0.50811  -0.50384  -0.50223  -0.50059  -0.49997
 Alpha  occ. eigenvalues --   -0.49776  -0.49313  -0.48797  -0.48414  -0.48413
 Alpha  occ. eigenvalues --   -0.48200  -0.48178  -0.47796  -0.47715  -0.47695
 Alpha  occ. eigenvalues --   -0.47446  -0.47341  -0.47122  -0.46911  -0.46885
 Alpha  occ. eigenvalues --   -0.46623  -0.46429  -0.46313  -0.46152  -0.45960
 Alpha  occ. eigenvalues --   -0.45830  -0.45317  -0.45182  -0.45138  -0.45079
 Alpha  occ. eigenvalues --   -0.45028  -0.44449  -0.44376  -0.44300  -0.44080
 Alpha  occ. eigenvalues --   -0.44072  -0.43861  -0.43650  -0.43587  -0.43467
 Alpha  occ. eigenvalues --   -0.43443  -0.43213  -0.43102  -0.43085  -0.42966
 Alpha  occ. eigenvalues --   -0.42674  -0.42324  -0.42216  -0.42049  -0.41990
 Alpha  occ. eigenvalues --   -0.41653  -0.41622  -0.41264  -0.41244  -0.41121
 Alpha  occ. eigenvalues --   -0.40894  -0.40739  -0.40738  -0.40501  -0.40465
 Alpha  occ. eigenvalues --   -0.40187  -0.39714  -0.39658  -0.39423  -0.39386
 Alpha  occ. eigenvalues --   -0.39122  -0.39050  -0.38957  -0.38815  -0.38793
 Alpha  occ. eigenvalues --   -0.38744  -0.38529  -0.38467  -0.38327  -0.38215
 Alpha  occ. eigenvalues --   -0.38143  -0.38059  -0.37921  -0.37766  -0.37740
 Alpha  occ. eigenvalues --   -0.37497  -0.37392  -0.36963  -0.36796  -0.36653
 Alpha  occ. eigenvalues --   -0.36642  -0.36250  -0.36041  -0.35901  -0.35898
 Alpha  occ. eigenvalues --   -0.35801  -0.35491  -0.35400  -0.35194  -0.34968
 Alpha  occ. eigenvalues --   -0.34860  -0.34801  -0.34207  -0.34097  -0.33439
 Alpha  occ. eigenvalues --   -0.33157  -0.33034  -0.32699  -0.32542  -0.32407
 Alpha  occ. eigenvalues --   -0.32134  -0.31694  -0.31686  -0.31208  -0.31022
 Alpha  occ. eigenvalues --   -0.30721  -0.30550  -0.29679  -0.29274  -0.29058
 Alpha  occ. eigenvalues --   -0.29014  -0.28676  -0.28558  -0.26834  -0.26607
 Alpha  occ. eigenvalues --   -0.26595  -0.25983  -0.25839  -0.25763  -0.25660
 Alpha  occ. eigenvalues --   -0.25453  -0.25235  -0.25100  -0.20821  -0.20759
 Alpha  occ. eigenvalues --   -0.18956  -0.18431
 Alpha virt. eigenvalues --   -0.11277  -0.10668  -0.05154  -0.04786  -0.04181
 Alpha virt. eigenvalues --   -0.03969  -0.02175  -0.02012   0.00145   0.00270
 Alpha virt. eigenvalues --    0.00550   0.00888   0.01095   0.01423   0.01630

 Mulliken charges:
               1
     1  Mg  12.000000
     2  C    6.000000
     3  C    6.000000
     4  C    6.000000
     5  C    6.000000
     6  N    7.000000
     7  C    6.000000
     8  C    6.000000
     9  C    6.000000
    10  C    6.000000
    11  C    6.000000
    12  C    6.000000
    13  C    6.000000
    14  H    1.000000
    15  N    7.000000
    16  C    6.000000
    17  C    6.000000
    18  C    6.000000
    19  C    6.000000
    20  C    6.000000
    21  C    6.000000
    22  O    8.000000
    23  C    6.000000
    24  N    7.000000
    25  C    6.000000
    26  C    6.000000
    27  C    6.000000
    28  C    6.000000
    29  C    6.000000
    30  C    6.000000
    31  C    6.000000
    32  N    7.000000
    33  C    6.000000
    34  C    6.000000
    35  C    6.000000
    36  C    6.000000
    37  C    6.000000
    38  C    6.000000
    39  O    8.000000
    40  C    6.000000
    41  C    6.000000
    42  O    8.000000
    43  O    8.000000
    44  C    6.000000
    45  H    1.000000
    46  H    1.000000
    47  H    1.000000
    48  H    1.000000
    49  H    1.000000
    50  H    1.000000
    51  H    1.000000
    52  H    1.000000
    53  H    1.000000
    54  H    1.000000
    55  H    1.000000
    56  H    1.000000
    57  H    1.000000
    58  H    1.000000
    59  H    1.000000
    60  H    1.000000
    61  H    1.000000
    62  H    1.000000
    63  H    1.000000
    64  H    1.000000
    65  H    1.000000
    66  H    1.000000
    67  H    1.000000
    68  H    1.000000
    69  H    1.000000
    70  H    1.000000
    71  H    1.000000
    72  H    1.000000
    73  H    1.000000
    74  H    1.000000
    75  H    1.000000
    76  H    1.000000
    77  H    1.000000
    78  H    1.000000
    79  H    1.000000
    80  Mg  12.000000
    81  C    6.000000
    82  C    6.000000
    83  C    6.000000
    84  C    6.000000
    85  N    7.000000
    86  C    6.000000
    87  C    6.000000
    88  C    6.000000
    89  C    6.000000
    90  C    6.000000
    91  C    6.000000
    92  C    6.000000
    93  H    1.000000
    94  N    7.000000
    95  C    6.000000
    96  C    6.000000
    97  C    6.000000
    98  C    6.000000
    99  C    6.000000
   100  C    6.000000
   101  O    8.000000
   102  C    6.000000
   103  N    7.000000
   104  C    6.000000
   105  C    6.000000
   106  C    6.000000
   107  C    6.000000
   108  C    6.000000
   109  C    6.000000
   110  C    6.000000
   111  N    7.000000
   112  C    6.000000
   113  C    6.000000
   114  C    6.000000
   115  C    6.000000
   116  C    6.000000
   117  C    6.000000
   118  O    8.000000
   119  C    6.000000
   120  C    6.000000
   121  O    8.000000
   122  O    8.000000
   123  C    6.000000
   124  H    1.000000
   125  H    1.000000
   126  H    1.000000
   127  H    1.000000
   128  H    1.000000
   129  H    1.000000
   130  H    1.000000
   131  H    1.000000
   132  H    1.000000
   133  H    1.000000
   134  H    1.000000
   135  H    1.000000
   136  H    1.000000
   137  H    1.000000
   138  H    1.000000
   139  H    1.000000
   140  H    1.000000
   141  H    1.000000
   142  H    1.000000
   143  H    1.000000
   144  H    1.000000
   145  H    1.000000
   146  H    1.000000
   147  H    1.000000
   148  H    1.000000
   149  H    1.000000
   150  H    1.000000
   151  H    1.000000
   152  H    1.000000
   153  H    1.000000
   154  H    1.000000
   155  H    1.000000
   156  H    1.000000
   157  H    1.000000
   158  H    1.000000
 Sum of Mulliken charges = 624.00000

 Dipole moment (field-independent basis, Debye):
    X=             -0.0000    Y=             -0.0000    Z=              0.0000  Tot=              0.0000
 Quadrupole moment (field-independent basis, Debye-Ang):
   XX=             -0.0000   YY=              0.0000   ZZ=              0.0000
   XY=              0.0000   XZ=             -0.0000   YZ=             -0.0000

 Normal termination of Gaussian 16 at Fri Oct 15 18:23:22 2021.
