 Gaussian 16, Revision A.03,
 Gaussian 16:  ES64L-G16RevA.03 25-Dec-2016

 --------------------------------------------------------
 #p PBE1PBE/Def2SVP td=(nstates=5) density=(transition=1)
 --------------------------------------------------------

 --------------------------------
 TDDFT excited states in gaussian
 --------------------------------
 Symbolic Z-matrix:
 Charge =  0 Multiplicity = 1

                         Standard orientation:
 ---------------------------------------------------------------------
 Center     Atomic      Atomic             Coordinates (Angstroms)
 Number     Number       Type             X           Y           Z
 ---------------------------------------------------------------------
      1         12           0       13.531294   -0.687026    0.203531
      2          6           0       12.266814    2.198055   -1.261834
      3          6           0       15.333688    1.410360    2.296860
      4          6           0       15.163828   -3.458503    1.308062
      5          6           0       11.780110   -2.585717   -2.095212
      6          7           0       13.808361    1.552582    0.441457
      7          6           0       13.157576    2.564630   -0.247638
      8          6           0       13.631135    4.016513    0.154420
      9          6           0       14.856257    3.652259    1.079661
     10          6           0       14.701653    2.098590    1.272157
     11          6           0       16.292623    3.960948    0.647147
     12          6           0       12.485600    4.804468    0.815863
     13          6           0       11.858215    5.910624    0.009038
     14          1           0       11.430939    7.173436    0.778004
     15          7           0       14.891114   -1.050582    1.725814
     16          6           0       15.417299   -0.051101    2.483339
     17          6           0       16.346372   -0.714857    3.418563
     18          6           0       16.402956   -2.081861    3.105055
     19          6           0       15.488566   -2.278297    2.048104
     20          6           0       16.951763    0.026803    4.540538
     21          6           0       17.250503   -3.174049    3.688776
     22          8           0       17.120736   -4.392648    3.385813
     23          6           0       18.311410   -2.949055    4.619539
     24          7           0       13.426502   -2.687263   -0.246937
     25          6           0       14.172915   -3.652849    0.355605
     26          6           0       13.920158   -5.011003   -0.169928
     27          6           0       12.786035   -4.764607   -1.228645
     28          6           0       12.710244   -3.284042   -1.227433
     29          6           0       15.039754   -5.923218   -0.752078
     30          6           0       11.412896   -5.560005   -0.967366
     31          6           0       10.293501   -5.035622   -0.019677
     32          7           0       12.310054   -0.347560   -1.388204
     33          6           0       11.639478   -1.209374   -2.207559
     34          6           0       10.731354   -0.507607   -3.005083
     35          6           0       11.034767    0.875286   -2.701232
     36          6           0       11.978953    0.901864   -1.694258
     37          6           0        9.676875   -1.075943   -3.952976
     38          6           0       10.577448    2.206404   -2.979574
     39          8           0        9.673116    2.677044   -3.639138
     40          6           0       11.557165    3.146396   -2.193321
     41          6           0       12.475768    3.815156   -3.135971
     42          8           0       13.709833    3.633212   -3.226702
     43          8           0       11.877057    4.682360   -3.981292
     44          6           0       12.717641    5.600426   -4.823237
     45          1           0       15.945760    2.075368    2.908672
     46          1           0       15.677837   -4.379085    1.592935
     47          1           0       11.070342   -3.117918   -2.732743
     48          1           0       14.169457    4.511526   -0.654512
     49          1           0       14.654010    4.140457    2.032952
     50          1           0       16.825845    3.035893    0.426664
     51          1           0       16.804744    4.318905    1.539071
     52          1           0       16.393771    4.652570   -0.189945
     53          1           0       12.940242    5.289004    1.680734
     54          1           0       11.755848    4.088331    1.193629
     55          1           0       10.967249    5.500706   -0.467346
     56          1           0       12.448898    6.272768   -0.832533
     57          1           0       16.568094   -0.462189    5.435034
     58          1           0       16.785774    1.101144    4.630026
     59          1           0       18.034105   -0.100112    4.518986
     60          1           0       18.858829   -2.092928    4.226106
     61          1           0       18.837205   -3.877258    4.839574
     62          1           0       17.929590   -2.562087    5.564333
     63          1           0       13.524760   -5.472957    0.734233
     64          1           0       13.151546   -5.039909   -2.217243
     65          1           0       15.205295   -6.809675   -0.139730
     66          1           0       15.997720   -5.402809   -0.778967
     67          1           0       14.863643   -6.219016   -1.786225
     68          1           0       11.772038   -6.483476   -0.512644
     69          1           0       11.088830   -5.734613   -1.993437
     70          1           0       10.424944   -4.015185    0.339301
     71          1           0        9.995878   -5.705941    0.787170
     72          1           0        9.401704   -5.064818   -0.644356
     73          1           0        9.796304   -0.698033   -4.968908
     74          1           0        8.705427   -0.716132   -3.614357
     75          1           0        9.601877   -2.163669   -3.948372
     76          1           0       10.966166    3.975345   -1.803502
     77          1           0       11.917434    6.284547   -5.105983
     78          1           0       13.203304    5.129348   -5.677191
     79          1           0       13.487288    6.063771   -4.205163
     80         12           0      -13.734045   -0.693121   -0.198429
     81          6           0      -11.924561    2.285444    0.485769
     82          6           0      -16.636796    1.320440   -0.020598
     83          6           0      -15.544316   -3.394802   -0.459534
     84          6           0      -10.754057   -2.478619   -0.030334
     85          7           0      -14.235428    1.593506    0.205925
     86          6           0      -13.277388    2.567186    0.348050
     87          6           0      -13.854011    3.972250    0.388399
     88          6           0      -15.398845    3.603017    0.350991
     89          6           0      -15.446552    2.083815    0.126438
     90          6           0      -16.123048    4.155950    1.574923
     91          6           0      -13.386518    4.791006   -0.834963
     92          6           0      -13.101309    6.329886   -0.647807
     93          1           0      -13.733367    7.045256    0.569387
     94          7           0      -15.811079   -1.003404   -0.314335
     95          6           0      -16.819935   -0.055867   -0.138581
     96          6           0      -18.115975   -0.737904   -0.281480
     97          6           0      -17.796927   -2.115873   -0.511937
     98          6           0      -16.323386   -2.180242   -0.472537
     99          6           0      -19.377797   -0.075832   -0.114285
    100          6           0      -18.748946   -3.287459   -0.730572
    101          8           0      -18.322853   -4.449790   -0.821030
    102          6           0      -20.180632   -3.054749   -1.015946
    103          7           0      -13.228159   -2.672880   -0.135475
    104          6           0      -14.155747   -3.604984   -0.369258
    105          6           0      -13.537189   -5.039650   -0.314511
    106          6           0      -12.009775   -4.719694   -0.374249
    107          6           0      -11.950605   -3.240468   -0.154944
    108          6           0      -14.015614   -5.904475    0.906818
    109          6           0      -11.565972   -5.099938   -1.838376
    110          6           0      -11.545113   -4.011835   -2.966634
    111          7           0      -11.734742   -0.238603    0.045930
    112          6           0      -10.625647   -1.101744    0.105935
    113          6           0       -9.419563   -0.288327    0.399340
    114          6           0       -9.910660    0.995940    0.603058
    115          6           0      -11.267981    1.038986    0.364259
    116          6           0       -8.158170   -0.934856    0.717637
    117          6           0       -9.484528    2.311843    1.073012
    118          8           0       -8.367255    2.653945    1.443642
    119          6           0      -10.797069    3.227430    1.045481
    120          6           0      -11.087565    3.789805    2.386777
    121          8           0      -11.842912    3.308581    3.226417
    122          8           0      -10.368465    4.989483    2.545999
    123          6           0      -10.408202    5.736158    3.783019
    124          1           0      -17.547195    1.888056   -0.226103
    125          1           0      -16.088282   -4.335950   -0.567014
    126          1           0       -9.885360   -3.139691   -0.045119
    127          1           0      -13.589603    4.508991    1.299864
    128          1           0      -15.822664    4.184268   -0.467471
    129          1           0      -16.977563    4.794559    1.353897
    130          1           0      -15.510597    4.710094    2.286250
    131          1           0      -16.569673    3.298479    2.080037
    132          1           0      -14.096205    4.698779   -1.657030
    133          1           0      -12.485457    4.239656   -1.105904
    134          1           0      -13.512993    6.894905   -1.483423
    135          1           0      -12.029771    6.439815   -0.814539
    136          1           0      -19.961736   -0.305496   -1.005795
    137          1           0      -19.237797    0.954538    0.211151
    138          1           0      -19.730979   -0.567338    0.792788
    139          1           0      -20.750165   -2.724706   -0.146626
    140          1           0      -20.641955   -3.990005   -1.332513
    141          1           0      -20.245800   -2.215003   -1.707214
    142          1           0      -13.977441   -5.428877   -1.232572
    143          1           0      -11.438320   -5.333935    0.322085
    144          1           0      -14.836392   -6.554939    0.604334
    145          1           0      -14.238159   -5.207491    1.714125
    146          1           0      -13.155647   -6.507241    1.198283
    147          1           0      -12.044664   -6.036084   -2.126455
    148          1           0      -10.486316   -5.216623   -1.739823
    149          1           0      -11.988745   -4.527613   -3.817765
    150          1           0      -10.536155   -3.705782   -3.246096
    151          1           0      -12.145424   -3.120779   -2.786152
    152          1           0       -8.344908   -1.711339    1.458365
    153          1           0       -7.528933   -0.172002    1.177250
    154          1           0       -7.617527   -1.205873   -0.188796
    155          1           0      -10.520556    4.036775    0.369046
    156          1           0       -9.570590    5.520348    4.445847
    157          1           0      -11.411536    5.746772    4.209092
    158          1           0      -10.357142    6.756443    3.401800
 ---------------------------------------------------------------------

 SCF Done:  E(RPBE1PBE) =  -4067.38184678     A.U. after   17 cycles

 Excitation energies and oscillator strengths:

 Excited State   1:      Singlet-A      1.8653 eV  664.70 nm  f=0.4195  <S**2>=0.000
     310 -> 316       -0.16924
     311 -> 313        0.68867
     311 <- 313       -0.10854
 This state for optimization and/or second-order correction.
 Total Energy, E(TD-HF/TD-DFT) =  -4067.31329966
 Copying the excited state density for this state as the 1-particle RhoCI density.

 Excited State   2:      Singlet-A      1.8758 eV  660.97 nm  f=0.0000  <S**2>=0.000
     312 -> 313        0.70710

 Excited State   3:      Singlet-A      1.8855 eV  657.58 nm  f=0.3182  <S**2>=0.000
     309 -> 315        0.18430
     312 -> 314        0.68564
     312 <- 314       -0.10016

 Excited State   4:      Singlet-A      2.0451 eV  606.25 nm  f=0.0000  <S**2>=0.000
     311 -> 314        0.70709

 Excited State   5:      Singlet-A      2.2250 eV  557.23 nm  f=0.1265  <S**2>=0.000
     310 -> 313        0.65899
     311 -> 316        0.23867

 The electronic state is 1-A.
 Alpha  occ. eigenvalues --  -46.91883 -46.90879 -19.24619 -19.24616 -19.20049
 Alpha  occ. eigenvalues --  -19.19620 -19.18788 -19.18446 -19.18445 -19.18120
 Alpha  occ. eigenvalues --  -14.41412 -14.41410 -14.41347 -14.40953 -14.39176
 Alpha  occ. eigenvalues --  -14.39131 -14.38687 -14.38000 -10.36422 -10.35470
 Alpha  occ. eigenvalues --  -10.32601 -10.32230 -10.31540 -10.31292 -10.29166
 Alpha  occ. eigenvalues --  -10.28682 -10.28658 -10.28526 -10.28519 -10.28369
 Alpha  occ. eigenvalues --  -10.28197 -10.28086 -10.28079 -10.27999 -10.27834
 Alpha  occ. eigenvalues --  -10.27742 -10.27734 -10.27625 -10.27107 -10.26715
 Alpha  occ. eigenvalues --  -10.26504 -10.26325 -10.26315 -10.26228 -10.26140
 Alpha  occ. eigenvalues --  -10.25923 -10.25908 -10.25899 -10.25771 -10.25578
 Alpha  occ. eigenvalues --  -10.25450 -10.25397 -10.25250 -10.25197 -10.25094
 Alpha  occ. eigenvalues --  -10.25078 -10.25051 -10.24990 -10.24987 -10.24949
 Alpha  occ. eigenvalues --  -10.24899 -10.24864 -10.24778 -10.24746 -10.24639
 Alpha  occ. eigenvalues --  -10.24415 -10.24402 -10.24296 -10.24260 -10.24226
 Alpha  occ. eigenvalues --  -10.24214 -10.24100 -10.23710 -10.23628 -10.23441
 Alpha  occ. eigenvalues --  -10.23409 -10.23368 -10.23231 -10.23108 -10.23098
 Alpha  occ. eigenvalues --  -10.22855 -10.22743 -10.22703 -10.22661 -10.22536
 Alpha  occ. eigenvalues --  -10.22356  -3.14008  -3.13171  -1.86857  -1.86396
 Alpha  occ. eigenvalues --   -1.86218  -1.86024  -1.85550  -1.85399  -1.09815
 Alpha  occ. eigenvalues --   -1.09356  -1.04470  -1.04262  -1.03744  -1.02555
 Alpha  occ. eigenvalues --   -1.02023  -0.99818  -0.99472  -0.99251  -0.98706
 Alpha  occ. eigenvalues --   -0.98567  -0.97807  -0.97739  -0.96817  -0.96155
 Alpha  occ. eigenvalues --   -0.87426  -0.86347  -0.83929  -0.83210  -0.82886
 Alpha  occ. eigenvalues --   -0.82707  -0.82677  -0.82556  -0.81781  -0.81563
 Alpha  occ. eigenvalues --   -0.81270  -0.81091  -0.80604  -0.80400  -0.78569
 Alpha  occ. eigenvalues --   -0.78307  -0.77879  -0.77589  -0.76923  -0.76657
 Alpha  occ. eigenvalues --   -0.76655  -0.76226  -0.75244  -0.75161  -0.74818
 Alpha  occ. eigenvalues --   -0.74787  -0.73062  -0.72827  -0.71772  -0.71440
 Alpha  occ. eigenvalues --   -0.71170  -0.71080  -0.70455  -0.70059  -0.69594
 Alpha  occ. eigenvalues --   -0.69105  -0.67500  -0.66602  -0.65735  -0.65721
 Alpha  occ. eigenvalues --   -0.64436  -0.63626  -0.63176  -0.63066  -0.62376
 Alpha  occ. eigenvalues --   -0.62327  -0.61449  -0.61014  -0.59619  -0.59442
 Alpha  occ. eigenvalues --   -0.59316  -0.59164  -0.59156  -0.58974  -0.58853
 Alpha  occ. eigenvalues --   -0.58742  -0.56090  -0.56016  -0.54739  -0.54440
 Alpha  occ. eigenvalues --   -0.54118  -0.53899  -0.53660  -0.53548  -0.53207
 Alpha  occ. eigenvalues --   -0.52549  -0.52426  -0.52192  -0.51781  -0.51723
 Alpha  occ. eigenvalues --   -0.50797  -0.50717  -0.50059  -0.50043  -0.49759
 Alpha  occ. eigenvalues --   -0.49410  -0.48867  -0.48783  -0.48397  -0.48340
 Alpha  occ. eigenvalues --   -0.48164  -0.47781  -0.47774  -0.47680  -0.47324
 Alpha  occ. eigenvalues --   -0.47209  -0.47042  -0.46962  -0.46870  -0.46534
 Alpha  occ. eigenvalues --   -0.46451  -0.46295  -0.46135  -0.45942  -0.45601
 Alpha  occ. eigenvalues --   -0.45349  -0.45299  -0.45126  -0.44903  -0.44739
 Alpha  occ. eigenvalues --   -0.44430  -0.44294  -0.44287  -0.44148  -0.44056
 Alpha  occ. eigenvalues --   -0.43946  -0.43637  -0.43544  -0.43428  -0.43386
 Alpha  occ. eigenvalues --   -0.43086  -0.42985  -0.42953  -0.42755  -0.42658
 Alpha  occ. eigenvalues --   -0.42545  -0.42363  -0.42202  -0.42033  -0.41839
 Alpha  occ. eigenvalues --   -0.41605  -0.41373  -0.41250  -0.41124  -0.40933
 Alpha  occ. eigenvalues --   -0.40878  -0.40721  -0.40718  -0.40373  -0.40173
 Alpha  occ. eigenvalues --   -0.40121  -0.40014  -0.39861  -0.39697  -0.39528
 Alpha  occ. eigenvalues --   -0.39370  -0.39034  -0.38986  -0.38940  -0.38777
 Alpha  occ. eigenvalues --   -0.38729  -0.38727  -0.38518  -0.38485  -0.38449
 Alpha  occ. eigenvalues --   -0.38200  -0.38126  -0.38125  -0.37722  -0.37707
 Alpha  occ. eigenvalues --   -0.37609  -0.37479  -0.37293  -0.36779  -0.36629
 Alpha  occ. eigenvalues --   -0.36391  -0.36193  -0.36028  -0.35938  -0.35887
 Alpha  occ. eigenvalues --   -0.35580  -0.35383  -0.35179  -0.35115  -0.34786
 Alpha  occ. eigenvalues --   -0.34754  -0.34546  -0.34191  -0.33764  -0.33419
 Alpha  occ. eigenvalues --   -0.33166  -0.32775  -0.32683  -0.32391  -0.32117
 Alpha  occ. eigenvalues --   -0.31856  -0.31678  -0.31534  -0.31414  -0.31005
 Alpha  occ. eigenvalues --   -0.30706  -0.30463  -0.29473  -0.29258  -0.29041
 Alpha  occ. eigenvalues --   -0.28725  -0.28659  -0.27508  -0.26606  -0.26579
 Alpha  occ. eigenvalues --   -0.25818  -0.25750  -0.25644  -0.25579  -0.25155
 Alpha  occ. eigenvalues --   -0.25082  -0.24958  -0.24828  -0.20743  -0.20554
 Alpha  occ. eigenvalues --   -0.18650  -0.18415
 Alpha virt. eigenvalues --   -0.11027  -0.10652  -0.05138  -0.04824  -0.03952
 Alpha virt. eigenvalues --   -0.03456  -0.02159  -0.01974   0.00288   0.00569
 Alpha virt. eigenvalues --    0.00677   0.00900   0.01114   0.01502   0.01646

 Mulliken charges:
               1
     1  Mg  12.000126
     2  C    6.017559
     3  C    5.986258
     4  C    5.982807
     5  C    5.996461
     6  N    7.004929
     7  C    5.974013
     8  C    6.011528
     9  C    5.994481
    10  C    6.025513
    11  C    5.998273
    12  C    6.003742
    13  C    6.001949
    14  H    0.993596
    15  N    6.995774
    16  C    6.039405
    17  C    6.029802
    18  C    6.005883
    19  C    6.032536
    20  C    5.994398
    21  C    6.011523
    22  O    8.024577
    23  C    5.995847
    24  N    6.991581
    25  C    6.037806
    26  C    5.985791
    27  C    6.012644
    28  C    5.967203
    29  C    6.001040
    30  C    6.003833
    31  C    6.001440
    32  N    7.003264
    33  C    5.975691
    34  C    5.971846
    35  C    5.995359
    36  C    5.973805
    37  C    6.001852
    38  C    5.985945
    39  O    7.972539
    40  C    5.995490
    41  C    5.999080
    42  O    7.989491
    43  O    8.001529
    44  C    6.001901
    45  H    1.009708
    46  H    1.007912
    47  H    0.987245
    48  H    0.996397
    49  H    1.000629
    50  H    0.996296
    51  H    0.999127
    52  H    1.011677
    53  H    0.991380
    54  H    0.999569
    55  H    1.005119
    56  H    1.000383
    57  H    1.020217
    58  H    1.019575
    59  H    1.021058
    60  H    1.003431
    61  H    1.013150
    62  H    1.006435
    63  H    0.999771
    64  H    0.999535
    65  H    0.999809
    66  H    0.997186
    67  H    1.009885
    68  H    0.988148
    69  H    1.001484
    70  H    1.000779
    71  H    0.991735
    72  H    1.001592
    73  H    0.982692
    74  H    0.983370
    75  H    0.984377
    76  H    0.991735
    77  H    0.997102
    78  H    0.997298
    79  H    0.994084
    80  Mg  12.000184
    81  C    5.998345
    82  C    6.000063
    83  C    6.002440
    84  C    5.999513
    85  N    6.999138
    86  C    6.002510
    87  C    5.998603
    88  C    6.001218
    89  C    5.997352
    90  C    6.000066
    91  C    5.999867
    92  C    5.999944
    93  H    1.000240
    94  N    7.000703
    95  C    5.996309
    96  C    5.998235
    97  C    5.998327
    98  C    5.997626
    99  C    6.000451
   100  C    5.998872
   101  O    7.996986
   102  C    6.000475
   103  N    7.000885
   104  C    5.996767
   105  C    6.000380
   106  C    5.999035
   107  C    6.002601
   108  C    6.000263
   109  C    5.999801
   110  C    5.999360
   111  N    6.999612
   112  C    6.002790
   113  C    6.003726
   114  C    5.999749
   115  C    6.002960
   116  C    5.999700
   117  C    6.001772
   118  O    8.002414
   119  C    6.000196
   120  C    6.000195
   121  O    8.000552
   122  O    8.000080
   123  C    5.999696
   124  H    0.998794
   125  H    0.999625
   126  H    1.001191
   127  H    0.999991
   128  H    0.999538
   129  H    0.999670
   130  H    0.998768
   131  H    1.000250
   132  H    1.000828
   133  H    0.999445
   134  H    1.000264
   135  H    0.999761
   136  H    0.998368
   137  H    0.998570
   138  H    0.998247
   139  H    0.999096
   140  H    0.998575
   141  H    0.999531
   142  H    1.000440
   143  H    1.000299
   144  H    1.000247
   145  H    0.999930
   146  H    0.999121
   147  H    1.000983
   148  H    1.000105
   149  H    1.000871
   150  H    1.000007
   151  H    1.000350
   152  H    1.001599
   153  H    1.001516
   154  H    1.002277
   155  H    1.000790
   156  H    1.000128
   157  H    1.000407
   158  H    1.000418
 Sum of Mulliken charges = 624.00000

 Dipole moment (field-independent basis, Debye):
    X=              7.7689    Y=             -1.5667    Z=              7.4704  Tot=             10.8912
 Quadrupole moment (field-independent basis, Debye-Ang):
   XX=            157.4781   YY=             -1.6714   ZZ=              3.4868
   XY=            -30.2911   XZ=            102.2274   YZ=             -3.9063

 Normal termination of Gaussian 16 at Thu Oct 14 03:37:41 2021.
