 Gaussian 16, Revision A.03,
 Gaussian 16:  ES64L-G16RevA.03 25-Dec-2016

 --------------------------------------------------------
 #p PBE1PBE/Def2SVP td=(nstates=5) density=(transition=1)
 --------------------------------------------------------

 --------------------------------
 TDDFT excited states in gaussian
 --------------------------------
 Symbolic Z-matrix:
 Charge =  0 Multiplicity = 1

                         Standard orientation:
 ---------------------------------------------------------------------
 Center     Atomic      Atomic             Coordinates (Angstroms)
 Number     Number       Type             X           Y           Z
 ---------------------------------------------------------------------
      1         12           0      -21.991980    0.417273   -0.214575
      2          6           0      -18.335546    0.615219    0.024008
      3          6           0      -21.415202   -1.115700   -3.263674
      4          6           0      -24.965869   -0.714601   -0.003122
      5          6           0      -22.005877    1.642140    3.163483
      6          7           0      -19.970715   -0.310016   -1.414704
      7          6           0      -18.635497   -0.113056   -1.137825
      8          6           0      -17.765230   -0.842496   -2.225631
      9          6           0      -18.745898   -1.128435   -3.376169
     10          6           0      -20.118582   -0.839868   -2.657602
     11          6           0      -18.643842   -0.253873   -4.694354
     12          6           0      -17.005785   -2.102040   -1.684633
     13          6           0      -15.598546   -2.312191   -2.200699
     14          1           0      -15.412988   -3.390519   -3.313955
     15          7           0      -23.086499   -0.632641   -1.486195
     16          6           0      -22.746780   -1.091288   -2.729883
     17          6           0      -23.907630   -1.792336   -3.343683
     18          6           0      -24.934881   -1.690944   -2.369651
     19          6           0      -24.334054   -1.031146   -1.213099
     20          6           0      -23.939585   -2.530775   -4.691794
     21          6           0      -26.314578   -2.355441   -2.366459
     22          8           0      -26.639729   -2.978709   -3.373396
     23          6           0      -27.246091   -2.277256   -1.311300
     24          7           0      -23.218445    0.238651    1.506701
     25          6           0      -24.526875   -0.055938    1.178469
     26          6           0      -25.423305    0.224735    2.446122
     27          6           0      -24.388521    0.682259    3.535767
     28          6           0      -23.150582    0.963740    2.650794
     29          6           0      -26.587091    1.232454    2.238450
     30          6           0      -24.084138   -0.280807    4.753215
     31          6           0      -25.087075   -0.311579    5.919589
     32          7           0      -20.550226    1.073103    1.334991
     33          6           0      -20.740309    1.650215    2.574663
     34          6           0      -19.507280    2.156103    3.127410
     35          6           0      -18.524064    1.780243    2.137260
     36          6           0      -19.150653    1.063633    1.058609
     37          6           0      -19.392164    2.808699    4.470482
     38          6           0      -17.154114    1.782321    1.877372
     39          8           0      -16.201655    2.078672    2.586004
     40          6           0      -16.937236    0.933737    0.591067
     41          6           0      -16.187974    1.851769   -0.346268
     42          8           0      -15.166427    1.517982   -0.951756
     43          8           0      -16.837424    3.120094   -0.630139
     44          6           0      -16.263893    3.791999   -1.795098
     45          1           0      -21.267302   -1.535575   -4.260317
     46          1           0      -26.036310   -0.876513    0.139660
     47          1           0      -22.183409    2.070571    4.152023
     48          1           0      -17.092779   -0.110761   -2.675643
     49          1           0      -18.773984   -2.187861   -3.630957
     50          1           0      -18.200401   -0.922188   -5.432170
     51          1           0      -17.951717    0.577367   -4.562966
     52          1           0      -19.575821    0.198671   -5.032899
     53          1           0      -17.445672   -3.057084   -1.972983
     54          1           0      -16.908237   -2.048385   -0.600120
     55          1           0      -14.964860   -2.482855   -1.330383
     56          1           0      -15.270660   -1.373392   -2.648204
     57          1           0      -24.887272   -2.338125   -5.195366
     58          1           0      -23.776034   -3.573639   -4.420407
     59          1           0      -23.168768   -2.153766   -5.362583
     60          1           0      -27.582237   -1.242684   -1.235241
     61          1           0      -26.897829   -2.682357   -0.361140
     62          1           0      -27.992566   -2.998125   -1.646556
     63          1           0      -25.911608   -0.664593    2.843154
     64          1           0      -24.646770    1.659729    3.942431
     65          1           0      -26.417068    2.017903    2.974964
     66          1           0      -27.524549    0.718792    2.449293
     67          1           0      -26.475025    1.537132    1.197195
     68          1           0      -23.121350    0.076645    5.119869
     69          1           0      -24.062361   -1.321992    4.430737
     70          1           0      -25.779938    0.470516    5.607831
     71          1           0      -24.635520    0.063766    6.839021
     72          1           0      -25.613327   -1.248971    6.098110
     73          1           0      -19.784692    2.079079    5.177555
     74          1           0      -20.047772    3.670657    4.592899
     75          1           0      -18.358818    2.939746    4.791835
     76          1           0      -16.277591    0.110512    0.864746
     77          1           0      -17.161119    4.361168   -2.041205
     78          1           0      -15.833092    3.087426   -2.506465
     79          1           0      -15.539412    4.508220   -1.407271
     80         12           0       20.941106   -0.922549   -0.227762
     81          6           0       22.163090    2.312566   -0.684825
     82          6           0       17.836678    0.267467   -0.075229
     83          6           0       20.076247   -3.748469    1.490171
     84          6           0       24.212810   -2.113652   -0.343920
     85          7           0       20.074645    1.074434   -0.533912
     86          6           0       20.755887    2.198956   -0.717078
     87          6           0       19.744992    3.365451   -1.012254
     88          6           0       18.382408    2.702111   -0.699099
     89          6           0       18.760886    1.256853   -0.389461
     90          6           0       17.659917    3.280101    0.617134
     91          6           0       19.792726    3.947780   -2.497496
     92          6           0       19.680361    5.433522   -2.526683
     93          1           0       18.650557    6.089459   -3.433597
     94          7           0       19.185988   -1.634741    0.565669
     95          6           0       17.976643   -0.994162    0.507881
     96          6           0       16.922297   -1.949882    0.874615
     97          6           0       17.591315   -3.119821    1.330880
     98          6           0       19.026541   -2.828626    1.178784
     99          6           0       15.401973   -1.591479    0.860490
    100          6           0       16.979089   -4.415392    1.943642
    101          8           0       17.638300   -5.382867    2.307352
    102          6           0       15.504668   -4.493960    2.070786
    103          7           0       21.950755   -2.614504    0.484365
    104          6           0       21.418822   -3.662157    1.242123
    105          6           0       22.568732   -4.570502    1.750588
    106          6           0       23.694122   -4.369576    0.643359
    107          6           0       23.228382   -2.942333    0.238171
    108          6           0       22.983062   -4.270838    3.207255
    109          6           0       23.675772   -5.304133   -0.532759
    110          6           0       22.703481   -5.113347   -1.658755
    111          7           0       22.818424   -0.177095   -0.658584
    112          6           0       24.068905   -0.750119   -0.634355
    113          6           0       25.121055    0.214662   -0.962268
    114          6           0       24.425172    1.504727   -0.896174
    115          6           0       23.028056    1.175256   -0.696669
    116          6           0       26.536328   -0.050565   -1.044119
    117          6           0       24.577921    2.953556   -0.949793
    118          8           0       25.520097    3.650040   -1.019403
    119          6           0       23.069587    3.532880   -0.891108
    120          6           0       22.873276    4.656378    0.095183
    121          8           0       22.512348    4.520815    1.260528
    122          8           0       23.075217    5.867363   -0.566169
    123          6           0       22.900513    7.107126    0.212013
    124          1           0       16.761895    0.436142   -0.173038
    125          1           0       19.730679   -4.617123    2.055179
    126          1           0       25.198172   -2.568455   -0.461992
    127          1           0       19.857386    4.193740   -0.312233
    128          1           0       17.617510    2.780821   -1.471630
    129          1           0       16.999675    4.081784    0.285622
    130          1           0       18.322042    3.747292    1.345667
    131          1           0       17.063018    2.476314    1.049699
    132          1           0       18.983492    3.552698   -3.111848
    133          1           0       20.676921    3.683651   -3.077786
    134          1           0       20.636721    5.742225   -2.947911
    135          1           0       19.576600    5.957122   -1.576740
    136          1           0       15.182522   -1.204985    1.855366
    137          1           0       14.790281   -2.445150    0.567639
    138          1           0       15.162559   -0.692606    0.291331
    139          1           0       14.911597   -3.638335    2.393318
    140          1           0       15.239150   -5.297105    2.757768
    141          1           0       15.094314   -4.967223    1.178290
    142          1           0       22.154858   -5.574217    1.658166
    143          1           0       24.699079   -4.400905    1.063910
    144          1           0       24.039241   -4.066046    3.382422
    145          1           0       22.567077   -4.970325    3.932706
    146          1           0       22.502213   -3.353612    3.546768
    147          1           0       23.527539   -6.350938   -0.270332
    148          1           0       24.665808   -5.278832   -0.988276
    149          1           0       23.294900   -4.548160   -2.378872
    150          1           0       21.823837   -4.510430   -1.432262
    151          1           0       22.414522   -6.088233   -2.052765
    152          1           0       26.911567    0.594111   -1.839115
    153          1           0       26.649753   -1.091737   -1.345086
    154          1           0       27.021435    0.199059   -0.100993
    155          1           0       22.846836    3.934135   -1.879793
    156          1           0       23.523271    7.012350    1.101968
    157          1           0       21.868942    7.212929    0.546793
    158          1           0       23.128266    8.068673   -0.248345
 ---------------------------------------------------------------------

 SCF Done:  E(RPBE1PBE) =  -4067.33526424     A.U. after   16 cycles

 Excitation energies and oscillator strengths:

 Excited State   1:      Singlet-A      1.8310 eV  677.15 nm  f=0.0000  <S**2>=0.000
     312 -> 313        0.70711
 This state for optimization and/or second-order correction.
 Total Energy, E(TD-HF/TD-DFT) =  -4067.26797776
 Copying the excited state density for this state as the 1-particle RhoCI density.

 Excited State   2:      Singlet-A      1.8399 eV  673.85 nm  f=0.3719  <S**2>=0.000
     310 -> 316       -0.17110
     312 -> 314        0.69443
     312 <- 314       -0.11327

 Excited State   3:      Singlet-A      1.8703 eV  662.90 nm  f=0.3357  <S**2>=0.000
     309 -> 315        0.19148
     311 -> 313        0.68639

 Excited State   4:      Singlet-A      2.1563 eV  575.00 nm  f=0.0000  <S**2>=0.000
     311 -> 314        0.70710

 Excited State   5:      Singlet-A      2.2322 eV  555.44 nm  f=0.0728  <S**2>=0.000
     308 -> 313        0.10211
     309 -> 313        0.63202
     311 -> 315       -0.29400

 The electronic state is 1-A.
 Alpha  occ. eigenvalues --  -46.94165 -46.91302 -19.25586 -19.24411 -19.20366
 Alpha  occ. eigenvalues --  -19.20198 -19.19730 -19.19424 -19.18957 -19.18212
 Alpha  occ. eigenvalues --  -14.42108 -14.41665 -14.41594 -14.40991 -14.40353
 Alpha  occ. eigenvalues --  -14.38939 -14.38894 -14.38875 -10.36582 -10.36492
 Alpha  occ. eigenvalues --  -10.32796 -10.32500 -10.31998 -10.30733 -10.29954
 Alpha  occ. eigenvalues --  -10.29587 -10.29494 -10.29103 -10.28978 -10.28933
 Alpha  occ. eigenvalues --  -10.28895 -10.28814 -10.28358 -10.28260 -10.28036
 Alpha  occ. eigenvalues --  -10.27794 -10.27618 -10.27322 -10.27273 -10.27191
 Alpha  occ. eigenvalues --  -10.27178 -10.27158 -10.27095 -10.26708 -10.26690
 Alpha  occ. eigenvalues --  -10.26679 -10.26545 -10.26222 -10.26202 -10.26150
 Alpha  occ. eigenvalues --  -10.26055 -10.26032 -10.25998 -10.25991 -10.25933
 Alpha  occ. eigenvalues --  -10.25911 -10.25852 -10.25710 -10.25703 -10.25486
 Alpha  occ. eigenvalues --  -10.25357 -10.25097 -10.25076 -10.24999 -10.24879
 Alpha  occ. eigenvalues --  -10.24681 -10.24551 -10.24464 -10.24442 -10.24426
 Alpha  occ. eigenvalues --  -10.24280 -10.24124 -10.23982 -10.23779 -10.23758
 Alpha  occ. eigenvalues --  -10.23693 -10.23535 -10.23424 -10.23406 -10.23327
 Alpha  occ. eigenvalues --  -10.23137 -10.23111 -10.23105 -10.23070 -10.22999
 Alpha  occ. eigenvalues --  -10.21924  -3.16158  -3.13580  -1.88940  -1.88584
 Alpha  occ. eigenvalues --   -1.88345  -1.86425  -1.85931  -1.85831  -1.09795
 Alpha  occ. eigenvalues --   -1.08702  -1.07593  -1.05132  -1.04907  -1.03827
 Alpha  occ. eigenvalues --   -1.02166  -1.01215  -0.99760  -0.99594  -0.98182
 Alpha  occ. eigenvalues --   -0.98033  -0.97926  -0.97542  -0.96765  -0.95869
 Alpha  occ. eigenvalues --   -0.87344  -0.86104  -0.83288  -0.83281  -0.83230
 Alpha  occ. eigenvalues --   -0.82818  -0.82801  -0.82335  -0.81401  -0.81300
 Alpha  occ. eigenvalues --   -0.81208  -0.81150  -0.80569  -0.80377  -0.79264
 Alpha  occ. eigenvalues --   -0.78421  -0.78148  -0.77957  -0.77824  -0.76865
 Alpha  occ. eigenvalues --   -0.76785  -0.76031  -0.75561  -0.75249  -0.74684
 Alpha  occ. eigenvalues --   -0.74266  -0.72544  -0.72538  -0.71697  -0.71525
 Alpha  occ. eigenvalues --   -0.71349  -0.71006  -0.70169  -0.70066  -0.69641
 Alpha  occ. eigenvalues --   -0.69193  -0.67370  -0.66653  -0.66413  -0.65887
 Alpha  occ. eigenvalues --   -0.63563  -0.63531  -0.63071  -0.62903  -0.62187
 Alpha  occ. eigenvalues --   -0.62066  -0.61412  -0.61112  -0.60092  -0.60043
 Alpha  occ. eigenvalues --   -0.59867  -0.59504  -0.59143  -0.58766  -0.58636
 Alpha  occ. eigenvalues --   -0.58521  -0.56436  -0.56330  -0.54912  -0.54716
 Alpha  occ. eigenvalues --   -0.54458  -0.54063  -0.53807  -0.53543  -0.53413
 Alpha  occ. eigenvalues --   -0.52725  -0.52273  -0.51881  -0.51590  -0.51575
 Alpha  occ. eigenvalues --   -0.51249  -0.50405  -0.50304  -0.50035  -0.49789
 Alpha  occ. eigenvalues --   -0.49387  -0.49294  -0.48762  -0.48567  -0.48455
 Alpha  occ. eigenvalues --   -0.48329  -0.48149  -0.48145  -0.47887  -0.47882
 Alpha  occ. eigenvalues --   -0.47498  -0.47444  -0.47148  -0.47022  -0.46692
 Alpha  occ. eigenvalues --   -0.46631  -0.46442  -0.46198  -0.46128  -0.45942
 Alpha  occ. eigenvalues --   -0.45849  -0.45719  -0.45623  -0.45269  -0.44948
 Alpha  occ. eigenvalues --   -0.44713  -0.44591  -0.44545  -0.44526  -0.44128
 Alpha  occ. eigenvalues --   -0.44104  -0.44087  -0.43902  -0.43797  -0.43653
 Alpha  occ. eigenvalues --   -0.43331  -0.43239  -0.43065  -0.42947  -0.42880
 Alpha  occ. eigenvalues --   -0.42663  -0.42622  -0.42437  -0.42411  -0.41899
 Alpha  occ. eigenvalues --   -0.41619  -0.41492  -0.41370  -0.41290  -0.41171
 Alpha  occ. eigenvalues --   -0.40967  -0.40942  -0.40760  -0.40635  -0.40405
 Alpha  occ. eigenvalues --   -0.40192  -0.40189  -0.39777  -0.39772  -0.39658
 Alpha  occ. eigenvalues --   -0.39525  -0.39436  -0.39305  -0.39180  -0.39121
 Alpha  occ. eigenvalues --   -0.38965  -0.38921  -0.38757  -0.38544  -0.38511
 Alpha  occ. eigenvalues --   -0.38147  -0.38080  -0.38057  -0.37661  -0.37476
 Alpha  occ. eigenvalues --   -0.37438  -0.37389  -0.37178  -0.36874  -0.36769
 Alpha  occ. eigenvalues --   -0.36713  -0.36398  -0.36379  -0.36285  -0.36197
 Alpha  occ. eigenvalues --   -0.36144  -0.35983  -0.35367  -0.35211  -0.35135
 Alpha  occ. eigenvalues --   -0.35096  -0.34869  -0.34293  -0.34010  -0.33833
 Alpha  occ. eigenvalues --   -0.33585  -0.32964  -0.32910  -0.32656  -0.32589
 Alpha  occ. eigenvalues --   -0.32196  -0.31898  -0.31590  -0.31408  -0.31382
 Alpha  occ. eigenvalues --   -0.30906  -0.30292  -0.29701  -0.29490  -0.29256
 Alpha  occ. eigenvalues --   -0.29212  -0.28444  -0.28329  -0.27139  -0.26764
 Alpha  occ. eigenvalues --   -0.26684  -0.26180  -0.26104  -0.25993  -0.25635
 Alpha  occ. eigenvalues --   -0.25198  -0.25117  -0.24466  -0.21412  -0.20874
 Alpha  occ. eigenvalues --   -0.19139  -0.18403
 Alpha virt. eigenvalues --   -0.11362  -0.10904  -0.06140  -0.04873  -0.04405
 Alpha virt. eigenvalues --   -0.03800  -0.02449  -0.02182  -0.01898  -0.00129
 Alpha virt. eigenvalues --    0.00063   0.00106   0.00186   0.01343   0.01445

 Mulliken charges:
               1
     1  Mg  12.000000
     2  C    6.000000
     3  C    6.000000
     4  C    6.000000
     5  C    6.000000
     6  N    7.000000
     7  C    6.000000
     8  C    6.000000
     9  C    6.000000
    10  C    6.000000
    11  C    6.000000
    12  C    6.000000
    13  C    6.000000
    14  H    1.000000
    15  N    7.000000
    16  C    6.000000
    17  C    6.000000
    18  C    6.000000
    19  C    6.000000
    20  C    6.000000
    21  C    6.000000
    22  O    8.000000
    23  C    6.000000
    24  N    7.000000
    25  C    6.000000
    26  C    6.000000
    27  C    6.000000
    28  C    6.000000
    29  C    6.000000
    30  C    6.000000
    31  C    6.000000
    32  N    7.000000
    33  C    6.000000
    34  C    6.000000
    35  C    6.000000
    36  C    6.000000
    37  C    6.000000
    38  C    6.000000
    39  O    8.000000
    40  C    6.000000
    41  C    6.000000
    42  O    8.000000
    43  O    8.000000
    44  C    6.000000
    45  H    1.000000
    46  H    1.000000
    47  H    1.000000
    48  H    1.000000
    49  H    1.000000
    50  H    1.000000
    51  H    1.000000
    52  H    1.000000
    53  H    1.000000
    54  H    1.000000
    55  H    1.000000
    56  H    1.000000
    57  H    1.000000
    58  H    1.000000
    59  H    1.000000
    60  H    1.000000
    61  H    1.000000
    62  H    1.000000
    63  H    1.000000
    64  H    1.000000
    65  H    1.000000
    66  H    1.000000
    67  H    1.000000
    68  H    1.000000
    69  H    1.000000
    70  H    1.000000
    71  H    1.000000
    72  H    1.000000
    73  H    1.000000
    74  H    1.000000
    75  H    1.000000
    76  H    1.000000
    77  H    1.000000
    78  H    1.000000
    79  H    1.000000
    80  Mg  12.000000
    81  C    6.000000
    82  C    6.000000
    83  C    6.000000
    84  C    6.000000
    85  N    7.000000
    86  C    6.000000
    87  C    6.000000
    88  C    6.000000
    89  C    6.000000
    90  C    6.000000
    91  C    6.000000
    92  C    6.000000
    93  H    1.000000
    94  N    7.000000
    95  C    6.000000
    96  C    6.000000
    97  C    6.000000
    98  C    6.000000
    99  C    6.000000
   100  C    6.000000
   101  O    8.000000
   102  C    6.000000
   103  N    7.000000
   104  C    6.000000
   105  C    6.000000
   106  C    6.000000
   107  C    6.000000
   108  C    6.000000
   109  C    6.000000
   110  C    6.000000
   111  N    7.000000
   112  C    6.000000
   113  C    6.000000
   114  C    6.000000
   115  C    6.000000
   116  C    6.000000
   117  C    6.000000
   118  O    8.000000
   119  C    6.000000
   120  C    6.000000
   121  O    8.000000
   122  O    8.000000
   123  C    6.000000
   124  H    1.000000
   125  H    1.000000
   126  H    1.000000
   127  H    1.000000
   128  H    1.000000
   129  H    1.000000
   130  H    1.000000
   131  H    1.000000
   132  H    1.000000
   133  H    1.000000
   134  H    1.000000
   135  H    1.000000
   136  H    1.000000
   137  H    1.000000
   138  H    1.000000
   139  H    1.000000
   140  H    1.000000
   141  H    1.000000
   142  H    1.000000
   143  H    1.000000
   144  H    1.000000
   145  H    1.000000
   146  H    1.000000
   147  H    1.000000
   148  H    1.000000
   149  H    1.000000
   150  H    1.000000
   151  H    1.000000
   152  H    1.000000
   153  H    1.000000
   154  H    1.000000
   155  H    1.000000
   156  H    1.000000
   157  H    1.000000
   158  H    1.000000
 Sum of Mulliken charges = 624.00000

 Dipole moment (field-independent basis, Debye):
    X=             -0.0000    Y=             -0.0000    Z=              0.0000  Tot=              0.0000
 Quadrupole moment (field-independent basis, Debye-Ang):
   XX=             -0.0000   YY=              0.0000   ZZ=              0.0000
   XY=             -0.0000   XZ=              0.0000   YZ=             -0.0000

 Normal termination of Gaussian 16 at Fri Oct 15 06:59:29 2021.
