 Gaussian 16, Revision A.03,
 Gaussian 16:  ES64L-G16RevA.03 25-Dec-2016

 --------------------------------------------------------
 #p PBE1PBE/Def2SVP td=(nstates=5) density=(transition=1)
 --------------------------------------------------------

 --------------------------------
 TDDFT excited states in gaussian
 --------------------------------
 Symbolic Z-matrix:
 Charge =  0 Multiplicity = 1

                         Standard orientation:
 ---------------------------------------------------------------------
 Center     Atomic      Atomic             Coordinates (Angstroms)
 Number     Number       Type             X           Y           Z
 ---------------------------------------------------------------------
      1         12           0       -9.544018   -0.847660    0.606034
      2          6           0      -10.010085    2.545322   -0.220616
      3          6           0       -7.481927    0.097590    3.132886
      4          6           0       -9.039761   -4.123188    1.281748
      5          6           0      -11.297353   -1.719984   -2.261615
      6          7           0       -8.758883    1.056770    1.299598
      7          6           0       -9.174684    2.325804    0.887493
      8          6           0       -8.604049    3.360059    1.810676
      9          6           0       -7.461620    2.587159    2.511571
     10          6           0       -7.935179    1.125771    2.301630
     11          6           0       -6.018576    2.758094    1.940438
     12          6           0       -9.618526    4.012144    2.823878
     13          6           0       -9.545475    5.504053    2.899241
     14          1           0       -9.559754    6.123161    4.309378
     15          7           0       -8.522090   -1.822874    2.048731
     16          6           0       -7.777792   -1.254568    3.095915
     17          6           0       -7.277248   -2.267193    3.937343
     18          6           0       -7.729914   -3.570692    3.419357
     19          6           0       -8.460977   -3.216393    2.236325
     20          6           0       -6.321537   -2.068284    5.077245
     21          6           0       -7.455549   -5.067119    3.882305
     22          8           0       -7.961559   -5.998516    3.302518
     23          6           0       -6.633102   -5.363686    5.128177
     24          7           0      -10.003488   -2.662836   -0.423280
     25          6           0       -9.659210   -3.878887    0.073902
     26          6           0      -10.134846   -5.039100   -0.925116
     27          6           0      -11.125328   -4.275681   -1.909113
     28          6           0      -10.797830   -2.770727   -1.522510
     29          6           0       -9.012646   -5.785245   -1.698454
     30          6           0      -12.640302   -4.635928   -1.707304
     31          6           0      -13.267235   -5.046931   -2.972897
     32          7           0      -10.429173    0.172459   -0.961908
     33          6           0      -11.206564   -0.318713   -2.009663
     34          6           0      -11.729271    0.774124   -2.783705
     35          6           0      -11.264563    1.901866   -2.138247
     36          6           0      -10.529949    1.521051   -1.059873
     37          6           0      -12.677660    0.561836   -3.992443
     38          6           0      -11.235068    3.352508   -2.174203
     39          8           0      -11.658686    4.085884   -3.040218
     40          6           0      -10.374499    3.841356   -0.905776
     41          6           0       -9.220410    4.624356   -1.384164
     42          8           0       -8.343947    4.190846   -2.177247
     43          8           0       -9.302895    5.878756   -0.854546
     44          6           0       -8.443817    6.886735   -1.530551
     45          1           0       -6.798413    0.473835    3.896841
     46          1           0       -8.913768   -5.199238    1.417253
     47          1           0      -11.783630   -2.009735   -3.194902
     48          1           0       -8.082845    4.171073    1.300609
     49          1           0       -7.359492    2.826852    3.570114
     50          1           0       -5.817501    3.751203    1.536562
     51          1           0       -5.888304    1.990875    1.176780
     52          1           0       -5.206421    2.506997    2.622204
     53          1           0       -9.406646    3.533734    3.779895
     54          1           0      -10.645323    3.712469    2.612136
     55          1           0      -10.417210    5.783823    2.307503
     56          1           0       -8.597781    5.844621    2.482324
     57          1           0       -6.747069   -2.176491    6.075142
     58          1           0       -5.972681   -1.036411    5.073528
     59          1           0       -5.418180   -2.676891    5.107666
     60          1           0       -6.726059   -6.436811    5.290540
     61          1           0       -6.917473   -4.719492    5.960706
     62          1           0       -5.619450   -4.983385    4.998411
     63          1           0      -10.596714   -5.848541   -0.359563
     64          1           0      -10.812570   -4.479540   -2.934269
     65          1           0       -7.997122   -5.412404   -1.561041
     66          1           0       -9.164315   -5.784905   -2.778138
     67          1           0       -9.043415   -6.823262   -1.366215
     68          1           0      -13.168245   -3.739928   -1.378749
     69          1           0      -12.823753   -5.455097   -1.012332
     70          1           0      -13.312733   -6.135990   -2.998871
     71          1           0      -12.866315   -4.666985   -3.911914
     72          1           0      -14.272393   -4.628939   -3.029119
     73          1           0      -13.083842   -0.449001   -3.948925
     74          1           0      -12.200104    0.846679   -4.931061
     75          1           0      -13.510249    1.236258   -3.795809
     76          1           0      -10.973161    4.443651   -0.221971
     77          1           0       -8.659594    7.884328   -1.148357
     78          1           0       -8.795588    6.906643   -2.562266
     79          1           0       -7.414644    6.542273   -1.425517
     80         12           0        9.735036   -0.473709   -0.142890
     81          6           0        7.904328    2.502095   -0.656039
     82          6           0       12.302502    1.345968    1.189421
     83          6           0       11.603749   -3.183368   -0.331971
     84          6           0        7.225302   -2.182108   -1.978225
     85          7           0        9.986879    1.685152    0.318428
     86          6           0        9.130669    2.646848    0.035203
     87          6           0        9.534071    3.886946    0.812262
     88          6           0       11.085468    3.692506    1.019952
     89          6           0       11.167635    2.132246    0.827556
     90          6           0       11.915752    4.593475    0.028674
     91          6           0        8.841681    3.972062    2.196754
     92          6           0        8.786665    5.421196    2.853175
     93          1           0        9.411541    6.642617    2.173603
     94          7           0       11.574799   -0.907977    0.534876
     95          6           0       12.517404   -0.043457    1.148257
     96          6           0       13.694092   -0.850291    1.547678
     97          6           0       13.513854   -2.177902    1.016840
     98          6           0       12.189647   -2.184481    0.358034
     99          6           0       14.827931   -0.319912    2.352178
    100          6           0       14.401170   -3.482239    1.064783
    101          8           0       14.042047   -4.582968    0.624953
    102          6           0       15.818148   -3.360530    1.545511
    103          7           0        9.500884   -2.406810   -1.141370
    104          6           0       10.385388   -3.360944   -1.021228
    105          6           0       10.008984   -4.669001   -1.658740
    106          6           0        8.574439   -4.360835   -2.214998
    107          6           0        8.355263   -2.911884   -1.674948
    108          6           0       11.086953   -5.160577   -2.629226
    109          6           0        7.483442   -5.303169   -1.722173
    110          6           0        6.400818   -5.739605   -2.773200
    111          7           0        7.840352   -0.026007   -1.101220
    112          6           0        6.917487   -0.852840   -1.771311
    113          6           0        5.740918   -0.099391   -2.038808
    114          6           0        6.113931    1.260660   -1.794020
    115          6           0        7.347125    1.245082   -1.193133
    116          6           0        4.410119   -0.666204   -2.442711
    117          6           0        5.721180    2.688839   -1.726993
    118          8           0        4.695365    3.233152   -2.078967
    119          6           0        6.993778    3.522690   -1.224027
    120          6           0        6.564339    4.733501   -0.462047
    121          8           0        5.930003    4.752411    0.551328
    122          8           0        6.915765    5.915843   -1.139851
    123          6           0        6.023191    7.078505   -0.947555
    124          1           0       13.227565    1.870209    1.439900
    125          1           0       12.077679   -4.166494   -0.322240
    126          1           0        6.438433   -2.755140   -2.473277
    127          1           0        9.138341    4.695798    0.198141
    128          1           0       11.389135    3.946943    2.035964
    129          1           0       11.245865    5.160739   -0.616651
    130          1           0       12.382249    3.868996   -0.638902
    131          1           0       12.572690    5.317567    0.510732
    132          1           0        9.443121    3.323704    2.835249
    133          1           0        7.843751    3.549328    2.080977
    134          1           0        9.235829    5.288698    3.838627
    135          1           0        7.725999    5.603670    3.027483
    136          1           0       14.734952    0.659169    2.820749
    137          1           0       15.736149   -0.204341    1.761330
    138          1           0       14.935126   -1.048869    3.155829
    139          1           0       15.931248   -3.458330    2.625103
    140          1           0       16.047296   -2.366563    1.159330
    141          1           0       16.384598   -4.113064    0.997629
    142          1           0        9.951703   -5.328147   -0.792611
    143          1           0        8.512464   -4.359332   -3.302539
    144          1           0       11.703182   -4.363319   -3.045987
    145          1           0       10.539385   -5.601360   -3.461345
    146          1           0       11.756687   -5.893416   -2.178680
    147          1           0        6.932843   -4.865285   -0.889759
    148          1           0        8.034232   -6.103323   -1.227947
    149          1           0        6.502993   -5.184566   -3.705564
    150          1           0        5.452097   -5.469869   -2.309695
    151          1           0        6.325906   -6.792984   -3.045161
    152          1           0        4.636255   -1.350366   -3.260707
    153          1           0        3.691620    0.071684   -2.800087
    154          1           0        3.999472   -1.264908   -1.629054
    155          1           0        7.464966    3.987287   -2.089596
    156          1           0        6.594177    7.855168   -0.438545
    157          1           0        5.122775    6.821985   -0.388305
    158          1           0        5.755287    7.400384   -1.953864
 ---------------------------------------------------------------------

 SCF Done:  E(RPBE1PBE) =  -4067.38600874     A.U. after   17 cycles

 Excitation energies and oscillator strengths:

 Excited State   1:      Singlet-A      1.8885 eV  656.51 nm  f=0.0000  <S**2>=0.000
     312 -> 313        0.70708
 This state for optimization and/or second-order correction.
 Total Energy, E(TD-HF/TD-DFT) =  -4067.31660585
 Copying the excited state density for this state as the 1-particle RhoCI density.

 Excited State   2:      Singlet-A      1.8891 eV  656.31 nm  f=0.4415  <S**2>=0.000
     310 -> 315        0.18589
     312 -> 314        0.68051

 Excited State   3:      Singlet-A      1.8993 eV  652.79 nm  f=0.3010  <S**2>=0.000
     309 -> 316       -0.17314
     311 -> 313        0.68660
     311 <- 313       -0.10819

 Excited State   4:      Singlet-A      1.9709 eV  629.06 nm  f=0.0000  <S**2>=0.000
     311 -> 314        0.70707

 Excited State   5:      Singlet-A      2.1353 eV  580.65 nm  f=0.0881  <S**2>=0.000
     310 -> 314        0.65934
     312 -> 315       -0.23152

 The electronic state is 1-A.
 Alpha  occ. eigenvalues --  -46.91960 -46.90472 -19.26135 -19.24104 -19.20217
 Alpha  occ. eigenvalues --  -19.19924 -19.19869 -19.19602 -19.19227 -19.18934
 Alpha  occ. eigenvalues --  -14.41505 -14.41347 -14.41158 -14.40929 -14.39333
 Alpha  occ. eigenvalues --  -14.38816 -14.38180 -14.37936 -10.36276 -10.35734
 Alpha  occ. eigenvalues --  -10.33647 -10.33273 -10.32303 -10.32154 -10.29679
 Alpha  occ. eigenvalues --  -10.29198 -10.28827 -10.28728 -10.28245 -10.28200
 Alpha  occ. eigenvalues --  -10.28171 -10.28142 -10.28066 -10.28034 -10.28034
 Alpha  occ. eigenvalues --  -10.28029 -10.27875 -10.27797 -10.27277 -10.26880
 Alpha  occ. eigenvalues --  -10.26526 -10.26295 -10.26287 -10.25985 -10.25980
 Alpha  occ. eigenvalues --  -10.25962 -10.25883 -10.25836 -10.25700 -10.25623
 Alpha  occ. eigenvalues --  -10.25583 -10.25557 -10.25546 -10.25472 -10.25445
 Alpha  occ. eigenvalues --  -10.25411 -10.25410 -10.25364 -10.25335 -10.25313
 Alpha  occ. eigenvalues --  -10.25206 -10.25189 -10.25129 -10.24623 -10.24378
 Alpha  occ. eigenvalues --  -10.24301 -10.23952 -10.23951 -10.23936 -10.23933
 Alpha  occ. eigenvalues --  -10.23849 -10.23825 -10.23717 -10.23565 -10.23490
 Alpha  occ. eigenvalues --  -10.23397 -10.23329 -10.23317 -10.23284 -10.23281
 Alpha  occ. eigenvalues --  -10.23257 -10.22899 -10.22708 -10.22604 -10.22053
 Alpha  occ. eigenvalues --  -10.22011  -3.14004  -3.12774  -1.86857  -1.86377
 Alpha  occ. eigenvalues --   -1.86223  -1.85621  -1.85137  -1.85024  -1.10354
 Alpha  occ. eigenvalues --   -1.10108  -1.06237  -1.05038  -1.04902  -1.04622
 Alpha  occ. eigenvalues --   -1.02003  -1.00954  -0.99726  -0.99366  -0.99156
 Alpha  occ. eigenvalues --   -0.97975  -0.97071  -0.96703  -0.95847  -0.95318
 Alpha  occ. eigenvalues --   -0.86845  -0.86392  -0.83589  -0.83291  -0.83123
 Alpha  occ. eigenvalues --   -0.82817  -0.82173  -0.82033  -0.81639  -0.81517
 Alpha  occ. eigenvalues --   -0.81232  -0.80520  -0.80088  -0.80087  -0.78390
 Alpha  occ. eigenvalues --   -0.78212  -0.78146  -0.78000  -0.77039  -0.76818
 Alpha  occ. eigenvalues --   -0.76100  -0.75960  -0.75369  -0.75096  -0.74863
 Alpha  occ. eigenvalues --   -0.74259  -0.72752  -0.72346  -0.71533  -0.71483
 Alpha  occ. eigenvalues --   -0.70962  -0.70837  -0.69896  -0.69804  -0.69453
 Alpha  occ. eigenvalues --   -0.69071  -0.67221  -0.67043  -0.66185  -0.65250
 Alpha  occ. eigenvalues --   -0.64230  -0.63027  -0.62903  -0.62372  -0.61817
 Alpha  occ. eigenvalues --   -0.61802  -0.61004  -0.60763  -0.60446  -0.59796
 Alpha  occ. eigenvalues --   -0.59635  -0.59482  -0.59091  -0.58942  -0.58455
 Alpha  occ. eigenvalues --   -0.58095  -0.56384  -0.55775  -0.54685  -0.54547
 Alpha  occ. eigenvalues --   -0.54472  -0.53791  -0.53707  -0.53141  -0.52704
 Alpha  occ. eigenvalues --   -0.52587  -0.52269  -0.52242  -0.51953  -0.51535
 Alpha  occ. eigenvalues --   -0.50958  -0.50557  -0.50127  -0.50084  -0.49881
 Alpha  occ. eigenvalues --   -0.49775  -0.49317  -0.48808  -0.48303  -0.47923
 Alpha  occ. eigenvalues --   -0.47810  -0.47809  -0.47775  -0.47696  -0.47423
 Alpha  occ. eigenvalues --   -0.47160  -0.47018  -0.46819  -0.46661  -0.46341
 Alpha  occ. eigenvalues --   -0.46329  -0.46296  -0.45980  -0.45751  -0.45732
 Alpha  occ. eigenvalues --   -0.45635  -0.45386  -0.45322  -0.45073  -0.44882
 Alpha  occ. eigenvalues --   -0.44881  -0.44546  -0.44497  -0.44215  -0.44052
 Alpha  occ. eigenvalues --   -0.43910  -0.43869  -0.43748  -0.43428  -0.43211
 Alpha  occ. eigenvalues --   -0.43000  -0.42982  -0.42713  -0.42515  -0.42511
 Alpha  occ. eigenvalues --   -0.42279  -0.42198  -0.41983  -0.41802  -0.41798
 Alpha  occ. eigenvalues --   -0.41295  -0.41198  -0.41100  -0.41077  -0.41021
 Alpha  occ. eigenvalues --   -0.40946  -0.40658  -0.40436  -0.40409  -0.40334
 Alpha  occ. eigenvalues --   -0.40324  -0.39960  -0.39890  -0.39783  -0.39711
 Alpha  occ. eigenvalues --   -0.39362  -0.39302  -0.39160  -0.39093  -0.38995
 Alpha  occ. eigenvalues --   -0.38689  -0.38565  -0.38130  -0.38066  -0.38058
 Alpha  occ. eigenvalues --   -0.37995  -0.37718  -0.37557  -0.37479  -0.37427
 Alpha  occ. eigenvalues --   -0.37315  -0.37014  -0.36907  -0.36896  -0.36616
 Alpha  occ. eigenvalues --   -0.36615  -0.36573  -0.36474  -0.36323  -0.36077
 Alpha  occ. eigenvalues --   -0.35979  -0.35885  -0.35711  -0.35233  -0.35142
 Alpha  occ. eigenvalues --   -0.34936  -0.34698  -0.33995  -0.33956  -0.33713
 Alpha  occ. eigenvalues --   -0.33627  -0.33214  -0.32785  -0.32716  -0.32686
 Alpha  occ. eigenvalues --   -0.32566  -0.31582  -0.31503  -0.31237  -0.30916
 Alpha  occ. eigenvalues --   -0.30853  -0.30453  -0.29428  -0.29347  -0.29059
 Alpha  occ. eigenvalues --   -0.28973  -0.28479  -0.28421  -0.26795  -0.26691
 Alpha  occ. eigenvalues --   -0.26395  -0.26358  -0.25798  -0.25750  -0.25491
 Alpha  occ. eigenvalues --   -0.25379  -0.25005  -0.24283  -0.20782  -0.20613
 Alpha  occ. eigenvalues --   -0.18976  -0.18917
 Alpha virt. eigenvalues --   -0.11271  -0.11063  -0.05530  -0.04695  -0.04217
 Alpha virt. eigenvalues --   -0.03411  -0.01784  -0.01549  -0.00058  -0.00014
 Alpha virt. eigenvalues --    0.00216   0.00812   0.01298   0.01597   0.02116

 Mulliken charges:
               1
     1  Mg  12.000000
     2  C    6.000000
     3  C    6.000000
     4  C    6.000000
     5  C    6.000000
     6  N    7.000000
     7  C    6.000000
     8  C    6.000000
     9  C    6.000000
    10  C    6.000000
    11  C    6.000000
    12  C    6.000000
    13  C    6.000000
    14  H    1.000000
    15  N    7.000000
    16  C    6.000000
    17  C    6.000000
    18  C    6.000000
    19  C    6.000000
    20  C    6.000000
    21  C    6.000000
    22  O    8.000000
    23  C    6.000000
    24  N    7.000000
    25  C    6.000000
    26  C    6.000000
    27  C    6.000000
    28  C    6.000000
    29  C    6.000000
    30  C    6.000000
    31  C    6.000000
    32  N    7.000000
    33  C    6.000000
    34  C    6.000000
    35  C    6.000000
    36  C    6.000000
    37  C    6.000000
    38  C    6.000000
    39  O    8.000000
    40  C    6.000000
    41  C    6.000000
    42  O    8.000000
    43  O    8.000000
    44  C    6.000000
    45  H    1.000000
    46  H    1.000000
    47  H    1.000000
    48  H    1.000000
    49  H    1.000000
    50  H    1.000000
    51  H    1.000000
    52  H    1.000000
    53  H    1.000000
    54  H    1.000000
    55  H    1.000000
    56  H    1.000000
    57  H    1.000000
    58  H    1.000000
    59  H    1.000000
    60  H    1.000000
    61  H    1.000000
    62  H    1.000000
    63  H    1.000000
    64  H    1.000000
    65  H    1.000000
    66  H    1.000000
    67  H    1.000000
    68  H    1.000000
    69  H    1.000000
    70  H    1.000000
    71  H    1.000000
    72  H    1.000000
    73  H    1.000000
    74  H    1.000000
    75  H    1.000000
    76  H    1.000000
    77  H    1.000000
    78  H    1.000000
    79  H    1.000000
    80  Mg  12.000000
    81  C    6.000000
    82  C    6.000000
    83  C    6.000000
    84  C    6.000000
    85  N    7.000000
    86  C    6.000000
    87  C    6.000000
    88  C    6.000000
    89  C    6.000000
    90  C    6.000000
    91  C    6.000000
    92  C    6.000000
    93  H    1.000000
    94  N    7.000000
    95  C    6.000000
    96  C    6.000000
    97  C    6.000000
    98  C    6.000000
    99  C    6.000000
   100  C    6.000000
   101  O    8.000000
   102  C    6.000000
   103  N    7.000000
   104  C    6.000000
   105  C    6.000000
   106  C    6.000000
   107  C    6.000000
   108  C    6.000000
   109  C    6.000000
   110  C    6.000000
   111  N    7.000000
   112  C    6.000000
   113  C    6.000000
   114  C    6.000000
   115  C    6.000000
   116  C    6.000000
   117  C    6.000000
   118  O    8.000000
   119  C    6.000000
   120  C    6.000000
   121  O    8.000000
   122  O    8.000000
   123  C    6.000000
   124  H    1.000000
   125  H    1.000000
   126  H    1.000000
   127  H    1.000000
   128  H    1.000000
   129  H    1.000000
   130  H    1.000000
   131  H    1.000000
   132  H    1.000000
   133  H    1.000000
   134  H    1.000000
   135  H    1.000000
   136  H    1.000000
   137  H    1.000000
   138  H    1.000000
   139  H    1.000000
   140  H    1.000000
   141  H    1.000000
   142  H    1.000000
   143  H    1.000000
   144  H    1.000000
   145  H    1.000000
   146  H    1.000000
   147  H    1.000000
   148  H    1.000000
   149  H    1.000000
   150  H    1.000000
   151  H    1.000000
   152  H    1.000000
   153  H    1.000000
   154  H    1.000000
   155  H    1.000000
   156  H    1.000000
   157  H    1.000000
   158  H    1.000000
 Sum of Mulliken charges = 624.00000

 Dipole moment (field-independent basis, Debye):
    X=              0.0000    Y=             -0.0000    Z=              0.0000  Tot=              0.0000
 Quadrupole moment (field-independent basis, Debye-Ang):
   XX=              0.0000   YY=             -0.0000   ZZ=             -0.0000
   XY=             -0.0000   XZ=              0.0000   YZ=             -0.0000

 Normal termination of Gaussian 16 at Thu Oct 14 01:11:05 2021.
