 Gaussian 16, Revision A.03,
 Gaussian 16:  ES64L-G16RevA.03 25-Dec-2016

 --------------------------------------------------------
 #p PBE1PBE/Def2SVP td=(nstates=5) density=(transition=1)
 --------------------------------------------------------

 --------------------------------
 TDDFT excited states in gaussian
 --------------------------------
 Symbolic Z-matrix:
 Charge =  0 Multiplicity = 1

                         Standard orientation:
 ---------------------------------------------------------------------
 Center     Atomic      Atomic             Coordinates (Angstroms)
 Number     Number       Type             X           Y           Z
 ---------------------------------------------------------------------
      1         12           0      -17.330681   -0.660421    0.274894
      2          6           0      -17.389610    2.596046   -0.957778
      3          6           0      -16.592438    0.563525    3.404080
      4          6           0      -17.038156   -3.880019    1.250067
      5          6           0      -17.702204   -1.820160   -3.084672
      6          7           0      -16.928938    1.330698    1.053063
      7          6           0      -17.032153    2.519975    0.400074
      8          6           0      -16.853096    3.703390    1.359840
      9          6           0      -16.455577    2.959426    2.710704
     10          6           0      -16.695271    1.490236    2.347512
     11          6           0      -15.003892    3.212868    3.098959
     12          6           0      -18.142342    4.550101    1.654072
     13          6           0      -17.950145    5.998095    2.023251
     14          1           0      -16.625171    6.472607    2.423268
     15          7           0      -16.973882   -1.510980    2.066139
     16          6           0      -16.679121   -0.815850    3.256050
     17          6           0      -16.663386   -1.802241    4.304299
     18          6           0      -16.838730   -3.093057    3.744540
     19          6           0      -16.958812   -2.873736    2.282086
     20          6           0      -16.267110   -1.487967    5.731041
     21          6           0      -16.938871   -4.419232    4.373599
     22          8           0      -16.891130   -5.457747    3.749441
     23          6           0      -16.950827   -4.558270    5.939177
     24          7           0      -17.531032   -2.653327   -0.732533
     25          6           0      -17.341199   -3.776140   -0.106464
     26          6           0      -17.438563   -4.992599   -1.075633
     27          6           0      -17.721113   -4.374765   -2.432989
     28          6           0      -17.604533   -2.836736   -2.134158
     29          6           0      -16.138235   -5.917377   -0.944673
     30          6           0      -19.070541   -4.822021   -3.033736
     31          6           0      -19.042080   -6.019915   -4.055074
     32          7           0      -17.758480    0.115872   -1.546143
     33          6           0      -17.881498   -0.463119   -2.833630
     34          6           0      -18.143178    0.519969   -3.814637
     35          6           0      -17.866548    1.757780   -3.092502
     36          6           0      -17.679913    1.402571   -1.725961
     37          6           0      -18.236300    0.284384   -5.311118
     38          6           0      -17.745819    3.149412   -3.326986
     39          8           0      -17.894610    3.830267   -4.333946
     40          6           0      -17.495250    3.798307   -1.811365
     41          6           0      -16.264553    4.645843   -1.947868
     42          8           0      -15.160461    4.223359   -2.306950
     43          8           0      -16.527852    6.033683   -1.749292
     44          6           0      -15.348195    6.944852   -1.881363
     45          1           0      -16.357963    1.021717    4.367915
     46          1           0      -16.746416   -4.869804    1.606363
     47          1           0      -17.870148   -2.119714   -4.120919
     48          1           0      -16.027953    4.293972    0.961157
     49          1           0      -17.055346    3.277960    3.563197
     50          1           0      -14.586634    4.050766    2.541113
     51          1           0      -14.385143    2.318058    3.026108
     52          1           0      -14.880922    3.612991    4.105404
     53          1           0      -18.695259    4.039383    2.441686
     54          1           0      -18.792087    4.433238    0.786458
     55          1           0      -18.552503    6.178801    2.913265
     56          1           0      -18.274476    6.622820    1.190968
     57          1           0      -15.325047   -1.949662    6.026576
     58          1           0      -17.086934   -1.793292    6.382592
     59          1           0      -16.085968   -0.437601    5.958549
     60          1           0      -15.906985   -4.500573    6.248755
     61          1           0      -17.245611   -5.568519    6.223402
     62          1           0      -17.498800   -3.736694    6.398913
     63          1           0      -18.291938   -5.546313   -0.683714
     64          1           0      -16.899968   -4.535785   -3.129786
     65          1           0      -15.651594   -6.034070   -1.912905
     66          1           0      -16.362339   -6.947586   -0.667295
     67          1           0      -15.489162   -5.375438   -0.255611
     68          1           0      -19.474109   -3.948049   -3.546227
     69          1           0      -19.726660   -5.043041   -2.191726
     70          1           0      -18.830601   -5.606071   -5.041662
     71          1           0      -19.893049   -6.700137   -4.095280
     72          1           0      -18.127195   -6.521358   -3.741225
     73          1           0      -19.276781   -0.008005   -5.450137
     74          1           0      -17.586214   -0.530586   -5.627208
     75          1           0      -17.831308    1.068325   -5.952344
     76          1           0      -18.382433    4.362553   -1.521249
     77          1           0      -14.937349    6.925829   -2.890149
     78          1           0      -14.504521    6.802964   -1.205426
     79          1           0      -15.854776    7.898109   -1.730452
     80         12           0       17.465846   -0.591143    0.086272
     81          6           0       15.569184    2.335673    0.585590
     82          6           0       20.300810    1.269650    0.262695
     83          6           0       19.232072   -3.412754   -0.512816
     84          6           0       14.516705   -2.320619   -0.522020
     85          7           0       17.883793    1.532484    0.285902
     86          6           0       16.959915    2.535187    0.592822
     87          6           0       17.691893    3.799447    0.929615
     88          6           0       19.099493    3.535618    0.344099
     89          6           0       19.101001    1.986008    0.292181
     90          6           0       19.409495    4.108282   -1.074965
     91          6           0       17.722834    4.190576    2.455071
     92          6           0       17.384700    5.620389    2.734543
     93          1           0       18.290909    6.358204    3.737739
     94          7           0       19.442007   -0.998683    0.012428
     95          6           0       20.503680   -0.098777    0.203644
     96          6           0       21.733177   -0.783710    0.147453
     97          6           0       21.460686   -2.214139   -0.080469
     98          6           0       20.030351   -2.261507   -0.187445
     99          6           0       23.092960   -0.148848    0.163662
    100          6           0       22.411945   -3.470786   -0.292206
    101          8           0       21.952629   -4.577643   -0.445814
    102          6           0       23.925089   -3.331797   -0.204758
    103          7           0       16.942275   -2.561973   -0.551822
    104          6           0       17.876882   -3.528963   -0.741394
    105          6           0       17.175829   -4.888411   -1.221797
    106          6           0       15.635685   -4.615765   -0.928992
    107          6           0       15.677304   -3.053401   -0.648123
    108          6           0       17.418846   -5.304177   -2.699023
    109          6           0       15.054152   -5.432197    0.279689
    110          6           0       13.842041   -6.171123   -0.105627
    111          7           0       15.455398   -0.110663   -0.012841
    112          6           0       14.352232   -0.949391   -0.164301
    113          6           0       13.139231   -0.188921   -0.034028
    114          6           0       13.569003    1.095662    0.229627
    115          6           0       14.927772    1.107293    0.264008
    116          6           0       11.733964   -0.841833   -0.100994
    117          6           0       13.132209    2.459536    0.465396
    118          8           0       12.008329    2.905679    0.393811
    119          6           0       14.453854    3.349161    0.689633
    120          6           0       14.495507    4.409785   -0.333697
    121          8           0       14.494634    4.202963   -1.575600
    122          8           0       14.493312    5.618103    0.299375
    123          6           0       14.151119    6.768711   -0.578135
    124          1           0       21.164862    1.936856    0.287788
    125          1           0       19.723014   -4.362829   -0.732939
    126          1           0       13.605601   -2.860986   -0.785346
    127          1           0       17.348157    4.672746    0.373953
    128          1           0       19.908597    3.916180    0.967735
    129          1           0       18.916548    5.058173   -1.285970
    130          1           0       19.113635    3.344931   -1.795056
    131          1           0       20.465267    4.221275   -1.319969
    132          1           0       18.723942    3.923331    2.792857
    133          1           0       17.074166    3.544994    3.047868
    134          1           0       16.357281    5.524882    3.086165
    135          1           0       17.488848    6.205412    1.820851
    136          1           0       23.662991   -0.276030    1.084246
    137          1           0       22.981895    0.932570    0.095263
    138          1           0       23.798260   -0.415578   -0.622970
    139          1           0       24.314070   -4.348646   -0.240994
    140          1           0       24.224683   -2.726787    0.651492
    141          1           0       24.277446   -2.654531   -0.983290
    142          1           0       17.595270   -5.734150   -0.676672
    143          1           0       15.073140   -4.821322   -1.840919
    144          1           0       17.982030   -4.602414   -3.315087
    145          1           0       16.495348   -5.478866   -3.251614
    146          1           0       17.964171   -6.247907   -2.670697
    147          1           0       14.752652   -4.730410    1.058202
    148          1           0       15.732102   -6.179760    0.691042
    149          1           0       14.115795   -7.208904   -0.297625
    150          1           0       13.224382   -5.790872   -0.918497
    151          1           0       13.115866   -6.119609    0.705692
    152          1           0       11.837853   -1.917969    0.039748
    153          1           0       11.187190   -0.525165   -0.990352
    154          1           0       11.225213   -0.463784    0.784988
    155          1           0       14.475091    3.793529    1.685038
    156          1           0       14.035412    7.675346    0.015541
    157          1           0       13.147685    6.551521   -0.944906
    158          1           0       14.907042    6.799646   -1.363315
 ---------------------------------------------------------------------

 SCF Done:  E(RPBE1PBE) =  -4067.42698724     A.U. after   16 cycles

 Excitation energies and oscillator strengths:

 Excited State   1:      Singlet-A      1.8459 eV  671.69 nm  f=0.3587  <S**2>=0.000
     309 -> 315        0.17461
     311 -> 313        0.69230
     311 <- 313       -0.10447
 This state for optimization and/or second-order correction.
 Total Energy, E(TD-HF/TD-DFT) =  -4067.35915334
 Copying the excited state density for this state as the 1-particle RhoCI density.

 Excited State   2:      Singlet-A      1.8995 eV  652.73 nm  f=0.3782  <S**2>=0.000
     310 -> 316        0.17462
     312 -> 314        0.69183
     312 <- 314       -0.10895

 Excited State   3:      Singlet-A      1.9642 eV  631.23 nm  f=0.0000  <S**2>=0.000
     312 -> 313        0.70711

 Excited State   4:      Singlet-A      1.9946 eV  621.60 nm  f=0.0000  <S**2>=0.000
     311 -> 314        0.70710

 Excited State   5:      Singlet-A      2.2118 eV  560.55 nm  f=0.1375  <S**2>=0.000
     309 -> 313        0.66067
     311 -> 315       -0.23956

 The electronic state is 1-A.
 Alpha  occ. eigenvalues --  -46.91371 -46.90614 -19.26314 -19.24874 -19.19984
 Alpha  occ. eigenvalues --  -19.19781 -19.19736 -19.19372 -19.19145 -19.18847
 Alpha  occ. eigenvalues --  -14.42108 -14.41496 -14.41174 -14.41066 -14.39703
 Alpha  occ. eigenvalues --  -14.39182 -14.38954 -14.38322 -10.36452 -10.36157
 Alpha  occ. eigenvalues --  -10.33388 -10.32300 -10.32263 -10.31779 -10.29388
 Alpha  occ. eigenvalues --  -10.29058 -10.28973 -10.28880 -10.28774 -10.28743
 Alpha  occ. eigenvalues --  -10.28451 -10.28359 -10.28302 -10.28290 -10.28272
 Alpha  occ. eigenvalues --  -10.28190 -10.28168 -10.27420 -10.27081 -10.27018
 Alpha  occ. eigenvalues --  -10.26862 -10.26824 -10.26422 -10.26148 -10.25979
 Alpha  occ. eigenvalues --  -10.25939 -10.25848 -10.25821 -10.25778 -10.25755
 Alpha  occ. eigenvalues --  -10.25728 -10.25601 -10.25584 -10.25524 -10.25522
 Alpha  occ. eigenvalues --  -10.25475 -10.25454 -10.25446 -10.25415 -10.25380
 Alpha  occ. eigenvalues --  -10.25328 -10.25223 -10.25110 -10.24859 -10.24577
 Alpha  occ. eigenvalues --  -10.24521 -10.24470 -10.24450 -10.24098 -10.24087
 Alpha  occ. eigenvalues --  -10.24074 -10.23930 -10.23901 -10.23689 -10.23564
 Alpha  occ. eigenvalues --  -10.23521 -10.23451 -10.23437 -10.23358 -10.23354
 Alpha  occ. eigenvalues --  -10.23280 -10.23199 -10.22807 -10.22740 -10.22195
 Alpha  occ. eigenvalues --  -10.22100  -3.13643  -3.12916  -1.86497  -1.86010
 Alpha  occ. eigenvalues --   -1.85887  -1.85763  -1.85278  -1.85166  -1.10533
 Alpha  occ. eigenvalues --   -1.08234  -1.06350  -1.05536  -1.05183  -1.03713
 Alpha  occ. eigenvalues --   -1.01134  -1.00710  -0.99770  -0.99521  -0.98710
 Alpha  occ. eigenvalues --   -0.98135  -0.98117  -0.97205  -0.96818  -0.95985
 Alpha  occ. eigenvalues --   -0.86994  -0.86588  -0.83543  -0.83461  -0.83209
 Alpha  occ. eigenvalues --   -0.82939  -0.82623  -0.82304  -0.82000  -0.81717
 Alpha  occ. eigenvalues --   -0.81375  -0.80715  -0.80656  -0.80226  -0.78557
 Alpha  occ. eigenvalues --   -0.78521  -0.78122  -0.77354  -0.77190  -0.76444
 Alpha  occ. eigenvalues --   -0.76225  -0.75698  -0.75506  -0.75009  -0.74569
 Alpha  occ. eigenvalues --   -0.74271  -0.72817  -0.72482  -0.71646  -0.71631
 Alpha  occ. eigenvalues --   -0.71160  -0.71106  -0.70179  -0.70050  -0.69385
 Alpha  occ. eigenvalues --   -0.69212  -0.67624  -0.67362  -0.66026  -0.65398
 Alpha  occ. eigenvalues --   -0.63806  -0.63348  -0.63054  -0.62564  -0.62487
 Alpha  occ. eigenvalues --   -0.61970  -0.61637  -0.60901  -0.60161  -0.59952
 Alpha  occ. eigenvalues --   -0.59704  -0.59604  -0.59452  -0.59212  -0.59090
 Alpha  occ. eigenvalues --   -0.58602  -0.56546  -0.56040  -0.54837  -0.54768
 Alpha  occ. eigenvalues --   -0.54610  -0.54243  -0.53914  -0.53852  -0.53209
 Alpha  occ. eigenvalues --   -0.52727  -0.52414  -0.52394  -0.52101  -0.51851
 Alpha  occ. eigenvalues --   -0.50796  -0.50687  -0.50275  -0.50042  -0.49512
 Alpha  occ. eigenvalues --   -0.49488  -0.49188  -0.48592  -0.48413  -0.48056
 Alpha  occ. eigenvalues --   -0.47987  -0.47825  -0.47697  -0.47348  -0.47308
 Alpha  occ. eigenvalues --   -0.47182  -0.47023  -0.46810  -0.46725  -0.46639
 Alpha  occ. eigenvalues --   -0.46446  -0.46445  -0.46189  -0.45862  -0.45769
 Alpha  occ. eigenvalues --   -0.45737  -0.45468  -0.45259  -0.45002  -0.44671
 Alpha  occ. eigenvalues --   -0.44643  -0.44420  -0.44356  -0.44164  -0.44046
 Alpha  occ. eigenvalues --   -0.44001  -0.43853  -0.43814  -0.43603  -0.43560
 Alpha  occ. eigenvalues --   -0.43362  -0.43138  -0.43003  -0.42835  -0.42662
 Alpha  occ. eigenvalues --   -0.42408  -0.42345  -0.42218  -0.41944  -0.41871
 Alpha  occ. eigenvalues --   -0.41756  -0.41635  -0.41540  -0.41433  -0.41331
 Alpha  occ. eigenvalues --   -0.41172  -0.40803  -0.40572  -0.40510  -0.40469
 Alpha  occ. eigenvalues --   -0.40101  -0.39959  -0.39849  -0.39826  -0.39500
 Alpha  occ. eigenvalues --   -0.39479  -0.39455  -0.39255  -0.39222  -0.39143
 Alpha  occ. eigenvalues --   -0.38871  -0.38801  -0.38701  -0.38271  -0.38249
 Alpha  occ. eigenvalues --   -0.38167  -0.37913  -0.37860  -0.37745  -0.37645
 Alpha  occ. eigenvalues --   -0.37541  -0.37456  -0.37030  -0.37007  -0.36822
 Alpha  occ. eigenvalues --   -0.36766  -0.36724  -0.36713  -0.36467  -0.36176
 Alpha  occ. eigenvalues --   -0.36113  -0.35858  -0.35697  -0.35342  -0.35065
 Alpha  occ. eigenvalues --   -0.34895  -0.34698  -0.34403  -0.34083  -0.33782
 Alpha  occ. eigenvalues --   -0.33581  -0.33348  -0.32843  -0.32838  -0.32782
 Alpha  occ. eigenvalues --   -0.32267  -0.32023  -0.31742  -0.31399  -0.31219
 Alpha  occ. eigenvalues --   -0.31059  -0.30755  -0.29692  -0.29486  -0.29164
 Alpha  occ. eigenvalues --   -0.29129  -0.28583  -0.28550  -0.26978  -0.26939
 Alpha  occ. eigenvalues --   -0.26473  -0.26013  -0.25895  -0.25690  -0.25631
 Alpha  occ. eigenvalues --   -0.25475  -0.25142  -0.25063  -0.21086  -0.20923
 Alpha  occ. eigenvalues --   -0.19119  -0.19118
 Alpha virt. eigenvalues --   -0.11515  -0.11411  -0.05214  -0.04835  -0.03958
 Alpha virt. eigenvalues --   -0.03548  -0.02017  -0.01685  -0.00185   0.00026
 Alpha virt. eigenvalues --    0.00671   0.01159   0.01342   0.01443   0.01966

 Mulliken charges:
               1
     1  Mg  11.999330
     2  C    6.027750
     3  C    5.999017
     4  C    5.979766
     5  C    5.998467
     6  N    7.015923
     7  C    5.964821
     8  C    6.011643
     9  C    5.987955
    10  C    6.025937
    11  C    5.995930
    12  C    6.002168
    13  C    6.000335
    14  H    0.995824
    15  N    6.991132
    16  C    6.034141
    17  C    6.020430
    18  C    6.017415
    19  C    6.027422
    20  C    5.995630
    21  C    6.009521
    22  O    8.030470
    23  C    5.997982
    24  N    6.992567
    25  C    6.027342
    26  C    5.998383
    27  C    6.003850
    28  C    5.976619
    29  C    5.997513
    30  C    6.003907
    31  C    5.998764
    32  N    7.000203
    33  C    5.968687
    34  C    5.974166
    35  C    5.993884
    36  C    5.971548
    37  C    6.000214
    38  C    5.986051
    39  O    7.969082
    40  C    5.992078
    41  C    5.995705
    42  O    7.996577
    43  O    7.997860
    44  C    6.001520
    45  H    1.013546
    46  H    1.002135
    47  H    0.988007
    48  H    1.002508
    49  H    1.002756
    50  H    1.014427
    51  H    0.997961
    52  H    1.003305
    53  H    0.990489
    54  H    1.007354
    55  H    0.996788
    56  H    1.004160
    57  H    1.017834
    58  H    1.016380
    59  H    1.015858
    60  H    1.008198
    61  H    1.013703
    62  H    1.004628
    63  H    0.996220
    64  H    1.000230
    65  H    1.007472
    66  H    0.999119
    67  H    0.994184
    68  H    1.005592
    69  H    0.990107
    70  H    1.001819
    71  H    0.995233
    72  H    0.994274
    73  H    0.985260
    74  H    0.983773
    75  H    0.987214
    76  H    0.994258
    77  H    0.999611
    78  H    0.993894
    79  H    0.996178
    80  Mg  11.999986
    81  C    5.999947
    82  C    6.000131
    83  C    5.999962
    84  C    5.999852
    85  N    7.000085
    86  C    5.999957
    87  C    6.000045
    88  C    5.999952
    89  C    6.000015
    90  C    5.999965
    91  C    6.000018
    92  C    6.000009
    93  H    0.999966
    94  N    6.999959
    95  C    6.000111
    96  C    6.000050
    97  C    6.000099
    98  C    6.000158
    99  C    5.999967
   100  C    6.000005
   101  O    8.000053
   102  C    5.999970
   103  N    6.999904
   104  C    6.000091
   105  C    5.999966
   106  C    6.000022
   107  C    6.000019
   108  C    5.999989
   109  C    6.000037
   110  C    6.000028
   111  N    7.000027
   112  C    5.999867
   113  C    5.999892
   114  C    5.999956
   115  C    5.999903
   116  C    6.000048
   117  C    5.999998
   118  O    7.999943
   119  C    5.999994
   120  C    5.999999
   121  O    8.000059
   122  O    7.999976
   123  C    5.999993
   124  H    1.000026
   125  H    0.999979
   126  H    0.999995
   127  H    1.000038
   128  H    1.000000
   129  H    1.000097
   130  H    1.000040
   131  H    1.000023
   132  H    0.999940
   133  H    0.999955
   134  H    0.999982
   135  H    1.000046
   136  H    1.000034
   137  H    1.000078
   138  H    1.000082
   139  H    1.000052
   140  H    1.000002
   141  H    1.000059
   142  H    0.999964
   143  H    1.000037
   144  H    1.000036
   145  H    1.000059
   146  H    0.999994
   147  H    0.999953
   148  H    0.999924
   149  H    0.999972
   150  H    1.000046
   151  H    0.999899
   152  H    0.999880
   153  H    1.000014
   154  H    0.999853
   155  H    0.999933
   156  H    0.999978
   157  H    1.000034
   158  H    1.000023
 Sum of Mulliken charges = 624.00000

 Dipole moment (field-independent basis, Debye):
    X=              1.6443    Y=             -3.3859    Z=              9.3986  Tot=             10.1243
 Quadrupole moment (field-independent basis, Debye-Ang):
   XX=            -54.5946   YY=              1.6956   ZZ=              5.8620
   XY=             56.9151   XZ=           -162.2571   YZ=             -8.3778

 Normal termination of Gaussian 16 at Fri Oct 15 09:46:57 2021.
