 Gaussian 16, Revision A.03,
 Gaussian 16:  ES64L-G16RevA.03 25-Dec-2016

 --------------------------------------------------------
 #p PBE1PBE/Def2SVP td=(nstates=5) density=(transition=1)
 --------------------------------------------------------

 --------------------------------
 TDDFT excited states in gaussian
 --------------------------------
 Symbolic Z-matrix:
 Charge =  0 Multiplicity = 1

                         Standard orientation:
 ---------------------------------------------------------------------
 Center     Atomic      Atomic             Coordinates (Angstroms)
 Number     Number       Type             X           Y           Z
 ---------------------------------------------------------------------
      1         12           0       23.712799    0.698070   -0.137982
      2          6           0       22.683716   -2.582814   -1.027363
      3          6           0       23.735385   -0.477530    3.198104
      4          6           0       24.307092    3.746014    0.862614
      5          6           0       23.326412    1.661499   -3.457485
      6          7           0       23.242403   -1.342297    0.984150
      7          6           0       22.948273   -2.515848    0.334258
      8          6           0       22.894231   -3.716747    1.263369
      9          6           0       23.114127   -2.965483    2.645936
     10          6           0       23.423068   -1.508122    2.269999
     11          6           0       21.945778   -3.214182    3.595316
     12          6           0       24.016045   -4.722521    0.923546
     13          6           0       23.718118   -6.263082    1.073322
     14          1           0       22.538080   -6.692503    1.976604
     15          7           0       24.063685    1.523716    1.764377
     16          6           0       23.945189    0.885622    2.999408
     17          6           0       24.260235    1.865526    4.051001
     18          6           0       24.528797    3.091776    3.359709
     19          6           0       24.337547    2.776576    1.931041
     20          6           0       24.192149    1.566909    5.452672
     21          6           0       24.908809    4.448281    3.944723
     22          8           0       25.015568    5.450343    3.220000
     23          6           0       25.330921    4.571132    5.356121
     24          7           0       23.702344    2.478758   -1.142158
     25          6           0       24.082060    3.597168   -0.518564
     26          6           0       24.038823    4.823268   -1.487422
     27          6           0       23.919856    4.116264   -2.874839
     28          6           0       23.617045    2.694022   -2.520949
     29          6           0       22.922636    5.876062   -1.149470
     30          6           0       25.347116    4.252055   -3.530356
     31          6           0       26.407295    3.109724   -3.361624
     32          7           0       23.234885   -0.236236   -1.916234
     33          6           0       23.104198    0.313372   -3.204472
     34          6           0       22.642200   -0.757916   -4.121682
     35          6           0       22.423342   -1.851654   -3.292310
     36          6           0       22.801460   -1.561688   -1.998423
     37          6           0       22.227418   -0.435757   -5.476153
     38          6           0       21.841603   -3.191518   -3.312015
     39          8           0       21.337404   -3.779958   -4.261869
     40          6           0       21.958727   -3.736552   -1.811668
     41          6           0       20.627550   -4.096994   -1.265978
     42          8           0       19.899174   -3.372282   -0.594129
     43          8           0       20.329627   -5.425133   -1.625100
     44          6           0       19.065705   -6.035998   -1.280620
     45          1           0       24.005319   -0.805371    4.204535
     46          1           0       24.521376    4.784114    1.126509
     47          1           0       23.284604    2.072666   -4.467961
     48          1           0       21.932657   -4.229714    1.231598
     49          1           0       23.940624   -3.480510    3.134815
     50          1           0       22.221443   -3.626032    4.565501
     51          1           0       21.145268   -3.849560    3.216320
     52          1           0       21.537032   -2.233325    3.841720
     53          1           0       24.912176   -4.515577    1.508422
     54          1           0       24.219334   -4.445614   -0.111491
     55          1           0       24.561234   -6.766968    1.544744
     56          1           0       23.764708   -6.658664    0.058717
     57          1           0       25.151282    1.868242    5.874313
     58          1           0       23.799330    0.564394    5.619489
     59          1           0       23.354906    2.203063    5.741513
     60          1           0       24.510242    4.469084    6.066815
     61          1           0       25.743788    5.565693    5.523832
     62          1           0       25.979486    3.724704    5.580158
     63          1           0       25.017652    5.239058   -1.248326
     64          1           0       23.200801    4.615296   -3.524964
     65          1           0       23.344293    6.690285   -0.559961
     66          1           0       22.107357    5.326236   -0.680353
     67          1           0       22.574542    6.257562   -2.109215
     68          1           0       25.733576    5.254209   -3.343697
     69          1           0       25.141496    4.093562   -4.589405
     70          1           0       27.326762    3.653533   -3.146887
     71          1           0       26.561982    2.532533   -4.274141
     72          1           0       26.243985    2.420948   -2.533465
     73          1           0       21.552962    0.418683   -5.437187
     74          1           0       21.663966   -1.296337   -5.838166
     75          1           0       23.084855   -0.386022   -6.146745
     76          1           0       22.558113   -4.640717   -1.922501
     77          1           0       18.330600   -5.991949   -2.083856
     78          1           0       18.747973   -5.753576   -0.276820
     79          1           0       19.384510   -7.061739   -1.093173
     80         12           0      -23.624345    0.729655   -0.040565
     81          6           0      -21.628020   -2.049713    1.099443
     82          6           0      -25.868579   -1.642080   -1.319475
     83          6           0      -25.515820    3.242949   -0.981613
     84          6           0      -21.112951    2.913552    1.029305
     85          7           0      -23.670571   -1.630822   -0.094499
     86          6           0      -22.892100   -2.502720    0.599063
     87          6           0      -23.495757   -3.897144    0.639390
     88          6           0      -24.702663   -3.834136   -0.453559
     89          6           0      -24.745994   -2.292877   -0.663273
     90          6           0      -24.485435   -4.700791   -1.719227
     91          6           0      -23.973413   -4.308221    2.073071
     92          6           0      -23.332658   -5.618642    2.599286
     93          1           0      -24.408668   -6.827318    2.839703
     94          7           0      -25.388581    0.788026   -0.980411
     95          6           0      -26.209675   -0.273889   -1.490604
     96          6           0      -27.458896    0.202899   -2.129855
     97          6           0      -27.345011    1.621522   -1.959395
     98          6           0      -26.067632    1.925339   -1.292776
     99          6           0      -28.508426   -0.696425   -2.786115
    100          6           0      -28.258772    2.682988   -2.441642
    101          8           0      -28.248078    3.854148   -2.078288
    102          6           0      -29.413343    2.270173   -3.375590
    103          7           0      -23.415126    2.741636    0.178986
    104          6           0      -24.329167    3.602182   -0.324522
    105          6           0      -23.850567    5.027369   -0.334971
    106          6           0      -22.460790    4.970569    0.345693
    107          6           0      -22.309259    3.454096    0.601478
    108          6           0      -23.890343    5.699718   -1.691253
    109          6           0      -22.473127    5.807655    1.756438
    110          6           0      -21.322138    6.943175    1.911641
    111          7           0      -21.622050    0.506723    0.639356
    112          6           0      -20.764256    1.530410    1.108931
    113          6           0      -19.578100    0.887639    1.686011
    114          6           0      -19.969526   -0.471570    1.808557
    115          6           0      -21.134747   -0.661806    1.064216
    116          6           0      -18.254208    1.498217    2.135833
    117          6           0      -19.410770   -1.802869    2.177618
    118          8           0      -18.316546   -2.219608    2.649263
    119          6           0      -20.552928   -2.833330    1.827596
    120          6           0      -19.965844   -3.922900    0.979652
    121          8           0      -19.219668   -3.735943    0.060600
    122          8           0      -20.317686   -5.140637    1.492260
    123          6           0      -19.510647   -6.250574    0.925443
    124          1           0      -26.461580   -2.413908   -1.814122
    125          1           0      -26.096469    4.121169   -1.272513
    126          1           0      -20.332025    3.577481    1.405245
    127          1           0      -22.728330   -4.566820    0.251116
    128          1           0      -25.669492   -4.097157   -0.023579
    129          1           0      -24.383689   -4.074528   -2.606021
    130          1           0      -25.314069   -5.397874   -1.850506
    131          1           0      -23.639695   -5.387662   -1.686222
    132          1           0      -25.052314   -4.460981    2.110637
    133          1           0      -23.729268   -3.544812    2.812267
    134          1           0      -22.950406   -5.529736    3.616517
    135          1           0      -22.474612   -5.976955    2.031410
    136          1           0      -28.487507   -1.755095   -2.525580
    137          1           0      -28.565076   -0.635713   -3.872902
    138          1           0      -29.464470   -0.314943   -2.426156
    139          1           0      -29.020729    1.844703   -4.299091
    140          1           0      -30.096391    3.095199   -3.580579
    141          1           0      -29.997908    1.506073   -2.863234
    142          1           0      -24.562936    5.623538    0.236906
    143          1           0      -21.674985    5.305896   -0.330547
    144          1           0      -24.680733    6.445046   -1.784117
    145          1           0      -24.108156    5.037857   -2.529386
    146          1           0      -22.911496    6.144238   -1.872333
    147          1           0      -22.382140    5.181716    2.643546
    148          1           0      -23.407359    6.346147    1.913414
    149          1           0      -21.007552    7.177209    0.894413
    150          1           0      -20.483711    6.591999    2.514561
    151          1           0      -21.738459    7.884245    2.270087
    152          1           0      -17.813978    0.956024    2.972461
    153          1           0      -18.478415    2.474828    2.566436
    154          1           0      -17.699379    1.610377    1.204226
    155          1           0      -20.817623   -3.307438    2.772380
    156          1           0      -19.593195   -6.189711   -0.159552
    157          1           0      -20.059073   -7.141571    1.230752
    158          1           0      -18.443351   -6.297671    1.141515
 ---------------------------------------------------------------------

 SCF Done:  E(RPBE1PBE) =  -4067.36742735     A.U. after   16 cycles

 Excitation energies and oscillator strengths:

 Excited State   1:      Singlet-A      1.8271 eV  678.59 nm  f=0.3545  <S**2>=0.000
     309 -> 315        0.18303
     311 -> 313        0.69140
     311 <- 313       -0.10666
 This state for optimization and/or second-order correction.
 Total Energy, E(TD-HF/TD-DFT) =  -4067.30028313
 Copying the excited state density for this state as the 1-particle RhoCI density.

 Excited State   2:      Singlet-A      1.8360 eV  675.31 nm  f=0.0000  <S**2>=0.000
     312 -> 313        0.70711

 Excited State   3:      Singlet-A      1.8853 eV  657.63 nm  f=0.3626  <S**2>=0.000
     310 -> 316        0.18510
     312 -> 314        0.68868
     312 <- 314       -0.10056

 Excited State   4:      Singlet-A      2.1705 eV  571.23 nm  f=0.0000  <S**2>=0.000
     311 -> 314        0.70711

 Excited State   5:      Singlet-A      2.1728 eV  570.63 nm  f=0.1314  <S**2>=0.000
     309 -> 313        0.65738
     311 -> 315       -0.25557

 The electronic state is 1-A.
 Alpha  occ. eigenvalues --  -46.91962 -46.91890 -19.26288 -19.24625 -19.20055
 Alpha  occ. eigenvalues --  -19.19952 -19.19631 -19.19052 -19.19032 -19.18791
 Alpha  occ. eigenvalues --  -14.41949 -14.41586 -14.41417 -14.40958 -14.40302
 Alpha  occ. eigenvalues --  -14.39181 -14.39008 -14.38694 -10.36429 -10.35837
 Alpha  occ. eigenvalues --  -10.32612 -10.32424 -10.32233 -10.32108 -10.29443
 Alpha  occ. eigenvalues --  -10.29140 -10.29085 -10.29078 -10.29036 -10.28686
 Alpha  occ. eigenvalues --  -10.28664 -10.28526 -10.28477 -10.28374 -10.28086
 Alpha  occ. eigenvalues --  -10.28082 -10.28005 -10.27935 -10.27840 -10.27749
 Alpha  occ. eigenvalues --  -10.27114 -10.26867 -10.26841 -10.26793 -10.26727
 Alpha  occ. eigenvalues --  -10.26513 -10.26442 -10.26419 -10.26392 -10.26330
 Alpha  occ. eigenvalues --  -10.26147 -10.25911 -10.25792 -10.25779 -10.25670
 Alpha  occ. eigenvalues --  -10.25606 -10.25458 -10.25454 -10.25100 -10.25085
 Alpha  occ. eigenvalues --  -10.24998 -10.24998 -10.24990 -10.24963 -10.24955
 Alpha  occ. eigenvalues --  -10.24933 -10.24750 -10.24642 -10.24546 -10.24412
 Alpha  occ. eigenvalues --  -10.24232 -10.24107 -10.23994 -10.23907 -10.23676
 Alpha  occ. eigenvalues --  -10.23629 -10.23428 -10.23231 -10.23213 -10.23113
 Alpha  occ. eigenvalues --  -10.23081 -10.22988 -10.22752 -10.22706 -10.22673
 Alpha  occ. eigenvalues --  -10.22545  -3.14181  -3.14014  -1.87020  -1.86863
 Alpha  occ. eigenvalues --   -1.86555  -1.86426  -1.86402  -1.86224  -1.11720
 Alpha  occ. eigenvalues --   -1.09363  -1.04560  -1.04482  -1.03747  -1.03503
 Alpha  occ. eigenvalues --   -1.02029  -1.01888  -0.99257  -0.98653  -0.98573
 Alpha  occ. eigenvalues --   -0.97848  -0.97744  -0.97247  -0.96624  -0.96162
 Alpha  occ. eigenvalues --   -0.86355  -0.85940  -0.83934  -0.82894  -0.82893
 Alpha  occ. eigenvalues --   -0.82763  -0.82712  -0.82327  -0.81710  -0.81570
 Alpha  occ. eigenvalues --   -0.81235  -0.81096  -0.80612  -0.80077  -0.78313
 Alpha  occ. eigenvalues --   -0.78239  -0.77595  -0.77478  -0.76660  -0.76233
 Alpha  occ. eigenvalues --   -0.76073  -0.75488  -0.75169  -0.75000  -0.74793
 Alpha  occ. eigenvalues --   -0.73970  -0.73256  -0.73067  -0.71470  -0.71446
 Alpha  occ. eigenvalues --   -0.71177  -0.71107  -0.70321  -0.70066  -0.69584
 Alpha  occ. eigenvalues --   -0.69110  -0.67036  -0.66610  -0.65847  -0.65741
 Alpha  occ. eigenvalues --   -0.63632  -0.63486  -0.63183  -0.63155  -0.62335
 Alpha  occ. eigenvalues --   -0.61962  -0.61515  -0.61019  -0.60373  -0.60016
 Alpha  occ. eigenvalues --   -0.59323  -0.59171  -0.58989  -0.58980  -0.58749
 Alpha  occ. eigenvalues --   -0.58558  -0.56947  -0.56096  -0.55281  -0.54743
 Alpha  occ. eigenvalues --   -0.53906  -0.53859  -0.53555  -0.53316  -0.52951
 Alpha  occ. eigenvalues --   -0.52555  -0.52470  -0.52433  -0.51731  -0.51730
 Alpha  occ. eigenvalues --   -0.50801  -0.50689  -0.50049  -0.49872  -0.49765
 Alpha  occ. eigenvalues --   -0.49474  -0.49064  -0.48788  -0.48403  -0.48391
 Alpha  occ. eigenvalues --   -0.48168  -0.47959  -0.47786  -0.47685  -0.47331
 Alpha  occ. eigenvalues --   -0.47273  -0.46895  -0.46877  -0.46655  -0.46303
 Alpha  occ. eigenvalues --   -0.46274  -0.46142  -0.46044  -0.45994  -0.45951
 Alpha  occ. eigenvalues --   -0.45455  -0.45308  -0.45128  -0.45082  -0.44700
 Alpha  occ. eigenvalues --   -0.44533  -0.44439  -0.44356  -0.44290  -0.44062
 Alpha  occ. eigenvalues --   -0.43899  -0.43721  -0.43641  -0.43433  -0.43271
 Alpha  occ. eigenvalues --   -0.43092  -0.42956  -0.42949  -0.42795  -0.42664
 Alpha  occ. eigenvalues --   -0.42636  -0.42266  -0.42207  -0.42064  -0.42039
 Alpha  occ. eigenvalues --   -0.41695  -0.41612  -0.41574  -0.41254  -0.41210
 Alpha  occ. eigenvalues --   -0.40924  -0.40884  -0.40728  -0.40720  -0.40327
 Alpha  occ. eigenvalues --   -0.40178  -0.39737  -0.39704  -0.39640  -0.39511
 Alpha  occ. eigenvalues --   -0.39377  -0.39241  -0.39041  -0.38947  -0.38894
 Alpha  occ. eigenvalues --   -0.38784  -0.38743  -0.38735  -0.38458  -0.38456
 Alpha  occ. eigenvalues --   -0.38205  -0.38133  -0.38100  -0.37729  -0.37688
 Alpha  occ. eigenvalues --   -0.37487  -0.37447  -0.37091  -0.36786  -0.36764
 Alpha  occ. eigenvalues --   -0.36633  -0.36390  -0.36144  -0.36032  -0.35892
 Alpha  occ. eigenvalues --   -0.35677  -0.35591  -0.35389  -0.35361  -0.35185
 Alpha  occ. eigenvalues --   -0.35132  -0.34792  -0.34460  -0.34197  -0.33562
 Alpha  occ. eigenvalues --   -0.33428  -0.33242  -0.32690  -0.32506  -0.32397
 Alpha  occ. eigenvalues --   -0.32245  -0.32124  -0.31685  -0.31446  -0.31012
 Alpha  occ. eigenvalues --   -0.30712  -0.30638  -0.29749  -0.29360  -0.29264
 Alpha  occ. eigenvalues --   -0.29048  -0.28665  -0.28579  -0.27131  -0.26585
 Alpha  occ. eigenvalues --   -0.25992  -0.25829  -0.25753  -0.25688  -0.25650
 Alpha  occ. eigenvalues --   -0.25561  -0.25090  -0.25007  -0.20840  -0.20749
 Alpha  occ. eigenvalues --   -0.18917  -0.18421
 Alpha virt. eigenvalues --   -0.11394  -0.10658  -0.05312  -0.05144  -0.04066
 Alpha virt. eigenvalues --   -0.03960  -0.02371  -0.02165  -0.00000   0.00280
 Alpha virt. eigenvalues --    0.00559   0.00704   0.01015   0.01105   0.01293

 Mulliken charges:
               1
     1  Mg  12.000007
     2  C    5.999939
     3  C    6.000076
     4  C    6.000020
     5  C    5.999990
     6  N    6.999953
     7  C    6.000076
     8  C    6.000000
     9  C    6.000001
    10  C    5.999984
    11  C    5.999978
    12  C    6.000009
    13  C    5.999993
    14  H    1.000048
    15  N    7.000021
    16  C    5.999944
    17  C    5.999988
    18  C    6.000005
    19  C    5.999989
    20  C    5.999981
    21  C    6.000020
    22  O    7.999998
    23  C    5.999993
    24  N    7.000048
    25  C    5.999941
    26  C    5.999992
    27  C    6.000006
    28  C    5.999982
    29  C    6.000011
    30  C    6.000016
    31  C    6.000008
    32  N    6.999939
    33  C    6.000034
    34  C    5.999995
    35  C    6.000072
    36  C    6.000029
    37  C    5.999981
    38  C    5.999981
    39  O    8.000002
    40  C    6.000023
    41  C    6.000008
    42  O    8.000038
    43  O    7.999986
    44  C    5.999996
    45  H    0.999996
    46  H    0.999992
    47  H    0.999973
    48  H    1.000032
    49  H    0.999979
    50  H    1.000004
    51  H    1.000048
    52  H    1.000032
    53  H    0.999965
    54  H    0.999983
    55  H    0.999969
    56  H    0.999988
    57  H    0.999984
    58  H    1.000028
    59  H    1.000050
    60  H    1.000032
    61  H    0.999987
    62  H    0.999978
    63  H    0.999966
    64  H    1.000008
    65  H    0.999983
    66  H    1.000041
    67  H    1.000005
    68  H    0.999969
    69  H    0.999984
    70  H    0.999957
    71  H    0.999979
    72  H    1.000013
    73  H    1.000016
    74  H    0.999999
    75  H    0.999941
    76  H    0.999976
    77  H    1.000032
    78  H    1.000032
    79  H    0.999980
    80  Mg  11.996052
    81  C    6.024654
    82  C    6.002860
    83  C    5.971074
    84  C    6.002409
    85  N    7.017550
    86  C    5.967925
    87  C    6.009613
    88  C    5.988887
    89  C    6.027008
    90  C    5.997635
    91  C    6.001195
    92  C    6.001938
    93  H    0.993605
    94  N    6.997135
    95  C    6.030372
    96  C    6.024005
    97  C    6.013095
    98  C    6.025524
    99  C    5.996764
   100  C    6.012033
   101  O    8.030967
   102  C    5.996177
   103  N    6.991086
   104  C    6.036009
   105  C    5.991563
   106  C    6.010596
   107  C    5.971460
   108  C    5.999384
   109  C    6.004513
   110  C    6.000681
   111  N    7.001782
   112  C    5.963324
   113  C    5.969261
   114  C    5.997899
   115  C    5.971591
   116  C    5.998598
   117  C    5.988405
   118  O    7.970822
   119  C    5.996277
   120  C    5.992990
   121  O    8.000115
   122  O    7.998254
   123  C    6.001692
   124  H    1.012915
   125  H    1.001647
   126  H    0.987761
   127  H    1.002484
   128  H    1.000758
   129  H    0.999465
   130  H    1.003393
   131  H    1.012806
   132  H    0.992036
   133  H    1.004601
   134  H    1.003016
   135  H    1.001895
   136  H    1.014586
   137  H    1.018169
   138  H    1.014760
   139  H    1.007272
   140  H    1.013595
   141  H    1.004971
   142  H    0.998257
   143  H    0.996672
   144  H    0.997289
   145  H    0.994511
   146  H    1.008648
   147  H    1.000777
   148  H    0.988414
   149  H    0.996287
   150  H    1.002476
   151  H    0.993944
   152  H    0.986136
   153  H    0.985084
   154  H    0.984185
   155  H    0.995529
   156  H    0.995680
   157  H    0.995259
   158  H    0.999940
 Sum of Mulliken charges = 624.00000

 Dipole moment (field-independent basis, Debye):
    X=             -8.9762    Y=             -0.5487    Z=             -4.6326  Tot=             10.1160
 Quadrupole moment (field-independent basis, Debye-Ang):
   XX=            423.1921   YY=             -3.2830   ZZ=              1.9353
   XY=              7.0943   XZ=            111.9327   YZ=             -2.1802

 Normal termination of Gaussian 16 at Thu Oct 14 12:28:03 2021.
