 Gaussian 16, Revision A.03,
 Gaussian 16:  ES64L-G16RevA.03 25-Dec-2016

 --------------------------------------------------------
 #p PBE1PBE/Def2SVP td=(nstates=5) density=(transition=1)
 --------------------------------------------------------

 --------------------------------
 TDDFT excited states in gaussian
 --------------------------------
 Symbolic Z-matrix:
 Charge =  0 Multiplicity = 1

                         Standard orientation:
 ---------------------------------------------------------------------
 Center     Atomic      Atomic             Coordinates (Angstroms)
 Number     Number       Type             X           Y           Z
 ---------------------------------------------------------------------
      1         12           0       -0.767131    0.041376   -0.025374
      2          6           0        2.733754    0.223436    0.048262
      3          6           0       -0.489085   -3.390371   -0.022642
      4          6           0       -4.062645   -0.103914   -0.126168
      5          6           0       -0.848606    3.550102   -0.183181
      6          7           0        0.949926   -1.353096    0.095432
      7          6           0        2.320690   -1.094220    0.097071
      8          6           0        3.193508   -2.353992    0.477626
      9          6           0        2.142512   -3.429997    0.284427
     10          6           0        0.752369   -2.689343    0.112148
     11          6           0        2.408158   -4.244138   -1.063855
     12          6           0        3.510582   -2.149992    2.025485
     13          6           0        4.982963   -2.503652    2.516523
     14          1           0        5.527291   -3.650106    1.703247
     15          7           0       -2.038529   -1.492968   -0.213205
     16          6           0       -1.771749   -2.795984   -0.204053
     17          6           0       -2.959592   -3.605323   -0.272432
     18          6           0       -4.027378   -2.698477   -0.121954
     19          6           0       -3.395908   -1.328009   -0.208058
     20          6           0       -3.005745   -5.085318   -0.382841
     21          6           0       -5.493938   -2.945527    0.165857
     22          8           0       -6.268052   -2.050325    0.523298
     23          6           0       -6.099131   -4.328970   -0.087953
     24          7           0       -2.247432    1.552597   -0.189899
     25          6           0       -3.563381    1.158198   -0.133497
     26          6           0       -4.436831    2.406213   -0.024339
     27          6           0       -3.391322    3.620747    0.081142
     28          6           0       -2.073118    2.902681   -0.041571
     29          6           0       -5.473209    2.435555   -1.202763
     30          6           0       -3.505687    4.523904    1.299189
     31          6           0       -3.598408    6.042211    0.949447
     32          7           0        0.642972    1.570434   -0.084260
     33          6           0        0.459443    2.986256   -0.170281
     34          6           0        1.715654    3.644875   -0.221643
     35          6           0        2.626881    2.578936   -0.134061
     36          6           0        1.913614    1.362591   -0.105830
     37          6           0        2.053467    5.099315   -0.291808
     38          6           0        4.011214    2.233637   -0.076147
     39          8           0        5.024376    2.890639   -0.127102
     40          6           0        4.106684    0.698930    0.154795
     41          6           0        5.094059    0.129196   -0.797807
     42          8           0        4.973964   -0.002901   -2.012534
     43          8           0        6.140993   -0.276162   -0.072542
     44          6           0        7.209076   -0.949067   -0.781595
     45          1           0       -0.551698   -4.472172    0.111448
     46          1           0       -5.148384   -0.220870   -0.169953
     47          1           0       -0.827433    4.641857   -0.168746
     48          1           0        4.097954   -2.258616   -0.122397
     49          1           0        2.101829   -4.077847    1.159422
     50          1           0        3.271846   -3.868816   -1.613096
     51          1           0        1.522796   -4.159672   -1.693719
     52          1           0        2.545040   -5.271903   -0.727423
     53          1           0        2.868430   -2.740578    2.678229
     54          1           0        3.272028   -1.109453    2.247192
     55          1           0        4.957822   -2.953232    3.509238
     56          1           0        5.577745   -1.604346    2.678549
     57          1           0       -3.404242   -5.453777    0.563412
     58          1           0       -2.009380   -5.506783   -0.508482
     59          1           0       -3.636011   -5.439041   -1.198232
     60          1           0       -7.152870   -4.056955   -0.144650
     61          1           0       -5.875575   -5.060160    0.689787
     62          1           0       -5.902583   -4.790998   -1.055238
     63          1           0       -5.071863    2.462186    0.859754
     64          1           0       -3.502444    4.244617   -0.805823
     65          1           0       -6.428945    2.692447   -0.745813
     66          1           0       -5.519502    1.509308   -1.775584
     67          1           0       -5.342631    3.324001   -1.821720
     68          1           0       -2.705345    4.397636    2.027629
     69          1           0       -4.500399    4.307825    1.691564
     70          1           0       -3.683568    6.185217   -0.127894
     71          1           0       -2.661360    6.560060    1.153069
     72          1           0       -4.452923    6.510281    1.438569
     73          1           0        1.835240    5.415652    0.728571
     74          1           0        1.441249    5.521581   -1.088363
     75          1           0        3.115463    5.273666   -0.458810
     76          1           0        4.572568    0.627075    1.138497
     77          1           0        7.552805   -0.330290   -1.610960
     78          1           0        6.957741   -1.891370   -1.269586
     79          1           0        8.012731   -1.084629   -0.057586
 ---------------------------------------------------------------------

 SCF Done:  E(RPBE1PBE) =  -2033.71320579     A.U. after   16 cycles

 Excitation energies and oscillator strengths:

 Excited State   1:      Singlet-A      1.8615 eV  666.05 nm  f=0.3660  <S**2>=0.000
     155 ->158        -0.15500
     156 ->157         0.69395
     156 <-157        -0.10803
 This state for optimization and/or second-order correction.
 Total Energy, E(TD-HF/TD-DFT) =  -2033.64479716
 Copying the excited state density for this state as the 1-particle RhoCI density.

 Excited State   2:      Singlet-A      2.2777 eV  544.34 nm  f=0.1213  <S**2>=0.000
     155 ->157         0.64782
     156 ->158         0.25230
     156 ->159         0.10941

 Excited State   3:      Singlet-A      2.8476 eV  435.41 nm  f=0.0001  <S**2>=0.000
     154 ->157         0.68102
     154 ->160         0.10843

 Excited State   4:      Singlet-A      3.1181 eV  397.62 nm  f=0.0001  <S**2>=0.000
     153 ->157         0.68394
     156 ->158        -0.12003

 Excited State   5:      Singlet-A      3.2323 eV  383.58 nm  f=0.1643  <S**2>=0.000
     150 ->157        -0.18523
     151 ->157         0.30811
     151 ->158        -0.10498
     152 ->157         0.20317
     155 ->157        -0.16705
     156 ->158         0.48080
     156 ->159        -0.14679

 The electronic state is 1-A.
 Alpha  occ. eigenvalues --  -46.91159 -19.25969 -19.19900 -19.19123 -19.17888
 Alpha  occ. eigenvalues --  -14.41768 -14.41128 -14.39700 -14.38253 -10.35409
 Alpha  occ. eigenvalues --  -10.33131 -10.30512 -10.29433 -10.28634 -10.28434
 Alpha  occ. eigenvalues --  -10.28387 -10.28214 -10.28078 -10.27941 -10.27017
 Alpha  occ. eigenvalues --  -10.26553 -10.26355 -10.26284 -10.26076 -10.25394
 Alpha  occ. eigenvalues --  -10.25386 -10.25360 -10.25125 -10.25057 -10.25022
 Alpha  occ. eigenvalues --  -10.24981 -10.24823 -10.24423 -10.24405 -10.23932
 Alpha  occ. eigenvalues --  -10.23907 -10.23721 -10.23456 -10.23415 -10.23406
 Alpha  occ. eigenvalues --  -10.23179 -10.22936 -10.21631  -3.13445  -1.86298
 Alpha  occ. eigenvalues --   -1.85800  -1.85700  -1.11972  -1.04840  -1.04349
 Alpha  occ. eigenvalues --   -1.01979  -0.99447  -0.98741  -0.97512  -0.97004
 Alpha  occ. eigenvalues --   -0.87162  -0.83834  -0.82688  -0.82677  -0.82232
 Alpha  occ. eigenvalues --   -0.81541  -0.80939  -0.78281  -0.77843  -0.76553
 Alpha  occ. eigenvalues --   -0.75980  -0.75542  -0.74676  -0.73036  -0.71821
 Alpha  occ. eigenvalues --   -0.71119  -0.69941  -0.69307  -0.67602  -0.65815
 Alpha  occ. eigenvalues --   -0.63469  -0.63243  -0.62062  -0.61786  -0.59805
 Alpha  occ. eigenvalues --   -0.59717  -0.59560  -0.59092  -0.57100  -0.55204
 Alpha  occ. eigenvalues --   -0.54188  -0.53709  -0.53218  -0.52353  -0.51889
 Alpha  occ. eigenvalues --   -0.51169  -0.50214  -0.49865  -0.49031  -0.48448
 Alpha  occ. eigenvalues --   -0.48040  -0.47441  -0.47212  -0.47081  -0.46735
 Alpha  occ. eigenvalues --   -0.46408  -0.45966  -0.45511  -0.45264  -0.45121
 Alpha  occ. eigenvalues --   -0.44880  -0.44565  -0.44248  -0.43822  -0.43297
 Alpha  occ. eigenvalues --   -0.43053  -0.42863  -0.42583  -0.42351  -0.42188
 Alpha  occ. eigenvalues --   -0.41891  -0.41529  -0.41336  -0.41051  -0.40798
 Alpha  occ. eigenvalues --   -0.40059  -0.39895  -0.39524  -0.39300  -0.39289
 Alpha  occ. eigenvalues --   -0.39066  -0.38549  -0.38197  -0.37899  -0.37557
 Alpha  occ. eigenvalues --   -0.37432  -0.37257  -0.36784  -0.36494  -0.35990
 Alpha  occ. eigenvalues --   -0.35659  -0.35374  -0.35005  -0.34658  -0.33716
 Alpha  occ. eigenvalues --   -0.33290  -0.32650  -0.32413  -0.31951  -0.31494
 Alpha  occ. eigenvalues --   -0.31340  -0.29472  -0.29022  -0.28164  -0.27199
 Alpha  occ. eigenvalues --   -0.26464  -0.26385  -0.25300  -0.24613  -0.21015
 Alpha  occ. eigenvalues --   -0.18680
 Alpha virt. eigenvalues --   -0.11062  -0.05320  -0.03537  -0.01619   0.00549
 Alpha virt. eigenvalues --    0.01443   0.01759   0.01982   0.03240   0.03901
 Alpha virt. eigenvalues --    0.04697   0.05542   0.05884   0.06585   0.06973

 Mulliken charges:
               1
     1  Mg  11.996801
     2  C    6.025932
     3  C    6.003565
     4  C    5.975285
     5  C    5.997554
     6  N    7.018024
     7  C    5.966280
     8  C    6.003914
     9  C    5.997450
    10  C    6.020397
    11  C    5.996634
    12  C    6.000605
    13  C    6.003198
    14  H    0.994032
    15  N    6.994177
    16  C    6.028975
    17  C    6.025246
    18  C    6.009423
    19  C    6.037895
    20  C    5.995313
    21  C    6.013104
    22  O    8.029031
    23  C    5.993942
    24  N    6.992734
    25  C    6.031208
    26  C    5.988959
    27  C    6.011739
    28  C    5.972084
    29  C    5.996631
    30  C    6.007021
    31  C    6.000276
    32  N    6.999166
    33  C    5.966254
    34  C    5.976100
    35  C    5.997141
    36  C    5.970306
    37  C    5.997809
    38  C    5.982442
    39  O    7.968813
    40  C    5.995591
    41  C    5.997128
    42  O    7.994266
    43  O    7.998978
    44  C    6.001846
    45  H    1.012408
    46  H    1.002028
    47  H    0.986225
    48  H    1.003615
    49  H    1.002231
    50  H    1.013757
    51  H    0.995482
    52  H    1.003467
    53  H    0.989430
    54  H    1.006844
    55  H    0.996780
    56  H    1.004245
    57  H    1.018333
    58  H    1.015479
    59  H    1.017836
    60  H    1.013055
    61  H    1.008144
    62  H    1.007698
    63  H    1.000816
    64  H    0.996947
    65  H    1.001916
    66  H    0.993433
    67  H    1.008768
    68  H    1.000555
    69  H    0.987801
    70  H    0.997918
    71  H    1.003232
    72  H    0.993896
    73  H    0.985073
    74  H    0.986149
    75  H    0.988055
    76  H    0.995797
    77  H    0.999344
    78  H    0.993380
    79  H    0.996596
 Sum of Mulliken charges = 312.00000

 Dipole moment (field-independent basis, Debye):
    X=             -6.2126    Y=             -8.0680    Z=             -0.0902  Tot=             10.1832
 Quadrupole moment (field-independent basis, Debye-Ang):
   XX=              6.8600   YY=              0.3569   ZZ=             -0.2760
   XY=              7.9325   XZ=              1.1071   YZ=              1.2801

 Normal termination of Gaussian 16 at Wed Oct 13 19:43:16 2021.
