 Gaussian 16, Revision A.03,
 Gaussian 16:  ES64L-G16RevA.03 25-Dec-2016

 --------------------------------------------------------
 #p PBE1PBE/Def2SVP td=(nstates=5) density=(transition=1)
 --------------------------------------------------------

 --------------------------------
 TDDFT excited states in gaussian
 --------------------------------
 Symbolic Z-matrix:
 Charge =  0 Multiplicity = 1

                         Standard orientation:
 ---------------------------------------------------------------------
 Center     Atomic      Atomic             Coordinates (Angstroms)
 Number     Number       Type             X           Y           Z
 ---------------------------------------------------------------------
      1         12           0       18.485354   -0.232968    0.452024
      2          6           0       15.329255   -1.872402    0.283401
      3          6           0       19.239949   -1.418602   -2.671693
      4          6           0       21.011182    2.176269    0.201374
      5          6           0       17.401999    1.406841    3.365069
      6          7           0       17.174873   -1.347239   -1.126874
      7          6           0       16.080502   -2.091258   -0.897668
      8          6           0       15.975266   -3.170569   -1.959543
      9          6           0       17.204381   -2.995431   -2.975188
     10          6           0       18.003418   -1.914541   -2.085365
     11          6           0       17.933133   -4.351051   -3.112999
     12          6           0       14.632619   -3.102850   -2.669331
     13          6           0       14.059876   -1.692737   -2.947422
     14          1           0       14.092858   -1.200727   -4.420215
     15          7           0       20.016745    0.263461   -1.018436
     16          6           0       20.095445   -0.373301   -2.237874
     17          6           0       21.306021    0.090558   -2.839800
     18          6           0       21.831224    1.216619   -2.098325
     19          6           0       20.991264    1.257184   -0.874560
     20          6           0       21.771090   -0.378005   -4.199162
     21          6           0       22.895191    2.221098   -2.543735
     22          8           0       23.380273    2.140651   -3.655820
     23          6           0       23.362412    3.294225   -1.718212
     24          7           0       19.065132    1.602606    1.552699
     25          6           0       20.183488    2.276637    1.328727
     26          6           0       20.396703    3.429630    2.296027
     27          6           0       19.015497    3.376037    3.080250
     28          6           0       18.473879    2.040710    2.716593
     29          6           0       21.675818    3.249300    3.250810
     30          6           0       18.106008    4.632879    2.697643
     31          6           0       17.816825    5.702505    3.712428
     32          7           0       16.915704   -0.380520    1.698555
     33          6           0       16.664730    0.265830    2.926047
     34          6           0       15.451764   -0.280267    3.562860
     35          6           0       14.960538   -1.112252    2.556950
     36          6           0       15.780090   -1.080860    1.374944
     37          6           0       14.913520   -0.083014    5.022088
     38          6           0       13.835038   -2.002536    2.255252
     39          8           0       12.843313   -2.368838    2.907334
     40          6           0       14.021633   -2.544663    0.799750
     41          6           0       12.806473   -1.967411    0.159753
     42          8           0       12.535939   -0.794880    0.110986
     43          8           0       11.994737   -2.942317   -0.239446
     44          6           0       10.739684   -2.595586   -0.993469
     45          1           0       19.614669   -2.014291   -3.506496
     46          1           0       21.789879    2.936590    0.288626
     47          1           0       17.109644    2.050046    4.198336
     48          1           0       16.026298   -4.039878   -1.303911
     49          1           0       16.893678   -2.606288   -3.945158
     50          1           0       17.898675   -4.648974   -4.160737
     51          1           0       17.478495   -5.168577   -2.552890
     52          1           0       18.968097   -4.160912   -2.830020
     53          1           0       13.884283   -3.637249   -2.084021
     54          1           0       14.699541   -3.557762   -3.658030
     55          1           0       14.579766   -0.839251   -2.512469
     56          1           0       13.032823   -1.742855   -2.585643
     57          1           0       21.058708   -1.064581   -4.657289
     58          1           0       22.780896   -0.773023   -4.082845
     59          1           0       21.932134    0.510527   -4.808629
     60          1           0       22.616653    4.047452   -1.463152
     61          1           0       24.171812    3.814902   -2.229584
     62          1           0       23.667360    2.778464   -0.807020
     63          1           0       20.415809    4.410203    1.821083
     64          1           0       19.346165    3.582394    4.098336
     65          1           0       22.209432    2.339195    2.975275
     66          1           0       21.301884    3.118685    4.266474
     67          1           0       22.362488    4.095990    3.296442
     68          1           0       17.083763    4.326882    2.474898
     69          1           0       18.502885    5.151015    1.825722
     70          1           0       16.828902    5.624961    4.166477
     71          1           0       17.869323    6.579464    3.066384
     72          1           0       18.627209    5.900242    4.414248
     73          1           0       14.465834    0.908910    5.077025
     74          1           0       15.754988   -0.241663    5.696722
     75          1           0       14.103320   -0.793027    5.187102
     76          1           0       14.058629   -3.631077    0.887989
     77          1           0        9.905492   -2.350102   -0.335836
     78          1           0       10.424584   -3.420312   -1.634013
     79          1           0       11.019969   -1.748883   -1.620049
     80         12           0      -17.973666    0.800111   -0.045901
     81          6           0      -15.322737   -1.545489    0.245555
     82          6           0      -19.927649   -1.557738    1.724556
     83          6           0      -20.587198    2.687430   -0.547718
     84          6           0      -15.916978    2.799524   -2.012871
     85          7           0      -17.656421   -1.359769    0.891020
     86          6           0      -16.441065   -1.997897    0.933418
     87          6           0      -16.461539   -3.268778    1.765746
     88          6           0      -18.009833   -3.303006    2.120513
     89          6           0      -18.576899   -1.978836    1.586018
     90          6           0      -18.655484   -4.594487    1.627131
     91          6           0      -15.548876   -3.126986    3.003674
     92          6           0      -14.750908   -4.392133    3.500838
     93          1           0      -15.251393   -5.788249    3.061308
     94          7           0      -19.977286    0.642859    0.574230
     95          6           0      -20.582658   -0.437758    1.216335
     96          6           0      -22.001358   -0.107604    1.425142
     97          6           0      -22.178994    1.190376    0.844287
     98          6           0      -20.855410    1.552369    0.301972
     99          6           0      -22.942377   -1.013437    2.018808
    100          6           0      -23.449907    2.030329    0.766722
    101          8           0      -23.471173    3.102236    0.141172
    102          6           0      -24.636502    1.682107    1.576691
    103          7           0      -18.244288    2.454198   -1.216409
    104          6           0      -19.402712    3.117643   -1.174103
    105          6           0      -19.368827    4.368101   -2.111698
    106          6           0      -17.840040    4.492203   -2.405544
    107          6           0      -17.276317    3.205378   -1.889788
    108          6           0      -20.308111    4.261636   -3.366635
    109          6           0      -17.352585    5.717938   -1.542310
    110          6           0      -16.765555    5.491064   -0.106589
    111          7           0      -16.007793    0.752844   -0.675677
    112          6           0      -15.314755    1.656449   -1.501451
    113          6           0      -13.953042    1.116846   -1.740066
    114          6           0      -13.963734   -0.130424   -1.126697
    115          6           0      -15.158546   -0.337118   -0.470268
    116          6           0      -13.079443    1.737339   -2.721004
    117          6           0      -13.160462   -1.345273   -1.012932
    118          8           0      -12.064637   -1.573349   -1.512781
    119          6           0      -14.025953   -2.354823   -0.122115
    120          6           0      -14.287471   -3.621794   -0.847458
    121          8           0      -15.283248   -3.881500   -1.516863
    122          8           0      -13.211240   -4.503327   -0.632269
    123          6           0      -13.159319   -5.801670   -1.265462
    124          1           0      -20.524769   -2.099538    2.461540
    125          1           0      -21.415593    3.373753   -0.737271
    126          1           0      -15.359411    3.530077   -2.602176
    127          1           0      -16.158525   -4.148390    1.197207
    128          1           0      -18.063333   -3.401202    3.204417
    129          1           0      -19.172940   -5.171423    2.392804
    130          1           0      -17.996520   -5.296822    1.116591
    131          1           0      -19.455586   -4.297063    0.947981
    132          1           0      -16.111213   -2.751897    3.858683
    133          1           0      -14.882999   -2.332444    2.665121
    134          1           0      -14.796647   -4.465030    4.586922
    135          1           0      -13.701694   -4.143786    3.340992
    136          1           0      -23.429225   -0.461556    2.823125
    137          1           0      -22.484867   -1.984524    2.205478
    138          1           0      -23.582735   -1.212001    1.158801
    139          1           0      -25.168713    0.802225    1.213962
    140          1           0      -25.355531    2.499935    1.533177
    141          1           0      -24.284968    1.387784    2.565158
    142          1           0      -19.778247    5.094324   -1.409465
    143          1           0      -17.644772    4.718646   -3.454032
    144          1           0      -21.254923    4.763743   -3.167356
    145          1           0      -20.377901    3.203052   -3.614803
    146          1           0      -19.783062    4.771695   -4.174091
    147          1           0      -18.092156    6.516538   -1.603776
    148          1           0      -16.418724    5.999315   -2.029872
    149          1           0      -17.234496    6.279593    0.481270
    150          1           0      -15.685025    5.632588   -0.059801
    151          1           0      -17.017192    4.545032    0.371566
    152          1           0      -13.646509    1.896615   -3.637269
    153          1           0      -12.290853    1.014219   -2.931600
    154          1           0      -12.546564    2.584591   -2.290225
    155          1           0      -13.374035   -2.556098    0.728505
    156          1           0      -12.568578   -5.813268   -2.181103
    157          1           0      -14.140565   -6.276281   -1.280615
    158          1           0      -12.681321   -6.387643   -0.479924
 ---------------------------------------------------------------------

 SCF Done:  E(RPBE1PBE) =  -4067.33704077     A.U. after   16 cycles

 Excitation energies and oscillator strengths:

 Excited State   1:      Singlet-A      1.8516 eV  669.60 nm  f=0.0000  <S**2>=0.000
     312 -> 313        0.70710
 This state for optimization and/or second-order correction.
 Total Energy, E(TD-HF/TD-DFT) =  -4067.26899546
 Copying the excited state density for this state as the 1-particle RhoCI density.

 Excited State   2:      Singlet-A      1.8532 eV  669.02 nm  f=0.3618  <S**2>=0.000
     309 -> 315        0.19397
     311 -> 313        0.68705

 Excited State   3:      Singlet-A      1.8853 eV  657.63 nm  f=0.3494  <S**2>=0.000
     310 -> 316        0.18504
     312 -> 314        0.68849
     312 <- 314       -0.10055

 Excited State   4:      Singlet-A      2.1605 eV  573.87 nm  f=0.0000  <S**2>=0.000
     311 -> 314        0.70710

 Excited State   5:      Singlet-A      2.2158 eV  559.54 nm  f=0.0719  <S**2>=0.000
     309 -> 313        0.63259
     311 -> 315       -0.30038

 The electronic state is 1-A.
 Alpha  occ. eigenvalues --  -46.93561 -46.91893 -19.25669 -19.24631 -19.20061
 Alpha  occ. eigenvalues --  -19.19634 -19.19107 -19.19044 -19.18796 -19.18238
 Alpha  occ. eigenvalues --  -14.41904 -14.41439 -14.41421 -14.40962 -14.39822
 Alpha  occ. eigenvalues --  -14.39186 -14.39173 -14.38698 -10.36434 -10.35703
 Alpha  occ. eigenvalues --  -10.32615 -10.32238 -10.32160 -10.31389 -10.29748
 Alpha  occ. eigenvalues --  -10.29628 -10.29119 -10.28776 -10.28667 -10.28530
 Alpha  occ. eigenvalues --  -10.28530 -10.28485 -10.28382 -10.28334 -10.28090
 Alpha  occ. eigenvalues --  -10.28008 -10.27844 -10.27753 -10.27688 -10.27450
 Alpha  occ. eigenvalues --  -10.27118 -10.26728 -10.26690 -10.26551 -10.26517
 Alpha  occ. eigenvalues --  -10.26515 -10.26335 -10.26151 -10.26008 -10.25998
 Alpha  occ. eigenvalues --  -10.25855 -10.25783 -10.25736 -10.25662 -10.25633
 Alpha  occ. eigenvalues --  -10.25536 -10.25458 -10.25104 -10.25089 -10.25066
 Alpha  occ. eigenvalues --  -10.25001 -10.24994 -10.24959 -10.24755 -10.24704
 Alpha  occ. eigenvalues --  -10.24648 -10.24541 -10.24417 -10.24414 -10.24297
 Alpha  occ. eigenvalues --  -10.24236 -10.24138 -10.24108 -10.24072 -10.23634
 Alpha  occ. eigenvalues --  -10.23631 -10.23536 -10.23236 -10.23117 -10.22952
 Alpha  occ. eigenvalues --  -10.22906 -10.22753 -10.22712 -10.22675 -10.22548
 Alpha  occ. eigenvalues --  -10.22448  -3.15455  -3.14018  -1.88257  -1.87859
 Alpha  occ. eigenvalues --   -1.87654  -1.86867  -1.86406  -1.86228  -1.11792
 Alpha  occ. eigenvalues --   -1.09369  -1.04910  -1.04485  -1.03752  -1.03547
 Alpha  occ. eigenvalues --   -1.02486  -1.02035  -0.99261  -0.99194  -0.98577
 Alpha  occ. eigenvalues --   -0.98253  -0.97748  -0.97063  -0.96203  -0.96166
 Alpha  occ. eigenvalues --   -0.86358  -0.86281  -0.83939  -0.83231  -0.83026
 Alpha  occ. eigenvalues --   -0.82897  -0.82715  -0.82541  -0.81574  -0.81381
 Alpha  occ. eigenvalues --   -0.81100  -0.80615  -0.80459  -0.79592  -0.78889
 Alpha  occ. eigenvalues --   -0.78317  -0.78315  -0.77599  -0.77059  -0.76811
 Alpha  occ. eigenvalues --   -0.76665  -0.76236  -0.75404  -0.75172  -0.74798
 Alpha  occ. eigenvalues --   -0.74580  -0.73071  -0.72217  -0.71614  -0.71449
 Alpha  occ. eigenvalues --   -0.71181  -0.70673  -0.70535  -0.70070  -0.69280
 Alpha  occ. eigenvalues --   -0.69114  -0.67283  -0.66613  -0.66161  -0.65745
 Alpha  occ. eigenvalues --   -0.63635  -0.63205  -0.63187  -0.62910  -0.62511
 Alpha  occ. eigenvalues --   -0.62339  -0.61117  -0.61023  -0.59991  -0.59598
 Alpha  occ. eigenvalues --   -0.59327  -0.59314  -0.59174  -0.58983  -0.58753
 Alpha  occ. eigenvalues --   -0.58547  -0.56977  -0.56101  -0.54828  -0.54748
 Alpha  occ. eigenvalues --   -0.53910  -0.53831  -0.53573  -0.53559  -0.53053
 Alpha  occ. eigenvalues --   -0.52560  -0.52437  -0.52378  -0.51814  -0.51735
 Alpha  occ. eigenvalues --   -0.50806  -0.50722  -0.50338  -0.50053  -0.49770
 Alpha  occ. eigenvalues --   -0.49574  -0.49452  -0.49086  -0.48792  -0.48439
 Alpha  occ. eigenvalues --   -0.48408  -0.48173  -0.48065  -0.47790  -0.47690
 Alpha  occ. eigenvalues --   -0.47671  -0.47335  -0.47179  -0.46909  -0.46879
 Alpha  occ. eigenvalues --   -0.46643  -0.46388  -0.46306  -0.46146  -0.46057
 Alpha  occ. eigenvalues --   -0.45954  -0.45311  -0.45189  -0.45134  -0.44789
 Alpha  occ. eigenvalues --   -0.44443  -0.44338  -0.44295  -0.44257  -0.44066
 Alpha  occ. eigenvalues --   -0.44011  -0.43784  -0.43645  -0.43504  -0.43438
 Alpha  occ. eigenvalues --   -0.43102  -0.43096  -0.42961  -0.42895  -0.42668
 Alpha  occ. eigenvalues --   -0.42430  -0.42211  -0.42043  -0.41942  -0.41616
 Alpha  occ. eigenvalues --   -0.41614  -0.41592  -0.41309  -0.41258  -0.41015
 Alpha  occ. eigenvalues --   -0.40888  -0.40732  -0.40507  -0.40267  -0.40181
 Alpha  occ. eigenvalues --   -0.40066  -0.39905  -0.39789  -0.39708  -0.39541
 Alpha  occ. eigenvalues --   -0.39380  -0.39118  -0.39044  -0.38951  -0.38787
 Alpha  occ. eigenvalues --   -0.38742  -0.38738  -0.38550  -0.38460  -0.38331
 Alpha  occ. eigenvalues --   -0.38210  -0.38137  -0.37961  -0.37733  -0.37724
 Alpha  occ. eigenvalues --   -0.37490  -0.37237  -0.36858  -0.36789  -0.36637
 Alpha  occ. eigenvalues --   -0.36322  -0.36193  -0.36096  -0.36036  -0.35896
 Alpha  occ. eigenvalues --   -0.35694  -0.35395  -0.35188  -0.34991  -0.34939
 Alpha  occ. eigenvalues --   -0.34795  -0.34712  -0.34201  -0.33635  -0.33431
 Alpha  occ. eigenvalues --   -0.32906  -0.32692  -0.32401  -0.32386  -0.32127
 Alpha  occ. eigenvalues --   -0.32075  -0.31748  -0.31688  -0.31393  -0.31018
 Alpha  occ. eigenvalues --   -0.30715  -0.30685  -0.29268  -0.29256  -0.29105
 Alpha  occ. eigenvalues --   -0.29052  -0.28807  -0.28670  -0.26997  -0.26589
 Alpha  occ. eigenvalues --   -0.25999  -0.25833  -0.25758  -0.25654  -0.25509
 Alpha  occ. eigenvalues --   -0.25353  -0.25094  -0.24468  -0.21207  -0.20753
 Alpha  occ. eigenvalues --   -0.18967  -0.18425
 Alpha virt. eigenvalues --   -0.11249  -0.10662  -0.05910  -0.05148  -0.03963
 Alpha virt. eigenvalues --   -0.03947  -0.02169  -0.02049  -0.01651   0.00276
 Alpha virt. eigenvalues --    0.00433   0.00558   0.00990   0.01102   0.01636

 Mulliken charges:
               1
     1  Mg  12.000000
     2  C    6.000000
     3  C    6.000000
     4  C    6.000000
     5  C    6.000000
     6  N    7.000000
     7  C    6.000000
     8  C    6.000000
     9  C    6.000000
    10  C    6.000000
    11  C    6.000000
    12  C    6.000000
    13  C    6.000000
    14  H    1.000000
    15  N    7.000000
    16  C    6.000000
    17  C    6.000000
    18  C    6.000000
    19  C    6.000000
    20  C    6.000000
    21  C    6.000000
    22  O    8.000000
    23  C    6.000000
    24  N    7.000000
    25  C    6.000000
    26  C    6.000000
    27  C    6.000000
    28  C    6.000000
    29  C    6.000000
    30  C    6.000000
    31  C    6.000000
    32  N    7.000000
    33  C    6.000000
    34  C    6.000000
    35  C    6.000000
    36  C    6.000000
    37  C    6.000000
    38  C    6.000000
    39  O    8.000000
    40  C    6.000000
    41  C    6.000000
    42  O    8.000000
    43  O    8.000000
    44  C    6.000000
    45  H    1.000000
    46  H    1.000000
    47  H    1.000000
    48  H    1.000000
    49  H    1.000000
    50  H    1.000000
    51  H    1.000000
    52  H    1.000000
    53  H    1.000000
    54  H    1.000000
    55  H    1.000000
    56  H    1.000000
    57  H    1.000000
    58  H    1.000000
    59  H    1.000000
    60  H    1.000000
    61  H    1.000000
    62  H    1.000000
    63  H    1.000000
    64  H    1.000000
    65  H    1.000000
    66  H    1.000000
    67  H    1.000000
    68  H    1.000000
    69  H    1.000000
    70  H    1.000000
    71  H    1.000000
    72  H    1.000000
    73  H    1.000000
    74  H    1.000000
    75  H    1.000000
    76  H    1.000000
    77  H    1.000000
    78  H    1.000000
    79  H    1.000000
    80  Mg  12.000000
    81  C    6.000000
    82  C    6.000000
    83  C    6.000000
    84  C    6.000000
    85  N    7.000000
    86  C    6.000000
    87  C    6.000000
    88  C    6.000000
    89  C    6.000000
    90  C    6.000000
    91  C    6.000000
    92  C    6.000000
    93  H    1.000000
    94  N    7.000000
    95  C    6.000000
    96  C    6.000000
    97  C    6.000000
    98  C    6.000000
    99  C    6.000000
   100  C    6.000000
   101  O    8.000000
   102  C    6.000000
   103  N    7.000000
   104  C    6.000000
   105  C    6.000000
   106  C    6.000000
   107  C    6.000000
   108  C    6.000000
   109  C    6.000000
   110  C    6.000000
   111  N    7.000000
   112  C    6.000000
   113  C    6.000000
   114  C    6.000000
   115  C    6.000000
   116  C    6.000000
   117  C    6.000000
   118  O    8.000000
   119  C    6.000000
   120  C    6.000000
   121  O    8.000000
   122  O    8.000000
   123  C    6.000000
   124  H    1.000000
   125  H    1.000000
   126  H    1.000000
   127  H    1.000000
   128  H    1.000000
   129  H    1.000000
   130  H    1.000000
   131  H    1.000000
   132  H    1.000000
   133  H    1.000000
   134  H    1.000000
   135  H    1.000000
   136  H    1.000000
   137  H    1.000000
   138  H    1.000000
   139  H    1.000000
   140  H    1.000000
   141  H    1.000000
   142  H    1.000000
   143  H    1.000000
   144  H    1.000000
   145  H    1.000000
   146  H    1.000000
   147  H    1.000000
   148  H    1.000000
   149  H    1.000000
   150  H    1.000000
   151  H    1.000000
   152  H    1.000000
   153  H    1.000000
   154  H    1.000000
   155  H    1.000000
   156  H    1.000000
   157  H    1.000000
   158  H    1.000000
 Sum of Mulliken charges = 624.00000

 Dipole moment (field-independent basis, Debye):
    X=             -0.0000    Y=             -0.0000    Z=              0.0000  Tot=              0.0000
 Quadrupole moment (field-independent basis, Debye-Ang):
   XX=              0.0000   YY=             -0.0000   ZZ=             -0.0000
   XY=              0.0000   XZ=             -0.0000   YZ=              0.0000

 Normal termination of Gaussian 16 at Wed Oct 13 23:30:21 2021.
