 Gaussian 16, Revision A.03,
 Gaussian 16:  ES64L-G16RevA.03 25-Dec-2016

 --------------------------------------------------------
 #p PBE1PBE/Def2SVP td=(nstates=5) density=(transition=1)
 --------------------------------------------------------

 --------------------------------
 TDDFT excited states in gaussian
 --------------------------------
 Symbolic Z-matrix:
 Charge =  0 Multiplicity = 1

                         Standard orientation:
 ---------------------------------------------------------------------
 Center     Atomic      Atomic             Coordinates (Angstroms)
 Number     Number       Type             X           Y           Z
 ---------------------------------------------------------------------
      1         12           0       24.255323   -0.722753    0.273824
      2          6           0       24.725564    2.403981   -1.168312
      3          6           0       25.135950    0.544609    3.268452
      4          6           0       24.555503   -3.866572    1.484372
      5          6           0       24.164043   -2.122272   -2.979907
      6          7           0       24.753285    1.255183    0.881451
      7          6           0       24.754205    2.461520    0.215662
      8          6           0       25.151411    3.614130    1.178579
      9          6           0       25.775587    2.816702    2.365039
     10          6           0       25.093562    1.463037    2.231692
     11          6           0       27.335354    2.656778    2.300638
     12          6           0       23.916734    4.513632    1.371104
     13          6           0       24.211614    5.965183    1.351078
     14          1           0       23.062381    6.824252    1.072908
     15          7           0       24.553427   -1.495315    2.161808
     16          6           0       24.842471   -0.781809    3.280671
     17          6           0       24.648956   -1.634165    4.426759
     18          6           0       24.470040   -2.959859    3.889489
     19          6           0       24.607631   -2.822723    2.436584
     20          6           0       24.774760   -1.167171    5.832642
     21          6           0       24.341269   -4.349251    4.594853
     22          8           0       24.182789   -5.402306    3.974011
     23          6           0       24.259743   -4.458883    6.091818
     24          7           0       24.689775   -2.697769   -0.687442
     25          6           0       24.625999   -3.880694    0.098440
     26          6           0       24.568888   -5.131605   -0.714432
     27          6           0       24.224213   -4.488894   -2.097205
     28          6           0       24.298776   -2.977115   -1.899982
     29          6           0       25.885587   -5.979307   -0.683605
     30          6           0       22.801456   -4.887848   -2.634924
     31          6           0       21.626349   -4.678100   -1.646236
     32          7           0       24.301087   -0.037440   -1.685650
     33          6           0       24.202981   -0.716454   -2.909999
     34          6           0       24.261596    0.269334   -3.923414
     35          6           0       24.435213    1.485402   -3.274360
     36          6           0       24.463240    1.237941   -1.941505
     37          6           0       24.105680    0.017500   -5.389335
     38          6           0       24.662314    2.835566   -3.499259
     39          8           0       24.752411    3.453921   -4.575533
     40          6           0       24.861824    3.583256   -2.146492
     41          6           0       23.703754    4.629373   -2.137705
     42          8           0       22.493149    4.365076   -2.028725
     43          8           0       24.265819    5.893710   -2.277413
     44          6           0       23.354781    7.050145   -2.551679
     45          1           0       25.526057    1.048351    4.155395
     46          1           0       24.495701   -4.936679    1.696922
     47          1           0       23.931245   -2.471003   -3.988252
     48          1           0       25.869879    4.277473    0.698217
     49          1           0       25.449357    3.262217    3.304355
     50          1           0       27.839052    3.178561    1.486422
     51          1           0       27.605358    1.620816    2.099768
     52          1           0       27.765696    3.066986    3.213993
     53          1           0       23.570281    4.318479    2.385023
     54          1           0       23.184757    4.236012    0.612177
     55          1           0       24.908717    6.110628    0.525691
     56          1           0       24.735096    6.223855    2.271279
     57          1           0       24.682084   -0.083550    5.902738
     58          1           0       25.650520   -1.645883    6.272087
     59          1           0       23.927738   -1.537928    6.409976
     60          1           0       24.615861   -5.466416    6.307864
     61          1           0       23.225662   -4.390033    6.430296
     62          1           0       24.916502   -3.746002    6.591351
     63          1           0       23.752731   -5.801028   -0.439063
     64          1           0       24.981645   -4.791512   -2.820987
     65          1           0       26.712138   -5.336482   -0.379601
     66          1           0       26.191263   -6.445717   -1.620288
     67          1           0       25.894775   -6.821741    0.008602
     68          1           0       22.896182   -5.915150   -2.987160
     69          1           0       22.700213   -4.289404   -3.540242
     70          1           0       20.869278   -3.995401   -2.032584
     71          1           0       22.061434   -4.297520   -0.721716
     72          1           0       21.104878   -5.605297   -1.410480
     73          1           0       25.003523    0.423904   -5.854882
     74          1           0       23.184367    0.502250   -5.712258
     75          1           0       24.083571   -1.031466   -5.685027
     76          1           0       25.814003    4.111453   -2.188406
     77          1           0       22.851471    6.820527   -3.490584
     78          1           0       23.804873    8.037823   -2.651243
     79          1           0       22.729905    6.935395   -1.665936
     80         12           0      -24.880033   -0.429084   -0.257912
     81          6           0      -22.933707    2.507618   -0.235828
     82          6           0      -27.034308    1.035874    1.920090
     83          6           0      -26.646618   -3.313192   -0.225567
     84          6           0      -22.395585   -1.984055   -2.120201
     85          7           0      -24.925739    1.473806    0.791490
     86          6           0      -24.089469    2.569493    0.560649
     87          6           0      -24.634883    3.770129    1.273789
     88          6           0      -25.609690    3.136924    2.294854
     89          6           0      -25.883702    1.769428    1.617462
     90          6           0      -25.084249    2.907007    3.747039
     91          6           0      -25.318138    4.859005    0.363586
     92          6           0      -24.888124    6.262765    0.648808
     93          1           0      -26.003541    7.322079    0.724203
     94          7           0      -26.614682   -0.981021    0.615651
     95          6           0      -27.442486   -0.194833    1.434305
     96          6           0      -28.599660   -0.916799    1.785969
     97          6           0      -28.531765   -2.245404    1.151521
     98          6           0      -27.265019   -2.221502    0.477481
     99          6           0      -29.649618   -0.470995    2.761250
    100          6           0      -29.485917   -3.516257    1.209973
    101          8           0      -29.231587   -4.512647    0.575763
    102          6           0      -30.796589   -3.477278    1.982752
    103          7           0      -24.504187   -2.407347   -0.972531
    104          6           0      -25.399084   -3.415088   -0.804850
    105          6           0      -24.829525   -4.771555   -1.441999
    106          6           0      -23.599116   -4.264250   -2.314265
    107          6           0      -23.469422   -2.776281   -1.775073
    108          6           0      -24.408680   -5.880508   -0.438391
    109          6           0      -23.837978   -4.326874   -3.864966
    110          6           0      -22.757339   -5.057076   -4.545198
    111          7           0      -23.019039    0.103482   -0.989800
    112          6           0      -22.163037   -0.606701   -1.830205
    113          6           0      -21.041021    0.215869   -2.192304
    114          6           0      -21.288721    1.422882   -1.570904
    115          6           0      -22.466233    1.338102   -0.897222
    116          6           0      -19.931238   -0.266868   -3.162305
    117          6           0      -20.765941    2.756099   -1.334775
    118          8           0      -19.683746    3.199562   -1.650162
    119          6           0      -21.834125    3.528286   -0.412187
    120          6           0      -21.175095    3.938239    0.841401
    121          8           0      -20.618227    3.146397    1.646374
    122          8           0      -21.244875    5.297058    0.939178
    123          6           0      -20.309911    5.888470    1.932704
    124          1           0      -27.657918    1.554862    2.650940
    125          1           0      -27.143783   -4.284852   -0.254271
    126          1           0      -21.593032   -2.506904   -2.643635
    127          1           0      -23.906278    4.280377    1.904938
    128          1           0      -26.528485    3.707598    2.431035
    129          1           0      -24.378554    3.665926    4.087403
    130          1           0      -24.632089    1.915056    3.765868
    131          1           0      -25.848851    2.797061    4.515639
    132          1           0      -26.388586    4.711909    0.505855
    133          1           0      -25.171220    4.645923   -0.695642
    134          1           0      -24.195591    6.438130   -0.174596
    135          1           0      -24.426547    6.309871    1.635042
    136          1           0      -30.603733   -0.173752    2.325480
    137          1           0      -29.314012    0.440753    3.253754
    138          1           0      -29.927246   -1.148162    3.568559
    139          1           0      -31.307517   -4.407624    1.737779
    140          1           0      -31.347685   -2.555548    1.793906
    141          1           0      -30.594636   -3.304031    3.040182
    142          1           0      -25.612593   -5.269368   -2.014146
    143          1           0      -22.719471   -4.845944   -2.034662
    144          1           0      -24.460461   -5.623228    0.620055
    145          1           0      -23.386495   -6.228452   -0.589376
    146          1           0      -25.070387   -6.728549   -0.616659
    147          1           0      -23.818590   -3.310243   -4.259395
    148          1           0      -24.759319   -4.826965   -4.162822
    149          1           0      -23.098908   -6.072926   -4.745631
    150          1           0      -21.765522   -5.078123   -4.094970
    151          1           0      -22.515020   -4.552357   -5.480485
    152          1           0      -20.294395   -1.137754   -3.708513
    153          1           0      -18.975620   -0.386547   -2.649792
    154          1           0      -19.848162    0.539538   -3.889988
    155          1           0      -22.244537    4.402497   -0.918213
    156          1           0      -20.321554    6.975972    1.861788
    157          1           0      -19.316609    5.601999    1.586496
    158          1           0      -20.574402    5.465590    2.902293
 ---------------------------------------------------------------------

 SCF Done:  E(RPBE1PBE) =  -4067.40281980     A.U. after   16 cycles

 Excitation energies and oscillator strengths:

 Excited State   1:      Singlet-A      1.8237 eV  679.85 nm  f=0.3604  <S**2>=0.000
     309 -> 315        0.15439
     312 -> 314        0.69684
     312 <- 314       -0.11765
 This state for optimization and/or second-order correction.
 Total Energy, E(TD-HF/TD-DFT) =  -4067.33580043
 Copying the excited state density for this state as the 1-particle RhoCI density.

 Excited State   2:      Singlet-A      1.8995 eV  652.72 nm  f=0.3783  <S**2>=0.000
     310 -> 316       -0.17459
     311 -> 313        0.69189
     311 <- 313       -0.10896

 Excited State   3:      Singlet-A      1.9447 eV  637.55 nm  f=0.0000  <S**2>=0.000
     312 -> 313        0.70711

 Excited State   4:      Singlet-A      2.0251 eV  612.24 nm  f=0.0000  <S**2>=0.000
     311 -> 314        0.70711

 Excited State   5:      Singlet-A      2.2325 eV  555.36 nm  f=0.1209  <S**2>=0.000
     309 -> 314        0.65177
     312 -> 315       -0.24369

 The electronic state is 1-A.
 Alpha  occ. eigenvalues --  -46.91696 -46.90613 -19.26315 -19.25386 -19.20209
 Alpha  occ. eigenvalues --  -19.19983 -19.19782 -19.19372 -19.18975 -19.17844
 Alpha  occ. eigenvalues --  -14.41532 -14.41496 -14.41066 -14.40909 -14.39010
 Alpha  occ. eigenvalues --  -14.38954 -14.38321 -14.38140 -10.37051 -10.36453
 Alpha  occ. eigenvalues --  -10.33388 -10.32450 -10.32300 -10.30716 -10.29390
 Alpha  occ. eigenvalues --  -10.29153 -10.28879 -10.28646 -10.28353 -10.28302
 Alpha  occ. eigenvalues --  -10.28272 -10.28190 -10.28168 -10.28115 -10.27989
 Alpha  occ. eigenvalues --  -10.27846 -10.27420 -10.27018 -10.26938 -10.26928
 Alpha  occ. eigenvalues --  -10.26422 -10.26145 -10.26122 -10.25993 -10.25918
 Alpha  occ. eigenvalues --  -10.25848 -10.25778 -10.25752 -10.25727 -10.25700
 Alpha  occ. eigenvalues --  -10.25583 -10.25524 -10.25523 -10.25495 -10.25475
 Alpha  occ. eigenvalues --  -10.25446 -10.25378 -10.25327 -10.25311 -10.24982
 Alpha  occ. eigenvalues --  -10.24969 -10.24828 -10.24520 -10.24463 -10.24449
 Alpha  occ. eigenvalues --  -10.24257 -10.24172 -10.24095 -10.24087 -10.24003
 Alpha  occ. eigenvalues --  -10.23930 -10.23888 -10.23689 -10.23575 -10.23522
 Alpha  occ. eigenvalues --  -10.23451 -10.23357 -10.23342 -10.23281 -10.23219
 Alpha  occ. eigenvalues --  -10.23080 -10.22960 -10.22808 -10.22195 -10.22099
 Alpha  occ. eigenvalues --  -10.21372  -3.13870  -3.12915  -1.86690  -1.86248
 Alpha  occ. eigenvalues --   -1.86095  -1.85763  -1.85278  -1.85165  -1.10534
 Alpha  occ. eigenvalues --   -1.09127  -1.06350  -1.05183  -1.04214  -1.02599
 Alpha  occ. eigenvalues --   -1.01425  -1.01135  -0.99520  -0.99427  -0.98580
 Alpha  occ. eigenvalues --   -0.98147  -0.98117  -0.97205  -0.96836  -0.95985
 Alpha  occ. eigenvalues --   -0.86994  -0.86869  -0.83460  -0.83444  -0.83293
 Alpha  occ. eigenvalues --   -0.82939  -0.82876  -0.82303  -0.82096  -0.81417
 Alpha  occ. eigenvalues --   -0.81375  -0.80827  -0.80656  -0.80226  -0.78868
 Alpha  occ. eigenvalues --   -0.78556  -0.78122  -0.77779  -0.77190  -0.76445
 Alpha  occ. eigenvalues --   -0.76224  -0.75780  -0.75506  -0.75234  -0.75009
 Alpha  occ. eigenvalues --   -0.74703  -0.72535  -0.72482  -0.71646  -0.71349
 Alpha  occ. eigenvalues --   -0.71197  -0.71106  -0.70314  -0.70051  -0.69807
 Alpha  occ. eigenvalues --   -0.69213  -0.67659  -0.67362  -0.66454  -0.65398
 Alpha  occ. eigenvalues --   -0.64115  -0.63170  -0.63054  -0.62487  -0.61969
 Alpha  occ. eigenvalues --   -0.61961  -0.60921  -0.60900  -0.59951  -0.59835
 Alpha  occ. eigenvalues --   -0.59604  -0.59090  -0.59062  -0.59007  -0.58602
 Alpha  occ. eigenvalues --   -0.58541  -0.56546  -0.56139  -0.54837  -0.54609
 Alpha  occ. eigenvalues --   -0.54438  -0.54291  -0.53852  -0.53744  -0.53088
 Alpha  occ. eigenvalues --   -0.52727  -0.52414  -0.52151  -0.52101  -0.51334
 Alpha  occ. eigenvalues --   -0.50687  -0.50542  -0.50275  -0.50123  -0.50042
 Alpha  occ. eigenvalues --   -0.49857  -0.49489  -0.49439  -0.49284  -0.48413
 Alpha  occ. eigenvalues --   -0.48056  -0.48043  -0.47987  -0.47629  -0.47532
 Alpha  occ. eigenvalues --   -0.47411  -0.47308  -0.47181  -0.47000  -0.46470
 Alpha  occ. eigenvalues --   -0.46446  -0.46445  -0.46094  -0.46009  -0.45862
 Alpha  occ. eigenvalues --   -0.45769  -0.45468  -0.45039  -0.45002  -0.44923
 Alpha  occ. eigenvalues --   -0.44671  -0.44356  -0.44116  -0.44046  -0.44016
 Alpha  occ. eigenvalues --   -0.44001  -0.43813  -0.43574  -0.43560  -0.43363
 Alpha  occ. eigenvalues --   -0.43349  -0.43163  -0.42719  -0.42662  -0.42637
 Alpha  occ. eigenvalues --   -0.42408  -0.42317  -0.42042  -0.41944  -0.41654
 Alpha  occ. eigenvalues --   -0.41433  -0.41331  -0.41308  -0.41172  -0.41025
 Alpha  occ. eigenvalues --   -0.40802  -0.40682  -0.40572  -0.40518  -0.40510
 Alpha  occ. eigenvalues --   -0.40247  -0.40101  -0.39848  -0.39500  -0.39455
 Alpha  occ. eigenvalues --   -0.39358  -0.39222  -0.39143  -0.39143  -0.38924
 Alpha  occ. eigenvalues --   -0.38505  -0.38292  -0.38271  -0.38203  -0.38168
 Alpha  occ. eigenvalues --   -0.37951  -0.37859  -0.37827  -0.37645  -0.37568
 Alpha  occ. eigenvalues --   -0.37456  -0.37091  -0.37029  -0.36766  -0.36763
 Alpha  occ. eigenvalues --   -0.36724  -0.36523  -0.36362  -0.36113  -0.35951
 Alpha  occ. eigenvalues --   -0.35858  -0.35743  -0.35467  -0.35342  -0.35085
 Alpha  occ. eigenvalues --   -0.34895  -0.34858  -0.34083  -0.33982  -0.33781
 Alpha  occ. eigenvalues --   -0.33348  -0.33186  -0.33007  -0.32842  -0.32838
 Alpha  occ. eigenvalues --   -0.32377  -0.31896  -0.31742  -0.31607  -0.31399
 Alpha  occ. eigenvalues --   -0.31058  -0.30978  -0.29486  -0.29281  -0.29129
 Alpha  occ. eigenvalues --   -0.29086  -0.28693  -0.28584  -0.26973  -0.26939
 Alpha  occ. eigenvalues --   -0.26473  -0.25894  -0.25636  -0.25631  -0.25297
 Alpha  occ. eigenvalues --   -0.25142  -0.25009  -0.24779  -0.21145  -0.20923
 Alpha  occ. eigenvalues --   -0.19118  -0.18823
 Alpha virt. eigenvalues --   -0.11410  -0.11407  -0.05113  -0.04835  -0.03647
 Alpha virt. eigenvalues --   -0.03548  -0.02000  -0.01685  -0.00488  -0.00186
 Alpha virt. eigenvalues --    0.00400   0.00673   0.00748   0.01446   0.01967

 Mulliken charges:
               1
     1  Mg  12.002519
     2  C    5.975435
     3  C    6.003001
     4  C    6.032229
     5  C    6.016636
     6  N    6.979075
     7  C    6.032148
     8  C    5.996854
     9  C    6.006591
    10  C    5.976646
    11  C    6.003270
    12  C    5.994107
    13  C    6.000567
    14  H    0.998698
    15  N    7.006769
    16  C    5.964925
    17  C    5.980481
    18  C    5.987197
    19  C    5.962178
    20  C    6.003228
    21  C    5.987516
    22  O    7.970810
    23  C    6.004946
    24  N    7.016507
    25  C    5.958243
    26  C    6.014824
    27  C    5.992642
    28  C    6.017772
    29  C    5.999561
    30  C    5.992286
    31  C    5.994579
    32  N    6.997951
    33  C    6.027106
    34  C    6.030705
    35  C    6.000022
    36  C    6.027547
    37  C    5.997079
    38  C    6.014663
    39  O    8.028832
    40  C    6.003764
    41  C    6.003222
    42  O    8.003544
    43  O    8.001529
    44  C    5.999452
    45  H    0.985955
    46  H    0.995965
    47  H    1.015974
    48  H    0.998552
    49  H    0.998695
    50  H    0.984192
    51  H    1.000581
    52  H    0.996698
    53  H    1.011871
    54  H    0.994368
    55  H    0.996284
    56  H    1.005434
    57  H    0.985612
    58  H    0.981497
    59  H    0.982634
    60  H    0.987054
    61  H    0.989364
    62  H    0.996036
    63  H    0.999163
    64  H    1.002865
    65  H    1.000460
    66  H    0.990758
    67  H    1.003438
    68  H    1.009720
    69  H    0.993545
    70  H    0.997355
    71  H    1.013327
    72  H    1.006743
    73  H    1.017445
    74  H    1.018771
    75  H    1.016146
    76  H    1.008080
    77  H    0.999101
    78  H    1.004319
    79  H    1.004339
    80  Mg  12.000005
    81  C    5.999982
    82  C    6.000092
    83  C    6.000000
    84  C    5.999921
    85  N    7.000027
    86  C    5.999976
    87  C    6.000023
    88  C    5.999979
    89  C    5.999999
    90  C    5.999983
    91  C    6.000013
    92  C    6.000000
    93  H    0.999986
    94  N    6.999998
    95  C    6.000049
    96  C    6.000030
    97  C    6.000030
    98  C    6.000062
    99  C    5.999982
   100  C    6.000040
   101  O    8.000043
   102  C    5.999984
   103  N    6.999981
   104  C    6.000026
   105  C    5.999980
   106  C    6.000026
   107  C    6.000013
   108  C    5.999991
   109  C    6.000013
   110  C    6.000013
   111  N    7.000010
   112  C    5.999960
   113  C    5.999892
   114  C    6.000018
   115  C    5.999960
   116  C    6.000009
   117  C    5.999963
   118  O    7.999903
   119  C    6.000012
   120  C    5.999985
   121  O    8.000018
   122  O    7.999993
   123  C    6.000006
   124  H    1.000032
   125  H    1.000006
   126  H    0.999972
   127  H    1.000006
   128  H    1.000004
   129  H    1.000050
   130  H    1.000019
   131  H    1.000010
   132  H    0.999967
   133  H    0.999992
   134  H    0.999994
   135  H    1.000008
   136  H    1.000050
   137  H    1.000043
   138  H    1.000062
   139  H    1.000048
   140  H    1.000009
   141  H    1.000034
   142  H    0.999990
   143  H    1.000001
   144  H    1.000010
   145  H    1.000031
   146  H    1.000003
   147  H    0.999992
   148  H    0.999966
   149  H    0.999985
   150  H    1.000005
   151  H    0.999972
   152  H    0.999951
   153  H    0.999946
   154  H    0.999927
   155  H    0.999963
   156  H    0.999977
   157  H    0.999990
   158  H    1.000007
 Sum of Mulliken charges = 624.00000

 Dipole moment (field-independent basis, Debye):
    X=             -0.9029    Y=              2.9326    Z=             -9.7377  Tot=             10.2097
 Quadrupole moment (field-independent basis, Debye-Ang):
   XX=            -42.3573   YY=             -2.6520   ZZ=             -4.9684
   XY=             72.0594   XZ=           -239.1541   YZ=              8.9019

 Normal termination of Gaussian 16 at Thu Oct 14 13:59:07 2021.
