 Gaussian 16, Revision A.03,
 Gaussian 16:  ES64L-G16RevA.03 25-Dec-2016

 --------------------------------------------------------
 #p PBE1PBE/Def2SVP td=(nstates=5) density=(transition=1)
 --------------------------------------------------------

 --------------------------------
 TDDFT excited states in gaussian
 --------------------------------
 Symbolic Z-matrix:
 Charge =  0 Multiplicity = 1

                         Standard orientation:
 ---------------------------------------------------------------------
 Center     Atomic      Atomic             Coordinates (Angstroms)
 Number     Number       Type             X           Y           Z
 ---------------------------------------------------------------------
      1         12           0      -29.408871    0.253962    0.272795
      2          6           0      -27.633767   -1.803378   -1.969806
      3          6           0      -29.127434    2.822244   -1.930707
      4          6           0      -31.014148    2.215461    2.512338
      5          6           0      -29.251526   -2.290844    2.630281
      6          7           0      -28.419445    0.513847   -1.644970
      7          6           0      -27.851776   -0.493773   -2.429584
      8          6           0      -27.546110    0.050333   -3.792702
      9          6           0      -27.579717    1.579017   -3.556548
     10          6           0      -28.446945    1.650422   -2.273269
     11          6           0      -26.217483    2.301001   -3.309875
     12          6           0      -28.507349   -0.415252   -4.950374
     13          6           0      -27.807019   -0.873537   -6.189858
     14          1           0      -28.367518   -0.356309   -7.527879
     15          7           0      -30.057951    2.165293    0.225231
     16          6           0      -29.930731    3.080580   -0.832886
     17          6           0      -30.579144    4.287895   -0.507454
     18          6           0      -31.175268    4.150896    0.833514
     19          6           0      -30.781475    2.829951    1.232982
     20          6           0      -30.541938    5.550265   -1.318231
     21          6           0      -31.971882    5.163225    1.765976
     22          8           0      -32.391993    4.814424    2.843725
     23          6           0      -32.316500    6.565690    1.285455
     24          7           0      -29.943852    0.027002    2.328943
     25          6           0      -30.584148    1.006529    3.018179
     26          6           0      -30.841498    0.540359    4.530402
     27          6           0      -30.544380   -1.021944    4.475236
     28          6           0      -29.857428   -1.125146    3.047284
     29          6           0      -29.996927    1.251362    5.623696
     30          6           0      -31.821903   -1.926590    4.598526
     31          6           0      -31.668766   -2.928847    5.664229
     32          7           0      -28.574860   -1.637824    0.363124
     33          6           0      -28.687273   -2.607119    1.358719
     34          6           0      -28.055992   -3.824782    0.928095
     35          6           0      -27.610181   -3.544871   -0.347553
     36          6           0      -27.951662   -2.267644   -0.663230
     37          6           0      -28.053638   -5.113641    1.790876
     38          6           0      -26.891210   -4.080640   -1.488849
     39          8           0      -26.308502   -5.139221   -1.573319
     40          6           0      -26.857151   -2.928896   -2.611695
     41          6           0      -25.452613   -2.603138   -2.919943
     42          8           0      -24.610474   -2.204898   -2.073003
     43          8           0      -25.235654   -2.846791   -4.244473
     44          6           0      -23.800653   -2.934153   -4.624156
     45          1           0      -28.960840    3.610605   -2.667669
     46          1           0      -31.515834    2.783329    3.298441
     47          1           0      -29.147999   -3.053029    3.404751
     48          1           0      -26.522648   -0.130469   -4.123462
     49          1           0      -28.032043    2.136299   -4.377057
     50          1           0      -25.381122    1.867292   -3.859610
     51          1           0      -26.035934    2.274089   -2.235126
     52          1           0      -26.211264    3.375568   -3.490755
     53          1           0      -29.162689    0.436714   -5.130434
     54          1           0      -29.191394   -1.195110   -4.614433
     55          1           0      -27.892388   -1.955468   -6.087452
     56          1           0      -26.780703   -0.506669   -6.186046
     57          1           0      -31.465164    5.804691   -1.839293
     58          1           0      -29.829556    5.429131   -2.133288
     59          1           0      -30.255053    6.476546   -0.821158
     60          1           0      -32.975731    6.981151    2.046643
     61          1           0      -32.697206    6.558650    0.263706
     62          1           0      -31.399744    7.122084    1.088116
     63          1           0      -31.858575    0.795323    4.828585
     64          1           0      -29.824421   -1.260496    5.259502
     65          1           0      -29.241718    1.955559    5.273056
     66          1           0      -29.452098    0.556063    6.262791
     67          1           0      -30.700426    1.792176    6.257272
     68          1           0      -31.943395   -2.482444    3.668066
     69          1           0      -32.738969   -1.387670    4.835659
     70          1           0      -32.192194   -2.572774    6.551939
     71          1           0      -30.669645   -3.271181    5.931466
     72          1           0      -32.095838   -3.875271    5.332397
     73          1           0      -28.817326   -5.022324    2.563606
     74          1           0      -27.049207   -5.362421    2.136454
     75          1           0      -28.398921   -5.888744    1.107714
     76          1           0      -27.373912   -3.238252   -3.520542
     77          1           0      -23.702880   -3.262580   -5.658759
     78          1           0      -23.405871   -3.762424   -4.035354
     79          1           0      -23.352626   -1.970620   -4.379698
     80         12           0       29.173022    0.682230   -0.655964
     81          6           0       27.392021   -2.315483    0.007520
     82          6           0       26.192959    2.402580   -0.084349
     83          6           0       31.034153    3.340164   -0.101235
     84          6           0       32.166466   -1.414968   -0.868136
     85          7           0       27.040648    0.072126    0.160473
     86          6           0       26.539264   -1.185075    0.075772
     87          6           0       25.026686   -1.131741    0.194601
     88          6           0       24.655484    0.226784   -0.400242
     89          6           0       26.033189    0.987067   -0.044012
     90          6           0       24.393297    0.318478   -1.904633
     91          6           0       24.600160   -1.402893    1.703041
     92          6           0       23.468146   -2.347769    1.806391
     93          1           0       22.366841   -2.031924    2.837089
     94          7           0       28.711590    2.662696   -0.101689
     95          6           0       27.400279    3.189170    0.004521
     96          6           0       27.548483    4.596674    0.276802
     97          6           0       28.918360    4.963066    0.199183
     98          6           0       29.650513    3.659492    0.016115
     99          6           0       26.325945    5.472231    0.533190
    100          6           0       29.475321    6.314595    0.415336
    101          8           0       28.708839    7.234074    0.674551
    102          6           0       30.917984    6.699722    0.446110
    103          7           0       31.388314    0.872722   -0.410888
    104          6           0       31.819453    2.149692   -0.395633
    105          6           0       33.348279    2.209628   -0.565755
    106          6           0       33.739026    0.679837   -0.974697
    107          6           0       32.366195   -0.017705   -0.792235
    108          6           0       33.862348    3.364367   -1.538318
    109          6           0       34.908381    0.043467   -0.160000
    110          6           0       34.536318   -0.901183    1.033340
    111          7           0       29.699019   -1.341494   -0.489487
    112          6           0       30.936276   -2.023456   -0.668328
    113          6           0       30.658328   -3.524458   -0.727587
    114          6           0       29.310315   -3.611561   -0.418543
    115          6           0       28.784806   -2.274714   -0.305341
    116          6           0       31.566168   -4.743498   -0.980553
    117          6           0       28.221964   -4.521802   -0.252559
    118          8           0       28.176240   -5.745127   -0.392129
    119          6           0       27.063349   -3.687824    0.163775
    120          6           0       26.895478   -4.048549    1.657526
    121          8           0       27.561630   -3.632746    2.603210
    122          8           0       25.862536   -5.023190    1.739884
    123          6           0       25.597107   -5.608123    2.991179
    124          1           0       25.279129    2.996010   -0.010360
    125          1           0       31.548412    4.302967   -0.077308
    126          1           0       32.972144   -2.122943   -1.069955
    127          1           0       24.518071   -1.851984   -0.446053
    128          1           0       23.798233    0.780959   -0.019720
    129          1           0       24.169196   -0.640257   -2.371407
    130          1           0       25.135924    0.940624   -2.404773
    131          1           0       23.457867    0.878141   -1.939250
    132          1           0       24.269106   -0.462572    2.143969
    133          1           0       25.429549   -1.652667    2.364812
    134          1           0       23.983739   -3.281310    2.028843
    135          1           0       22.985259   -2.408976    0.831225
    136          1           0       26.077012    6.112233   -0.313067
    137          1           0       26.482263    6.026620    1.457409
    138          1           0       25.446278    4.851761    0.704983
    139          1           0       31.319280    6.593674   -0.562066
    140          1           0       31.546117    6.138058    1.138630
    141          1           0       31.043263    7.775024    0.567180
    142          1           0       33.698354    2.375591    0.452848
    143          1           0       33.932501    0.647896   -2.046382
    144          1           0       33.137685    4.176062   -1.600970
    145          1           0       34.230304    3.098111   -2.529895
    146          1           0       34.826955    3.624721   -1.099793
    147          1           0       35.605031    0.790607    0.219346
    148          1           0       35.402494   -0.567932   -0.914691
    149          1           0       35.404965   -0.649945    1.642422
    150          1           0       34.520448   -1.976153    0.852325
    151          1           0       33.618016   -0.519591    1.480141
    152          1           0       31.218047   -5.318903   -1.837644
    153          1           0       31.255661   -5.314284   -0.105921
    154          1           0       32.599037   -4.400130   -0.926643
    155          1           0       26.173194   -4.006125   -0.378937
    156          1           0       24.803220   -6.356019    2.984491
    157          1           0       25.294528   -4.808053    3.665600
    158          1           0       26.538489   -6.070868    3.288792
 ---------------------------------------------------------------------

 SCF Done:  E(RPBE1PBE) =  -4067.35231669     A.U. after   16 cycles

 Excitation energies and oscillator strengths:

 Excited State   1:      Singlet-A      1.8406 eV  673.61 nm  f=0.3447  <S**2>=0.000
     309 -> 315        0.18902
     312 -> 314        0.68699
 This state for optimization and/or second-order correction.
 Total Energy, E(TD-HF/TD-DFT) =  -4067.28467658
 Copying the excited state density for this state as the 1-particle RhoCI density.

 Excited State   2:      Singlet-A      1.8995 eV  652.73 nm  f=0.3784  <S**2>=0.000
     310 -> 316       -0.17465
     311 -> 313        0.69185
     311 <- 313       -0.10895

 Excited State   3:      Singlet-A      1.9353 eV  640.66 nm  f=0.0000  <S**2>=0.000
     312 -> 313        0.70711

 Excited State   4:      Singlet-A      2.1260 eV  583.18 nm  f=0.0000  <S**2>=0.000
     311 -> 314        0.70711

 Excited State   5:      Singlet-A      2.1946 eV  564.94 nm  f=0.0645  <S**2>=0.000
     309 -> 314        0.63437
     312 -> 315       -0.29989

 The electronic state is 1-A.
 Alpha  occ. eigenvalues --  -46.94683 -46.90616 -19.26319 -19.25359 -19.21582
 Alpha  occ. eigenvalues --  -19.19985 -19.19785 -19.19375 -19.19080 -19.17831
 Alpha  occ. eigenvalues --  -14.41876 -14.41507 -14.41499 -14.41068 -14.39862
 Alpha  occ. eigenvalues --  -14.39454 -14.38957 -14.38324 -10.37643 -10.36456
 Alpha  occ. eigenvalues --  -10.33390 -10.32303 -10.31624 -10.31293 -10.29630
 Alpha  occ. eigenvalues --  -10.29393 -10.29231 -10.29207 -10.28994 -10.28882
 Alpha  occ. eigenvalues --  -10.28700 -10.28603 -10.28304 -10.28275 -10.28235
 Alpha  occ. eigenvalues --  -10.28193 -10.28170 -10.27878 -10.27422 -10.27066
 Alpha  occ. eigenvalues --  -10.27021 -10.27002 -10.26644 -10.26424 -10.26368
 Alpha  occ. eigenvalues --  -10.26227 -10.26191 -10.26149 -10.25899 -10.25851
 Alpha  occ. eigenvalues --  -10.25781 -10.25730 -10.25669 -10.25586 -10.25527
 Alpha  occ. eigenvalues --  -10.25525 -10.25477 -10.25458 -10.25448 -10.25343
 Alpha  occ. eigenvalues --  -10.25330 -10.25310 -10.25196 -10.25168 -10.24888
 Alpha  occ. eigenvalues --  -10.24737 -10.24542 -10.24522 -10.24452 -10.24297
 Alpha  occ. eigenvalues --  -10.24098 -10.24089 -10.23931 -10.23854 -10.23816
 Alpha  occ. eigenvalues --  -10.23693 -10.23524 -10.23453 -10.23360 -10.23107
 Alpha  occ. eigenvalues --  -10.23099 -10.22810 -10.22770 -10.22644 -10.22197
 Alpha  occ. eigenvalues --  -10.22102  -3.16471  -3.12918  -1.89248  -1.88896
 Alpha  occ. eigenvalues --   -1.88647  -1.85765  -1.85280  -1.85168  -1.10543
 Alpha  occ. eigenvalues --   -1.10537  -1.06352  -1.05187  -1.04266  -1.04129
 Alpha  occ. eigenvalues --   -1.03442  -1.01138  -0.99523  -0.98798  -0.98119
 Alpha  occ. eigenvalues --   -0.98058  -0.97473  -0.97207  -0.95987  -0.95974
 Alpha  occ. eigenvalues --   -0.88747  -0.86997  -0.83463  -0.83433  -0.83010
 Alpha  occ. eigenvalues --   -0.82941  -0.82306  -0.82085  -0.81547  -0.81377
 Alpha  occ. eigenvalues --   -0.81171  -0.80658  -0.80228  -0.79903  -0.79060
 Alpha  occ. eigenvalues --   -0.78559  -0.78125  -0.77939  -0.77192  -0.76972
 Alpha  occ. eigenvalues --   -0.76226  -0.75864  -0.75508  -0.75138  -0.75011
 Alpha  occ. eigenvalues --   -0.74618  -0.72484  -0.72354  -0.71649  -0.71578
 Alpha  occ. eigenvalues --   -0.71191  -0.71109  -0.70331  -0.70053  -0.69572
 Alpha  occ. eigenvalues --   -0.69215  -0.67365  -0.67174  -0.66315  -0.65400
 Alpha  occ. eigenvalues --   -0.64266  -0.63163  -0.63057  -0.62489  -0.61972
 Alpha  occ. eigenvalues --   -0.61690  -0.61242  -0.60903  -0.59954  -0.59831
 Alpha  occ. eigenvalues --   -0.59606  -0.59441  -0.59206  -0.59095  -0.59093
 Alpha  occ. eigenvalues --   -0.58605  -0.56759  -0.56549  -0.54839  -0.54612
 Alpha  occ. eigenvalues --   -0.54476  -0.54320  -0.53908  -0.53854  -0.53287
 Alpha  occ. eigenvalues --   -0.52911  -0.52730  -0.52417  -0.52103  -0.51583
 Alpha  occ. eigenvalues --   -0.50689  -0.50646  -0.50569  -0.50277  -0.50229
 Alpha  occ. eigenvalues --   -0.50045  -0.49492  -0.49424  -0.49143  -0.48416
 Alpha  occ. eigenvalues --   -0.48283  -0.48058  -0.47989  -0.47948  -0.47642
 Alpha  occ. eigenvalues --   -0.47311  -0.47310  -0.47184  -0.46733  -0.46472
 Alpha  occ. eigenvalues --   -0.46449  -0.46447  -0.46200  -0.45980  -0.45864
 Alpha  occ. eigenvalues --   -0.45807  -0.45772  -0.45471  -0.45163  -0.45004
 Alpha  occ. eigenvalues --   -0.44780  -0.44673  -0.44499  -0.44358  -0.44049
 Alpha  occ. eigenvalues --   -0.44016  -0.44003  -0.43799  -0.43604  -0.43561
 Alpha  occ. eigenvalues --   -0.43366  -0.43149  -0.42919  -0.42665  -0.42511
 Alpha  occ. eigenvalues --   -0.42411  -0.42203  -0.41946  -0.41840  -0.41621
 Alpha  occ. eigenvalues --   -0.41436  -0.41334  -0.41174  -0.40805  -0.40797
 Alpha  occ. eigenvalues --   -0.40629  -0.40597  -0.40574  -0.40533  -0.40512
 Alpha  occ. eigenvalues --   -0.40182  -0.40103  -0.40075  -0.39899  -0.39851
 Alpha  occ. eigenvalues --   -0.39503  -0.39458  -0.39295  -0.39224  -0.39224
 Alpha  occ. eigenvalues --   -0.39145  -0.38916  -0.38547  -0.38319  -0.38273
 Alpha  occ. eigenvalues --   -0.38170  -0.38133  -0.37862  -0.37818  -0.37648
 Alpha  occ. eigenvalues --   -0.37458  -0.37255  -0.37031  -0.37001  -0.36769
 Alpha  occ. eigenvalues --   -0.36727  -0.36412  -0.36150  -0.36115  -0.35860
 Alpha  occ. eigenvalues --   -0.35857  -0.35763  -0.35355  -0.35344  -0.34948
 Alpha  occ. eigenvalues --   -0.34898  -0.34085  -0.34068  -0.33783  -0.33508
 Alpha  occ. eigenvalues --   -0.33350  -0.33283  -0.32897  -0.32845  -0.32840
 Alpha  occ. eigenvalues --   -0.32622  -0.31745  -0.31588  -0.31402  -0.31307
 Alpha  occ. eigenvalues --   -0.31061  -0.30791  -0.30030  -0.29488  -0.29438
 Alpha  occ. eigenvalues --   -0.29132  -0.28963  -0.28587  -0.26942  -0.26752
 Alpha  occ. eigenvalues --   -0.26474  -0.26247  -0.25898  -0.25866  -0.25634
 Alpha  occ. eigenvalues --   -0.25234  -0.25144  -0.24847  -0.20994  -0.20926
 Alpha  occ. eigenvalues --   -0.19120  -0.18750
 Alpha virt. eigenvalues --   -0.11413  -0.11081  -0.06000  -0.04838  -0.04375
 Alpha virt. eigenvalues --   -0.03550  -0.03142  -0.02187  -0.01687  -0.00189
 Alpha virt. eigenvalues --    0.00106   0.00670   0.00791   0.01442   0.01680

 Mulliken charges:
               1
     1  Mg  11.999991
     2  C    6.000095
     3  C    6.000075
     4  C    5.999870
     5  C    5.999917
     6  N    7.000006
     7  C    5.999948
     8  C    6.000049
     9  C    5.999974
    10  C    6.000038
    11  C    5.999994
    12  C    6.000024
    13  C    5.999994
    14  H    0.999989
    15  N    7.000035
    16  C    6.000027
    17  C    6.000028
    18  C    6.000007
    19  C    6.000115
    20  C    5.999998
    21  C    6.000026
    22  O    8.000053
    23  C    5.999994
    24  N    7.000004
    25  C    6.000075
    26  C    5.999976
    27  C    5.999994
    28  C    5.999990
    29  C    5.999980
    30  C    6.000009
    31  C    5.999990
    32  N    6.999999
    33  C    5.999939
    34  C    5.999992
    35  C    6.000056
    36  C    5.999853
    37  C    5.999975
    38  C    5.999935
    39  O    7.999941
    40  C    5.999966
    41  C    6.000003
    42  O    8.000002
    43  O    7.999994
    44  C    6.000009
    45  H    1.000041
    46  H    1.000021
    47  H    0.999963
    48  H    0.999993
    49  H    1.000005
    50  H    1.000038
    51  H    1.000010
    52  H    1.000011
    53  H    0.999970
    54  H    0.999993
    55  H    0.999999
    56  H    1.000005
    57  H    1.000046
    58  H    1.000050
    59  H    1.000056
    60  H    1.000033
    61  H    1.000009
    62  H    1.000029
    63  H    0.999997
    64  H    0.999993
    65  H    1.000013
    66  H    1.000020
    67  H    1.000003
    68  H    1.000001
    69  H    0.999976
    70  H    0.999988
    71  H    1.000008
    72  H    0.999990
    73  H    0.999958
    74  H    0.999953
    75  H    0.999954
    76  H    0.999976
    77  H    0.999982
    78  H    0.999991
    79  H    1.000000
    80  Mg  11.998046
    81  C    5.982208
    82  C    6.012362
    83  C    6.013534
    84  C    5.985164
    85  N    6.996563
    86  C    6.024667
    87  C    5.996652
    88  C    6.001748
    89  C    5.972146
    90  C    6.001210
    91  C    5.995325
    92  C    5.999142
    93  H    1.006312
    94  N    7.009552
    95  C    5.958331
    96  C    5.981937
    97  C    5.987792
    98  C    5.969017
    99  C    6.004319
   100  C    5.990382
   101  O    7.978027
   102  C    6.002645
   103  N    6.996527
   104  C    5.970257
   105  C    6.010737
   106  C    5.987878
   107  C    6.035101
   108  C    6.003099
   109  C    6.000994
   110  C    5.992235
   111  N    6.997457
   112  C    6.042485
   113  C    6.027733
   114  C    6.000571
   115  C    6.026275
   116  C    6.001668
   117  C    6.019308
   118  O    8.030760
   119  C    5.997300
   120  C    6.002669
   121  O    8.005740
   122  O    8.001568
   123  C    5.997943
   124  H    0.991131
   125  H    0.996468
   126  H    1.009180
   127  H    0.998485
   128  H    0.999680
   129  H    0.986689
   130  H    1.002203
   131  H    0.998353
   132  H    1.011801
   133  H    0.997351
   134  H    0.994364
   135  H    1.002769
   136  H    0.981812
   137  H    0.985392
   138  H    0.983566
   139  H    0.989316
   140  H    0.989038
   141  H    0.988803
   142  H    0.999349
   143  H    1.004235
   144  H    1.008275
   145  H    0.994141
   146  H    0.995492
   147  H    1.009369
   148  H    1.000091
   149  H    1.008186
   150  H    0.996159
   151  H    1.001740
   152  H    1.015901
   153  H    1.011861
   154  H    1.014697
   155  H    1.009182
   156  H    1.004344
   157  H    1.005814
   158  H    0.999380
 Sum of Mulliken charges = 624.00000

 Dipole moment (field-independent basis, Debye):
    X=              2.4395    Y=             -9.6158    Z=             -0.5859  Tot=              9.9378
 Quadrupole moment (field-independent basis, Debye-Ang):
   XX=            144.7657   YY=            -11.8069   ZZ=              1.0774
   XY=           -278.9063   XZ=            -19.4678   YZ=             -0.1424

 Normal termination of Gaussian 16 at Thu Oct 14 01:46:22 2021.
