 Gaussian 16, Revision A.03,
 Gaussian 16:  ES64L-G16RevA.03 25-Dec-2016

 --------------------------------------------------------
 #p PBE1PBE/Def2SVP td=(nstates=5) density=(transition=1)
 --------------------------------------------------------

 --------------------------------
 TDDFT excited states in gaussian
 --------------------------------
 Symbolic Z-matrix:
 Charge =  0 Multiplicity = 1

                         Standard orientation:
 ---------------------------------------------------------------------
 Center     Atomic      Atomic             Coordinates (Angstroms)
 Number     Number       Type             X           Y           Z
 ---------------------------------------------------------------------
      1         12           0       24.196836    0.521176   -0.337827
      2          6           0       23.018880   -1.918281    1.971620
      3          6           0       22.759385    2.950249    1.625824
      4          6           0       25.313548    2.634080   -2.619816
      5          6           0       25.203391   -2.137087   -2.537784
      6          7           0       22.923000    0.524649    1.609526
      7          6           0       22.700698   -0.608975    2.369651
      8          6           0       21.964887   -0.125382    3.666103
      9          6           0       21.835625    1.485308    3.539769
     10          6           0       22.526765    1.659865    2.183619
     11          6           0       20.411534    2.064899    3.668308
     12          6           0       22.527808   -0.648067    5.052000
     13          6           0       21.555370   -1.412628    5.902329
     14          1           0       20.064633   -1.203605    5.859742
     15          7           0       24.160533    2.619995   -0.416098
     16          6           0       23.513016    3.411117    0.479805
     17          6           0       23.871216    4.764376    0.140785
     18          6           0       24.508991    4.708513   -1.117286
     19          6           0       24.690955    3.269952   -1.497774
     20          6           0       23.386378    5.931408    1.017387
     21          6           0       24.837544    5.861503   -2.016644
     22          8           0       25.298949    5.684118   -3.168985
     23          6           0       24.557972    7.244575   -1.557960
     24          7           0       25.080219    0.215251   -2.353813
     25          6           0       25.505164    1.235002   -3.014998
     26          6           0       26.302250    0.936403   -4.394368
     27          6           0       26.235905   -0.597952   -4.355558
     28          6           0       25.499904   -0.873729   -3.067292
     29          6           0       25.547300    1.613416   -5.596383
     30          6           0       27.601211   -1.368390   -4.423708
     31          6           0       28.490432   -1.313893   -3.158781
     32          7           0       24.018692   -1.515739   -0.353315
     33          6           0       24.458663   -2.433658   -1.335897
     34          6           0       24.231490   -3.789429   -0.817241
     35          6           0       23.678334   -3.631820    0.476219
     36          6           0       23.606048   -2.221292    0.734871
     37          6           0       24.587263   -5.112576   -1.559072
     38          6           0       23.238856   -4.354612    1.549049
     39          8           0       23.111859   -5.547956    1.733417
     40          6           0       22.830612   -3.316591    2.631420
     41          6           0       21.474665   -3.595852    3.044393
     42          8           0       20.462869   -3.141746    2.498288
     43          8           0       21.472748   -4.629439    3.988609
     44          6           0       20.121598   -5.129932    4.343552
     45          1           0       22.150485    3.772154    2.009141
     46          1           0       25.526215    3.334130   -3.430569
     47          1           0       25.493907   -2.981870   -3.165717
     48          1           0       21.043733   -0.692158    3.536986
     49          1           0       22.365391    1.945183    4.372828
     50          1           0       20.370862    2.815123    4.459035
     51          1           0       19.603179    1.351302    3.826917
     52          1           0       20.235637    2.536594    2.701525
     53          1           0       22.924688    0.185639    5.631576
     54          1           0       23.319805   -1.350314    4.791710
     55          1           0       21.680414   -1.039281    6.919355
     56          1           0       21.777642   -2.473144    5.789406
     57          1           0       23.060350    5.597227    2.002607
     58          1           0       22.565347    6.446658    0.520517
     59          1           0       24.256306    6.581262    1.106744
     60          1           0       25.111837    7.387040   -0.630019
     61          1           0       23.501679    7.379903   -1.322365
     62          1           0       24.795563    7.964315   -2.340268
     63          1           0       27.334689    1.282425   -4.339154
     64          1           0       25.519233   -0.949534   -5.098119
     65          1           0       24.487535    1.649270   -5.344120
     66          1           0       25.654130    0.968451   -6.469283
     67          1           0       25.851271    2.618068   -5.891410
     68          1           0       28.124979   -1.110018   -5.343498
     69          1           0       27.373086   -2.414671   -4.624645
     70          1           0       28.439521   -0.404179   -2.561445
     71          1           0       29.511168   -1.560907   -3.452831
     72          1           0       28.165402   -2.159494   -2.552831
     73          1           0       25.151418   -5.811783   -0.941783
     74          1           0       25.115215   -4.951729   -2.498340
     75          1           0       23.687278   -5.722057   -1.644483
     76          1           0       23.536328   -3.546632    3.428957
     77          1           0       19.678291   -5.664616    3.503884
     78          1           0       19.402123   -4.350319    4.591228
     79          1           0       20.230750   -5.657692    5.291156
     80         12           0      -23.955638    0.598666    0.568541
     81          6           0      -23.202463   -2.513142   -1.004694
     82          6           0      -20.948192    1.592714   -0.420967
     83          6           0      -24.907811    3.798802    1.091990
     84          6           0      -27.341387   -0.513486    0.564529
     85          7           0      -22.289557   -0.355777   -0.433885
     86          6           0      -22.137200   -1.669623   -0.927454
     87          6           0      -20.733383   -1.928704   -1.559535
     88          6           0      -20.025632   -0.570788   -1.289062
     89          6           0      -21.114946    0.267166   -0.586786
     90          6           0      -18.748356   -0.868326   -0.486096
     91          6           0      -20.679776   -2.339407   -3.094231
     92          6           0      -20.177160   -3.743100   -3.411315
     93          1           0      -18.979216   -3.867653   -4.374791
     94          7           0      -23.071236    2.408040    0.467570
     95          6           0      -21.769435    2.608509    0.008891
     96          6           0      -21.386306    3.951180    0.182371
     97          6           0      -22.444170    4.627111    0.761894
     98          6           0      -23.532296    3.671020    0.797127
     99          6           0      -20.008518    4.634692   -0.151389
    100          6           0      -22.366197    6.077407    1.177653
    101          8           0      -21.365660    6.730507    1.154364
    102          6           0      -23.712217    6.687967    1.809421
    103          7           0      -25.853051    1.542526    0.726888
    104          6           0      -25.959120    2.882324    0.983312
    105          6           0      -27.501463    3.238590    0.943822
    106          6           0      -28.279151    1.912355    0.910309
    107          6           0      -27.094089    0.894075    0.702144
    108          6           0      -27.946782    4.237319    1.973977
    109          6           0      -29.186663    1.886472   -0.313293
    110          6           0      -30.378502    0.967435   -0.270032
    111          7           0      -25.047474   -1.243943    0.150352
    112          6           0      -26.389552   -1.530955    0.225620
    113          6           0      -26.619656   -2.890643   -0.103631
    114          6           0      -25.382118   -3.413959   -0.547317
    115          6           0      -24.494750   -2.303286   -0.474092
    116          6           0      -27.914345   -3.597718   -0.154408
    117          6           0      -24.616630   -4.542163   -1.094668
    118          8           0      -24.993016   -5.704348   -1.297598
    119          6           0      -23.156412   -4.029955   -1.398076
    120          6           0      -22.238385   -4.652332   -0.481812
    121          8           0      -22.174233   -4.290859    0.717019
    122          8           0      -21.598574   -5.628157   -1.155789
    123          6           0      -20.448314   -6.309667   -0.501218
    124          1           0      -19.951015    1.942405   -0.697563
    125          1           0      -25.165337    4.834972    1.321594
    126          1           0      -28.339516   -0.945637    0.658258
    127          1           0      -20.220891   -2.715233   -1.005703
    128          1           0      -19.757031   -0.031411   -2.196864
    129          1           0      -18.350382    0.092900   -0.162173
    130          1           0      -17.959733   -1.395313   -1.023012
    131          1           0      -18.946715   -1.470263    0.401423
    132          1           0      -19.902532   -1.696325   -3.507126
    133          1           0      -21.639563   -2.136939   -3.569662
    134          1           0      -21.022865   -4.307323   -3.805916
    135          1           0      -19.841359   -4.218915   -2.489261
    136          1           0      -20.251965    5.490870   -0.780841
    137          1           0      -19.341586    3.965024   -0.694165
    138          1           0      -19.388675    4.899225    0.705262
    139          1           0      -23.445774    7.686242    2.155344
    140          1           0      -23.952786    5.977636    2.600763
    141          1           0      -24.394043    6.651034    0.959857
    142          1           0      -27.613475    3.739587   -0.018363
    143          1           0      -28.884585    1.674268    1.784820
    144          1           0      -28.988560    4.033037    2.219588
    145          1           0      -27.821577    5.216794    1.511973
    146          1           0      -27.309138    4.290909    2.855611
    147          1           0      -28.652025    1.668090   -1.238180
    148          1           0      -29.571357    2.875842   -0.560712
    149          1           0      -30.566188    0.561882    0.723985
    150          1           0      -30.185226    0.141437   -0.954785
    151          1           0      -31.247388    1.440618   -0.727351
    152          1           0      -28.633968   -3.172023    0.545615
    153          1           0      -27.691019   -4.631512    0.110328
    154          1           0      -28.283191   -3.451346   -1.169866
    155          1           0      -22.855000   -4.101656   -2.443128
    156          1           0      -20.561609   -7.311810   -0.917274
    157          1           0      -20.471885   -6.273617    0.587533
    158          1           0      -19.498407   -5.997010   -0.936143
 ---------------------------------------------------------------------

 SCF Done:  E(RPBE1PBE) =  -4067.37463647     A.U. after   15 cycles

 Excitation energies and oscillator strengths:

 Excited State   1:      Singlet-A      1.8677 eV  663.85 nm  f=0.2480  <S**2>=0.000
     310 -> 315       -0.18352
     311 -> 313       -0.13360
     312 -> 314        0.67493
 This state for optimization and/or second-order correction.
 Total Energy, E(TD-HF/TD-DFT) =  -4067.30600123
 Copying the excited state density for this state as the 1-particle RhoCI density.

 Excited State   2:      Singlet-A      1.8689 eV  663.40 nm  f=0.4850  <S**2>=0.000
     309 -> 316        0.16382
     311 -> 313        0.68120
     312 -> 314        0.13235
     311 <- 313       -0.10751

 Excited State   3:      Singlet-A      1.9978 eV  620.60 nm  f=0.0000  <S**2>=0.000
     312 -> 313        0.70711

 Excited State   4:      Singlet-A      2.0485 eV  605.25 nm  f=0.0000  <S**2>=0.000
     311 -> 314        0.70711

 Excited State   5:      Singlet-A      2.2069 eV  561.81 nm  f=0.1036  <S**2>=0.000
     310 -> 314        0.65388
     312 -> 315        0.25872

 The electronic state is 1-A.
 Alpha  occ. eigenvalues --  -46.93207 -46.91939 -19.27157 -19.25013 -19.19931
 Alpha  occ. eigenvalues --  -19.19727 -19.19606 -19.19141 -19.18700 -19.18140
 Alpha  occ. eigenvalues --  -14.42066 -14.41967 -14.41773 -14.41437 -14.39537
 Alpha  occ. eigenvalues --  -14.39302 -14.39093 -14.38244 -10.36507 -10.35689
 Alpha  occ. eigenvalues --  -10.32700 -10.32507 -10.31890 -10.30692 -10.30064
 Alpha  occ. eigenvalues --  -10.29479 -10.29437 -10.29245 -10.29175 -10.29024
 Alpha  occ. eigenvalues --  -10.28809 -10.28499 -10.28442 -10.28233 -10.28174
 Alpha  occ. eigenvalues --  -10.28090 -10.28077 -10.27972 -10.27036 -10.26762
 Alpha  occ. eigenvalues --  -10.26681 -10.26623 -10.26579 -10.26517 -10.26173
 Alpha  occ. eigenvalues --  -10.26173 -10.26132 -10.26001 -10.25981 -10.25928
 Alpha  occ. eigenvalues --  -10.25862 -10.25664 -10.25643 -10.25626 -10.25512
 Alpha  occ. eigenvalues --  -10.25481 -10.25393 -10.25315 -10.25311 -10.25138
 Alpha  occ. eigenvalues --  -10.25071 -10.25037 -10.25030 -10.25019 -10.24941
 Alpha  occ. eigenvalues --  -10.24891 -10.24725 -10.24565 -10.24543 -10.24346
 Alpha  occ. eigenvalues --  -10.24226 -10.23840 -10.23765 -10.23682 -10.23588
 Alpha  occ. eigenvalues --  -10.23555 -10.23440 -10.23436 -10.23417 -10.23390
 Alpha  occ. eigenvalues --  -10.23343 -10.23266 -10.23034 -10.22831 -10.22650
 Alpha  occ. eigenvalues --  -10.22021  -3.15130  -3.14111  -1.87984  -1.87539
 Alpha  occ. eigenvalues --   -1.87309  -1.86927  -1.86465  -1.86361  -1.11419
 Alpha  occ. eigenvalues --   -1.09173  -1.06605  -1.04324  -1.03546  -1.02872
 Alpha  occ. eigenvalues --   -1.02196  -1.01209  -1.00747  -0.98677  -0.98194
 Alpha  occ. eigenvalues --   -0.97869  -0.97602  -0.97481  -0.96607  -0.96378
 Alpha  occ. eigenvalues --   -0.86877  -0.86628  -0.84071  -0.83970  -0.83565
 Alpha  occ. eigenvalues --   -0.82973  -0.82390  -0.82052  -0.81643  -0.81407
 Alpha  occ. eigenvalues --   -0.81118  -0.81023  -0.80830  -0.79942  -0.79049
 Alpha  occ. eigenvalues --   -0.78573  -0.78565  -0.77705  -0.77530  -0.76850
 Alpha  occ. eigenvalues --   -0.76223  -0.76156  -0.75498  -0.75043  -0.74514
 Alpha  occ. eigenvalues --   -0.74404  -0.72447  -0.72090  -0.71894  -0.71651
 Alpha  occ. eigenvalues --   -0.70908  -0.70793  -0.70567  -0.70110  -0.69438
 Alpha  occ. eigenvalues --   -0.69328  -0.67261  -0.67084  -0.66169  -0.66001
 Alpha  occ. eigenvalues --   -0.64797  -0.63550  -0.63543  -0.63029  -0.62275
 Alpha  occ. eigenvalues --   -0.62221  -0.61621  -0.61232  -0.60071  -0.59999
 Alpha  occ. eigenvalues --   -0.59802  -0.59516  -0.59438  -0.59150  -0.59129
 Alpha  occ. eigenvalues --   -0.58792  -0.56848  -0.56103  -0.54647  -0.54605
 Alpha  occ. eigenvalues --   -0.54224  -0.54131  -0.53905  -0.53273  -0.53027
 Alpha  occ. eigenvalues --   -0.52823  -0.52721  -0.52465  -0.52138  -0.51824
 Alpha  occ. eigenvalues --   -0.50937  -0.50842  -0.50570  -0.50561  -0.49878
 Alpha  occ. eigenvalues --   -0.49578  -0.49446  -0.49281  -0.48891  -0.48433
 Alpha  occ. eigenvalues --   -0.48177  -0.47754  -0.47656  -0.47567  -0.47442
 Alpha  occ. eigenvalues --   -0.47319  -0.47212  -0.46933  -0.46744  -0.46607
 Alpha  occ. eigenvalues --   -0.46250  -0.46120  -0.46103  -0.45840  -0.45833
 Alpha  occ. eigenvalues --   -0.45517  -0.45182  -0.45042  -0.44838  -0.44813
 Alpha  occ. eigenvalues --   -0.44485  -0.44471  -0.44353  -0.44118  -0.43850
 Alpha  occ. eigenvalues --   -0.43774  -0.43754  -0.43570  -0.43534  -0.43357
 Alpha  occ. eigenvalues --   -0.43222  -0.43067  -0.42943  -0.42690  -0.42664
 Alpha  occ. eigenvalues --   -0.42502  -0.42207  -0.42196  -0.42023  -0.41999
 Alpha  occ. eigenvalues --   -0.41662  -0.41443  -0.41335  -0.41239  -0.41117
 Alpha  occ. eigenvalues --   -0.41003  -0.40903  -0.40778  -0.40615  -0.40312
 Alpha  occ. eigenvalues --   -0.40293  -0.40041  -0.39903  -0.39805  -0.39565
 Alpha  occ. eigenvalues --   -0.39498  -0.39485  -0.39125  -0.39098  -0.38881
 Alpha  occ. eigenvalues --   -0.38665  -0.38485  -0.38388  -0.38313  -0.38118
 Alpha  occ. eigenvalues --   -0.38071  -0.37999  -0.37898  -0.37661  -0.37654
 Alpha  occ. eigenvalues --   -0.37400  -0.37371  -0.37214  -0.37160  -0.36812
 Alpha  occ. eigenvalues --   -0.36768  -0.36694  -0.36587  -0.36521  -0.36519
 Alpha  occ. eigenvalues --   -0.36203  -0.36075  -0.35972  -0.35527  -0.35512
 Alpha  occ. eigenvalues --   -0.35192  -0.35091  -0.35037  -0.34672  -0.34076
 Alpha  occ. eigenvalues --   -0.34070  -0.33383  -0.33168  -0.32616  -0.32201
 Alpha  occ. eigenvalues --   -0.31944  -0.31765  -0.31715  -0.31506  -0.31084
 Alpha  occ. eigenvalues --   -0.31060  -0.30579  -0.29416  -0.29143  -0.29104
 Alpha  occ. eigenvalues --   -0.28681  -0.28581  -0.28467  -0.27387  -0.26867
 Alpha  occ. eigenvalues --   -0.26148  -0.25772  -0.25763  -0.25631  -0.25515
 Alpha  occ. eigenvalues --   -0.25514  -0.25194  -0.24747  -0.21167  -0.20721
 Alpha  occ. eigenvalues --   -0.18871  -0.18849
 Alpha virt. eigenvalues --   -0.11232  -0.11070  -0.05276  -0.05247  -0.04045
 Alpha virt. eigenvalues --   -0.03711  -0.02081  -0.01678  -0.00514  -0.00179
 Alpha virt. eigenvalues --    0.00010   0.00356   0.00565   0.01394   0.01468

 Mulliken charges:
               1
     1  Mg  11.999506
     2  C    5.990838
     3  C    6.015932
     4  C    6.000691
     5  C    5.984478
     6  N    6.997246
     7  C    6.021273
     8  C    5.993507
     9  C    6.015385
    10  C    5.966634
    11  C    5.999346
    12  C    5.998656
    13  C    5.997982
    14  H    1.004565
    15  N    7.012618
    16  C    5.961546
    17  C    5.982667
    18  C    5.985404
    19  C    5.974030
    20  C    6.000939
    21  C    5.987785
    22  O    7.972128
    23  C    6.003977
    24  N    6.990688
    25  C    5.974522
    26  C    6.006633
    27  C    5.992284
    28  C    6.037682
    29  C    6.004217
    30  C    5.996025
    31  C    5.996920
    32  N    6.998859
    33  C    6.041541
    34  C    6.025588
    35  C    6.001596
    36  C    6.025473
    37  C    5.999057
    38  C    6.014178
    39  O    8.027550
    40  C    6.000875
    41  C    6.004630
    42  O    8.008598
    43  O    7.999731
    44  C    5.997396
    45  H    0.995477
    46  H    0.993181
    47  H    1.007487
    48  H    0.997409
    49  H    0.996293
    50  H    0.998064
    51  H    0.990195
    52  H    1.003274
    53  H    1.007689
    54  H    0.994903
    55  H    1.003768
    56  H    0.995358
    57  H    0.984374
    58  H    0.983865
    59  H    0.986743
    60  H    0.993091
    61  H    0.993124
    62  H    0.986514
    63  H    0.999666
    64  H    1.001778
    65  H    1.000318
    66  H    0.989785
    67  H    1.003938
    68  H    1.008731
    69  H    0.997066
    70  H    1.010460
    71  H    1.004476
    72  H    0.992206
    73  H    1.016965
    74  H    1.016843
    75  H    1.016577
    76  H    1.007376
    77  H    1.001042
    78  H    1.005928
    79  H    1.004861
    80  Mg  11.999964
    81  C    6.003811
    82  C    5.999617
    83  C    5.996411
    84  C    6.001133
    85  N    7.003022
    86  C    5.994646
    87  C    6.002269
    88  C    5.997321
    89  C    6.005749
    90  C    5.999522
    91  C    6.000433
    92  C    6.000450
    93  H    0.998725
    94  N    6.999526
    95  C    6.006279
    96  C    6.004329
    97  C    6.001908
    98  C    6.006308
    99  C    5.999682
   100  C    6.001556
   101  O    8.003256
   102  C    6.000726
   103  N    6.999173
   104  C    6.005137
   105  C    5.999466
   106  C    6.001204
   107  C    5.993981
   108  C    5.999902
   109  C    6.001416
   110  C    6.000088
   111  N    6.999586
   112  C    5.993939
   113  C    5.994537
   114  C    5.999173
   115  C    5.994444
   116  C    6.000190
   117  C    5.996527
   118  O    7.994388
   119  C    5.999575
   120  C    5.999590
   121  O    7.998913
   122  O    7.999777
   123  C    6.000335
   124  H    1.002592
   125  H    1.001138
   126  H    0.998249
   127  H    0.999792
   128  H    1.000482
   129  H    0.998978
   130  H    1.002126
   131  H    1.001859
   132  H    0.998378
   133  H    1.000386
   134  H    1.000907
   135  H    1.000181
   136  H    1.002839
   137  H    1.003156
   138  H    1.003428
   139  H    1.002193
   140  H    1.001332
   141  H    1.001501
   142  H    0.999934
   143  H    0.999403
   144  H    1.001535
   145  H    0.999163
   146  H    0.999563
   147  H    0.999571
   148  H    0.997675
   149  H    1.000001
   150  H    1.000986
   151  H    0.998942
   152  H    0.996751
   153  H    0.997280
   154  H    0.996035
   155  H    0.997973
   156  H    0.999605
   157  H    0.999417
   158  H    0.998665
 Sum of Mulliken charges = 624.00000

 Dipole moment (field-independent basis, Debye):
    X=              0.8842    Y=             -8.2788    Z=              0.8405  Tot=              8.3682
 Quadrupole moment (field-independent basis, Debye-Ang):
   XX=            -58.4553   YY=             -8.4882   ZZ=              1.1650
   XY=           -276.8743   XZ=             10.5935   YZ=              4.0131

 Normal termination of Gaussian 16 at Thu Oct 14 11:55:37 2021.
