 Gaussian 16, Revision A.03,
 Gaussian 16:  ES64L-G16RevA.03 25-Dec-2016

 --------------------------------------------------------
 #p PBE1PBE/Def2SVP td=(nstates=5) density=(transition=1)
 --------------------------------------------------------

 --------------------------------
 TDDFT excited states in gaussian
 --------------------------------
 Symbolic Z-matrix:
 Charge =  0 Multiplicity = 1

                         Standard orientation:
 ---------------------------------------------------------------------
 Center     Atomic      Atomic             Coordinates (Angstroms)
 Number     Number       Type             X           Y           Z
 ---------------------------------------------------------------------
      1         12           0       21.523343    0.669226   -0.103913
      2          6           0       21.698488   -2.869448    0.013733
      3          6           0       18.775216    0.478508    1.880790
      4          6           0       21.863896    4.007810    0.441307
      5          6           0       24.613232    0.666634   -1.674046
      6          7           0       20.537252   -1.087392    0.920042
      7          6           0       20.676346   -2.442000    0.772487
      8          6           0       19.617143   -3.192244    1.490938
      9          6           0       18.515999   -2.069335    1.789665
     10          6           0       19.300154   -0.826731    1.538973
     11          6           0       17.293153   -2.223490    0.899795
     12          6           0       20.279296   -3.872133    2.699626
     13          6           0       20.088195   -5.439547    2.856496
     14          1           0       19.510699   -6.058283    4.165070
     15          7           0       20.482766    2.103444    0.950018
     16          6           0       19.299930    1.812558    1.643776
     17          6           0       18.715955    3.056347    2.047396
     18          6           0       19.598259    4.127364    1.678500
     19          6           0       20.674795    3.431945    0.923513
     20          6           0       17.358683    3.093484    2.737924
     21          6           0       19.457335    5.609666    1.943408
     22          8           0       18.350755    5.924101    2.469800
     23          6           0       20.512089    6.736479    1.754727
     24          7           0       23.034298    2.175516   -0.557928
     25          6           0       22.919326    3.486919   -0.253110
     26          6           0       24.150867    4.325408   -0.686652
     27          6           0       24.984881    3.254115   -1.470506
     28          6           0       24.167764    1.911715   -1.165259
     29          6           0       23.695826    5.502192   -1.531080
     30          6           0       26.414396    3.114621   -1.044130
     31          6           0       27.405622    3.574638   -2.078433
     32          7           0       22.809711   -0.699278   -0.868337
     33          6           0       24.032619   -0.609506   -1.545243
     34          6           0       24.421742   -1.817798   -2.069351
     35          6           0       23.512223   -2.741102   -1.514458
     36          6           0       22.608466   -2.021669   -0.735956
     37          6           0       25.507857   -1.970021   -3.113157
     38          6           0       23.114762   -4.174061   -1.528406
     39          8           0       23.597101   -5.085325   -2.126259
     40          6           0       21.970618   -4.234501   -0.446945
     41          6           0       20.906321   -5.167062   -0.982894
     42          8           0       20.729726   -6.322712   -0.597232
     43          8           0       20.112746   -4.503852   -1.950179
     44          6           0       18.990708   -5.322987   -2.407652
     45          1           0       17.778860    0.431384    2.325777
     46          1           0       21.964138    5.093824    0.505907
     47          1           0       25.661946    0.576468   -1.962572
     48          1           0       19.210827   -3.962732    0.835563
     49          1           0       18.195333   -2.176782    2.825531
     50          1           0       17.535975   -2.540880   -0.113378
     51          1           0       16.835786   -1.241396    0.775211
     52          1           0       16.518762   -2.863005    1.323337
     53          1           0       19.888579   -3.384467    3.592606
     54          1           0       21.343201   -3.656583    2.798364
     55          1           0       21.124046   -5.763554    2.752548
     56          1           0       19.631084   -5.863260    1.963058
     57          1           0       17.328102    2.402164    3.580103
     58          1           0       16.634965    2.753044    1.997458
     59          1           0       17.059593    4.029497    3.211647
     60          1           0       20.602701    6.810736    0.671510
     61          1           0       21.449713    6.412537    2.206564
     62          1           0       20.213115    7.673348    2.225577
     63          1           0       24.718589    4.744056    0.143942
     64          1           0       24.860385    3.399564   -2.543253
     65          1           0       22.906370    6.016245   -0.982541
     66          1           0       23.301727    5.112658   -2.470271
     67          1           0       24.433627    6.214846   -1.897746
     68          1           0       26.711091    2.086117   -0.838558
     69          1           0       26.702795    3.618829   -0.122005
     70          1           0       28.060686    4.308120   -1.609950
     71          1           0       26.937273    4.111989   -2.903057
     72          1           0       27.969475    2.767839   -2.547882
     73          1           0       25.355800   -2.951978   -3.562352
     74          1           0       26.507084   -1.917918   -2.681458
     75          1           0       25.342241   -1.144725   -3.805301
     76          1           0       22.441737   -4.821947    0.341974
     77          1           0       18.169170   -4.691016   -2.745247
     78          1           0       18.531656   -5.865023   -1.582087
     79          1           0       19.273584   -6.047384   -3.171909
     80         12           0      -22.231327    0.135617   -0.403143
     81          6           0      -19.049750   -0.727541    0.729146
     82          6           0      -23.348675   -3.007631    0.466400
     83          6           0      -25.164021    1.192704   -1.427923
     84          6           0      -21.208347    3.630650   -0.258947
     85          7           0      -21.198807   -1.724341    0.474973
     86          6           0      -19.902386   -1.843209    0.890651
     87          6           0      -19.623469   -3.221561    1.375512
     88          6           0      -21.030428   -3.940556    1.328012
     89          6           0      -21.974716   -2.838627    0.706812
     90          6           0      -21.023585   -5.334167    0.650776
     91          6           0      -19.010547   -3.251887    2.796723
     92          6           0      -17.735423   -4.092976    2.818742
     93          1           0      -17.640920   -5.228155    3.882436
     94          7           0      -24.014675   -0.801829   -0.499587
     95          6           0      -24.298271   -2.118919   -0.141294
     96          6           0      -25.693774   -2.327774   -0.505143
     97          6           0      -26.252844   -1.105744   -1.105316
     98          6           0      -25.099427   -0.151331   -1.105411
     99          6           0      -26.427435   -3.518859   -0.137857
    100          6           0      -27.685373   -0.964319   -1.415325
    101          8           0      -28.505223   -1.847210   -1.272921
    102          6           0      -28.319083    0.311685   -1.847865
    103          7           0      -23.023943    2.067506   -0.724896
    104          6           0      -24.195822    2.192815   -1.427076
    105          6           0      -24.506544    3.655395   -1.665685
    106          6           0      -23.493625    4.379190   -0.859871
    107          6           0      -22.547478    3.335642   -0.526117
    108          6           0      -24.626283    4.077655   -3.187256
    109          6           0      -24.058053    4.923381    0.497215
    110          6           0      -23.438687    6.133595    1.025956
    111          7           0      -20.482944    1.280769    0.093189
    112          6           0      -20.191824    2.650314    0.043227
    113          6           0      -18.780412    2.831626    0.177079
    114          6           0      -18.288425    1.569193    0.486824
    115          6           0      -19.386824    0.637434    0.464559
    116          6           0      -18.098455    4.144473    0.058078
    117          6           0      -17.129522    0.856008    0.851388
    118          8           0      -15.991908    1.241922    1.002832
    119          6           0      -17.544107   -0.627928    0.965663
    120          6           0      -16.713959   -1.430061    0.053032
    121          8           0      -16.950410   -1.634899   -1.149521
    122          8           0      -15.548251   -1.790965    0.688915
    123          6           0      -14.598491   -2.675245    0.033342
    124          1           0      -23.616554   -4.037983    0.707166
    125          1           0      -26.088793    1.690403   -1.730334
    126          1           0      -20.939455    4.689037   -0.255313
    127          1           0      -19.103544   -3.696102    0.542816
    128          1           0      -21.432265   -4.176566    2.312889
    129          1           0      -19.966595   -5.601226    0.682655
    130          1           0      -21.486025   -5.401527   -0.334021
    131          1           0      -21.568434   -6.047915    1.268197
    132          1           0      -19.633608   -3.750918    3.538697
    133          1           0      -18.829823   -2.212698    3.070944
    134          1           0      -17.031569   -3.331552    3.154456
    135          1           0      -17.537711   -4.406008    1.794610
    136          1           0      -25.736789   -4.198348    0.362003
    137          1           0      -26.815264   -4.115421   -0.964115
    138          1           0      -27.211560   -3.254462    0.572482
    139          1           0      -27.606990    0.603330   -2.619876
    140          1           0      -28.302757    1.009769   -1.010482
    141          1           0      -29.313407    0.140047   -2.260697
    142          1           0      -25.510990    3.760163   -1.257200
    143          1           0      -22.881447    5.127793   -1.362899
    144          1           0      -24.645724    3.195796   -3.827877
    145          1           0      -23.921238    4.845086   -3.508629
    146          1           0      -25.607077    4.476165   -3.445258
    147          1           0      -24.012067    4.132490    1.245965
    148          1           0      -25.118003    5.159670    0.404876
    149          1           0      -23.939914    6.999095    0.591257
    150          1           0      -22.362261    6.157525    0.852963
    151          1           0      -23.723306    6.264132    2.070510
    152          1           0      -18.544535    4.750113   -0.730675
    153          1           0      -17.020210    4.072028   -0.085090
    154          1           0      -18.367644    4.655214    0.982671
    155          1           0      -17.273769   -1.071037    1.924230
    156          1           0      -14.002907   -2.292874   -0.795680
    157          1           0      -15.105724   -3.589792   -0.273264
    158          1           0      -13.854514   -2.876135    0.803320
 ---------------------------------------------------------------------

 SCF Done:  E(RPBE1PBE) =  -4067.34859505     A.U. after   16 cycles

 Excitation energies and oscillator strengths:

 Excited State   1:      Singlet-A      1.8373 eV  674.82 nm  f=0.3641  <S**2>=0.000
     310 -> 315       -0.18238
     312 -> 314        0.68898
     312 <- 314       -0.10407
 This state for optimization and/or second-order correction.
 Total Energy, E(TD-HF/TD-DFT) =  -4067.28107599
 Copying the excited state density for this state as the 1-particle RhoCI density.

 Excited State   2:      Singlet-A      1.8486 eV  670.71 nm  f=0.3337  <S**2>=0.000
     309 -> 316        0.16605
     311 -> 313        0.69339
     311 <- 313       -0.11245

 Excited State   3:      Singlet-A      1.9528 eV  634.92 nm  f=0.0000  <S**2>=0.000
     312 -> 313        0.70711

 Excited State   4:      Singlet-A      2.0023 eV  619.21 nm  f=0.0000  <S**2>=0.000
     311 -> 314        0.70711

 Excited State   5:      Singlet-A      2.1967 eV  564.41 nm  f=0.0972  <S**2>=0.000
     310 -> 314        0.64584
     312 -> 315        0.27299

 The electronic state is 1-A.
 Alpha  occ. eigenvalues --  -46.92413 -46.92321 -19.26288 -19.25519 -19.21263
 Alpha  occ. eigenvalues --  -19.20099 -19.19581 -19.18629 -19.18519 -19.17589
 Alpha  occ. eigenvalues --  -14.41927 -14.41833 -14.41684 -14.41451 -14.39921
 Alpha  occ. eigenvalues --  -14.39706 -14.38855 -14.38728 -10.37418 -10.36089
 Alpha  occ. eigenvalues --  -10.32834 -10.32677 -10.31354 -10.30804 -10.29684
 Alpha  occ. eigenvalues --  -10.29327 -10.29322 -10.29183 -10.28910 -10.28899
 Alpha  occ. eigenvalues --  -10.28887 -10.28721 -10.28708 -10.28535 -10.28301
 Alpha  occ. eigenvalues --  -10.28282 -10.28282 -10.28248 -10.27697 -10.26835
 Alpha  occ. eigenvalues --  -10.26792 -10.26650 -10.26496 -10.26401 -10.26328
 Alpha  occ. eigenvalues --  -10.26199 -10.26187 -10.26183 -10.26157 -10.26139
 Alpha  occ. eigenvalues --  -10.26126 -10.26028 -10.26027 -10.26016 -10.25966
 Alpha  occ. eigenvalues --  -10.25819 -10.25750 -10.25682 -10.25451 -10.25433
 Alpha  occ. eigenvalues --  -10.25301 -10.25137 -10.25050 -10.25040 -10.24929
 Alpha  occ. eigenvalues --  -10.24787 -10.24762 -10.24671 -10.24643 -10.24623
 Alpha  occ. eigenvalues --  -10.24349 -10.24290 -10.24102 -10.24055 -10.23960
 Alpha  occ. eigenvalues --  -10.23943 -10.23769 -10.23696 -10.23568 -10.22986
 Alpha  occ. eigenvalues --  -10.22901 -10.22802 -10.22621 -10.22514 -10.22474
 Alpha  occ. eigenvalues --  -10.22254  -3.14556  -3.14393  -1.87376  -1.87237
 Alpha  occ. eigenvalues --   -1.86935  -1.86784  -1.86776  -1.86606  -1.10344
 Alpha  occ. eigenvalues --   -1.10205  -1.06856  -1.04850  -1.04571  -1.02802
 Alpha  occ. eigenvalues --   -1.02312  -1.01497  -0.99881  -0.99594  -0.98951
 Alpha  occ. eigenvalues --   -0.98471  -0.97995  -0.97632  -0.97406  -0.96169
 Alpha  occ. eigenvalues --   -0.87696  -0.87024  -0.85112  -0.84201  -0.83856
 Alpha  occ. eigenvalues --   -0.83637  -0.83381  -0.83365  -0.82193  -0.82055
 Alpha  occ. eigenvalues --   -0.81607  -0.81417  -0.80555  -0.80239  -0.79529
 Alpha  occ. eigenvalues --   -0.79103  -0.78867  -0.78618  -0.77742  -0.76938
 Alpha  occ. eigenvalues --   -0.76802  -0.76101  -0.75737  -0.75159  -0.75019
 Alpha  occ. eigenvalues --   -0.74833  -0.73016  -0.72288  -0.72146  -0.71753
 Alpha  occ. eigenvalues --   -0.71415  -0.71188  -0.70803  -0.70625  -0.69871
 Alpha  occ. eigenvalues --   -0.69743  -0.67992  -0.67871  -0.66676  -0.66492
 Alpha  occ. eigenvalues --   -0.63804  -0.63783  -0.63477  -0.63381  -0.62350
 Alpha  occ. eigenvalues --   -0.62125  -0.61867  -0.61684  -0.60935  -0.60699
 Alpha  occ. eigenvalues --   -0.60416  -0.60157  -0.59946  -0.59813  -0.59505
 Alpha  occ. eigenvalues --   -0.59278  -0.57687  -0.56619  -0.55301  -0.55081
 Alpha  occ. eigenvalues --   -0.54631  -0.54214  -0.54078  -0.54013  -0.53647
 Alpha  occ. eigenvalues --   -0.53638  -0.52720  -0.52542  -0.51855  -0.51385
 Alpha  occ. eigenvalues --   -0.50992  -0.50835  -0.50393  -0.50343  -0.50214
 Alpha  occ. eigenvalues --   -0.50042  -0.49740  -0.49435  -0.49025  -0.48984
 Alpha  occ. eigenvalues --   -0.48826  -0.48454  -0.48232  -0.47907  -0.47813
 Alpha  occ. eigenvalues --   -0.47466  -0.47394  -0.47098  -0.46840  -0.46769
 Alpha  occ. eigenvalues --   -0.46519  -0.46488  -0.46338  -0.46280  -0.46204
 Alpha  occ. eigenvalues --   -0.45972  -0.45819  -0.45736  -0.45525  -0.45153
 Alpha  occ. eigenvalues --   -0.45015  -0.44838  -0.44677  -0.44653  -0.44501
 Alpha  occ. eigenvalues --   -0.44278  -0.44196  -0.44105  -0.43778  -0.43589
 Alpha  occ. eigenvalues --   -0.43486  -0.43302  -0.43226  -0.43106  -0.43003
 Alpha  occ. eigenvalues --   -0.42652  -0.42424  -0.42301  -0.41890  -0.41839
 Alpha  occ. eigenvalues --   -0.41725  -0.41633  -0.41499  -0.41329  -0.41276
 Alpha  occ. eigenvalues --   -0.41172  -0.41028  -0.40885  -0.40824  -0.40654
 Alpha  occ. eigenvalues --   -0.40502  -0.40480  -0.40211  -0.40085  -0.40084
 Alpha  occ. eigenvalues --   -0.39947  -0.39752  -0.39681  -0.39331  -0.39246
 Alpha  occ. eigenvalues --   -0.38948  -0.38878  -0.38678  -0.38522  -0.38489
 Alpha  occ. eigenvalues --   -0.38221  -0.38141  -0.38095  -0.37891  -0.37814
 Alpha  occ. eigenvalues --   -0.37571  -0.37417  -0.37322  -0.37266  -0.37215
 Alpha  occ. eigenvalues --   -0.36960  -0.36906  -0.36612  -0.36567  -0.36406
 Alpha  occ. eigenvalues --   -0.36365  -0.36212  -0.36149  -0.36058  -0.36013
 Alpha  occ. eigenvalues --   -0.35588  -0.35152  -0.35055  -0.34085  -0.34051
 Alpha  occ. eigenvalues --   -0.33763  -0.33524  -0.33200  -0.32771  -0.32680
 Alpha  occ. eigenvalues --   -0.32390  -0.32316  -0.32200  -0.32023  -0.31455
 Alpha  occ. eigenvalues --   -0.31398  -0.31244  -0.30301  -0.29856  -0.29531
 Alpha  occ. eigenvalues --   -0.28923  -0.28854  -0.28227  -0.27422  -0.27031
 Alpha  occ. eigenvalues --   -0.26162  -0.25697  -0.25671  -0.25487  -0.25487
 Alpha  occ. eigenvalues --   -0.25099  -0.25054  -0.24328  -0.21379  -0.21263
 Alpha  occ. eigenvalues --   -0.19276  -0.19223
 Alpha virt. eigenvalues --   -0.11744  -0.11615  -0.05969  -0.05368  -0.03982
 Alpha virt. eigenvalues --   -0.03948  -0.02114  -0.02049  -0.00952  -0.00469
 Alpha virt. eigenvalues --   -0.00190  -0.00050   0.00719   0.00742   0.01222

 Mulliken charges:
               1
     1  Mg  11.999942
     2  C    6.001228
     3  C    6.000347
     4  C    5.998319
     5  C    5.999041
     6  N    7.001342
     7  C    5.998598
     8  C    6.000467
     9  C    5.999230
    10  C    6.001164
    11  C    5.999773
    12  C    6.000225
    13  C    5.999997
    14  H    0.999760
    15  N    6.999706
    16  C    6.001671
    17  C    6.001038
    18  C    6.000393
    19  C    6.002003
    20  C    5.999815
    21  C    6.000586
    22  O    8.001041
    23  C    6.000072
    24  N    6.999128
    25  C    6.001836
    26  C    5.999523
    27  C    6.000246
    28  C    5.999089
    29  C    5.999855
    30  C    6.000303
    31  C    6.000106
    32  N    6.999946
    33  C    5.998882
    34  C    5.998595
    35  C    5.999807
    36  C    5.998350
    37  C    6.000008
    38  C    5.999026
    39  O    7.998697
    40  C    5.999899
    41  C    5.999824
    42  O    7.999671
    43  O    8.000089
    44  C    6.000122
    45  H    1.000808
    46  H    1.000071
    47  H    0.999213
    48  H    1.000114
    49  H    1.000277
    50  H    1.000693
    51  H    0.999837
    52  H    1.000562
    53  H    0.999527
    54  H    1.000145
    55  H    1.000182
    56  H    1.000086
    57  H    1.000821
    58  H    1.000925
    59  H    1.000741
    60  H    1.000478
    61  H    1.000440
    62  H    1.000511
    63  H    0.999973
    64  H    0.999899
    65  H    0.999616
    66  H    1.000222
    67  H    1.000241
    68  H    1.000207
    69  H    0.999468
    70  H    0.999625
    71  H    0.999753
    72  H    1.000058
    73  H    0.999300
    74  H    0.999009
    75  H    0.999258
    76  H    0.999729
    77  H    0.999734
    78  H    0.999755
    79  H    0.999963
    80  Mg  12.001409
    81  C    6.012944
    82  C    5.986539
    83  C    5.982909
    84  C    6.015066
    85  N    7.004415
    86  C    5.970435
    87  C    6.012469
    88  C    5.992479
    89  C    6.026501
    90  C    5.997337
    91  C    6.000966
    92  C    6.001176
    93  H    0.992614
    94  N    6.991298
    95  C    6.040893
    96  C    6.021630
    97  C    6.011097
    98  C    6.036206
    99  C    5.990699
   100  C    6.006856
   101  O    8.017452
   102  C    5.999609
   103  N    7.006005
   104  C    6.031812
   105  C    5.992778
   106  C    6.006743
   107  C    5.965251
   108  C    5.999321
   109  C    6.006265
   110  C    6.000964
   111  N    7.002130
   112  C    5.961493
   113  C    5.975344
   114  C    5.996613
   115  C    5.970234
   116  C    6.000338
   117  C    5.981997
   118  O    7.969324
   119  C    6.002783
   120  C    5.995311
   121  O    7.991720
   122  O    8.000273
   123  C    6.003138
   124  H    1.009532
   125  H    1.010513
   126  H    0.991175
   127  H    0.996814
   128  H    1.000588
   129  H    1.011006
   130  H    0.997498
   131  H    0.999719
   132  H    0.992979
   133  H    1.006603
   134  H    1.004025
   135  H    0.999545
   136  H    1.018294
   137  H    1.020723
   138  H    1.018883
   139  H    1.005647
   140  H    1.009809
   141  H    1.011387
   142  H    0.999080
   143  H    1.002432
   144  H    0.997593
   145  H    1.011590
   146  H    1.001576
   147  H    0.995101
   148  H    0.986666
   149  H    0.995065
   150  H    1.005623
   151  H    0.996586
   152  H    0.982631
   153  H    0.987506
   154  H    0.982702
   155  H    0.990829
   156  H    0.997178
   157  H    0.994023
   158  H    0.996243
 Sum of Mulliken charges = 624.00000

 Dipole moment (field-independent basis, Debye):
    X=             -9.1977    Y=             -4.2324    Z=             -1.4142  Tot=             10.2230
 Quadrupole moment (field-independent basis, Debye-Ang):
   XX=            375.2056   YY=             -3.1825   ZZ=              1.2425
   XY=            106.8220   XZ=             44.4398   YZ=             -0.9066

 Normal termination of Gaussian 16 at Thu Oct 14 23:19:38 2021.
