 Gaussian 16, Revision A.03,
 Gaussian 16:  ES64L-G16RevA.03 25-Dec-2016

 --------------------------------------------------------
 #p PBE1PBE/Def2SVP td=(nstates=5) density=(transition=1)
 --------------------------------------------------------

 --------------------------------
 TDDFT excited states in gaussian
 --------------------------------
 Symbolic Z-matrix:
 Charge =  0 Multiplicity = 1

                         Standard orientation:
 ---------------------------------------------------------------------
 Center     Atomic      Atomic             Coordinates (Angstroms)
 Number     Number       Type             X           Y           Z
 ---------------------------------------------------------------------
      1         12           0      -31.325843   -0.091624   -0.200722
      2          6           0      -27.884962    0.499940    0.047596
      3          6           0      -30.704911   -3.053161    1.473917
      4          6           0      -34.624922   -0.583925   -0.075336
      5          6           0      -31.814475    3.253093   -1.092068
      6          7           0      -29.380634   -1.070821    0.869444
      7          6           0      -28.102816   -0.678727    0.704163
      8          6           0      -27.100269   -1.590207    1.370294
      9          6           0      -28.061202   -2.829546    1.528962
     10          6           0      -29.489751   -2.329954    1.339243
     11          6           0      -27.758131   -3.879212    0.426626
     12          6           0      -26.480141   -0.929155    2.607803
     13          6           0      -27.362696   -0.084786    3.550469
     14          1           0      -27.237823   -0.396054    5.037211
     15          7           0      -32.492164   -1.587250    0.565796
     16          6           0      -32.025442   -2.758962    1.100006
     17          6           0      -33.100570   -3.758936    1.064266
     18          6           0      -34.324680   -3.038076    0.762979
     19          6           0      -33.822442   -1.681788    0.385260
     20          6           0      -32.933760   -5.213276    1.649733
     21          6           0      -35.753144   -3.584264    0.828069
     22          8           0      -35.952570   -4.751237    1.020841
     23          6           0      -36.919519   -2.665899    0.603013
     24          7           0      -32.997134    1.290892   -0.345592
     25          6           0      -34.326307    0.829349   -0.370515
     26          6           0      -35.373234    1.974090   -0.706377
     27          6           0      -34.397387    3.185933   -1.090767
     28          6           0      -32.956891    2.532120   -0.870697
     29          6           0      -36.541550    1.717791   -1.783947
     30          6           0      -34.595955    4.566343   -0.313579
     31          6           0      -34.260550    5.810327   -1.275876
     32          7           0      -30.130735    1.589066   -0.539030
     33          6           0      -30.470112    2.850762   -0.983484
     34          6           0      -29.253059    3.618356   -1.217698
     35          6           0      -28.168014    2.759745   -0.903981
     36          6           0      -28.764707    1.542676   -0.413224
     37          6           0      -29.159610    4.981093   -1.852596
     38          6           0      -26.688022    2.582867   -0.742242
     39          8           0      -25.787246    3.383651   -0.858206
     40          6           0      -26.505888    1.108349   -0.182309
     41          6           0      -25.702462    0.356553   -1.207672
     42          8           0      -24.461055    0.481044   -1.356710
     43          8           0      -26.510595   -0.578891   -1.837459
     44          6           0      -25.831125   -1.516420   -2.667744
     45          1           0      -30.500710   -4.028973    1.919695
     46          1           0      -35.694659   -0.689579   -0.268754
     47          1           0      -31.973349    4.226851   -1.560324
     48          1           0      -26.325794   -1.914757    0.675598
     49          1           0      -28.043233   -3.371352    2.473626
     50          1           0      -28.715045   -4.344602    0.189103
     51          1           0      -26.969282   -4.556943    0.749898
     52          1           0      -27.473785   -3.537524   -0.569108
     53          1           0      -25.757704   -0.210045    2.222942
     54          1           0      -25.968700   -1.701524    3.182363
     55          1           0      -28.409560   -0.262231    3.305360
     56          1           0      -27.071435    0.959344    3.439866
     57          1           0      -32.972553   -5.280967    2.737278
     58          1           0      -31.993812   -5.640486    1.300160
     59          1           0      -33.632402   -5.961963    1.278054
     60          1           0      -37.869943   -3.150265    0.829396
     61          1           0      -36.971424   -2.279380   -0.415029
     62          1           0      -36.776095   -1.929488    1.394173
     63          1           0      -35.804237    2.113878    0.284272
     64          1           0      -34.459136    3.414470   -2.154359
     65          1           0      -37.398028    1.323687   -1.238171
     66          1           0      -36.224044    1.022120   -2.560200
     67          1           0      -36.773371    2.665058   -2.271250
     68          1           0      -33.858460    4.677772    0.481189
     69          1           0      -35.592144    4.630896    0.124774
     70          1           0      -33.428068    6.394417   -0.883347
     71          1           0      -35.133764    6.458184   -1.346744
     72          1           0      -33.892673    5.616176   -2.282795
     73          1           0      -29.735965    5.680981   -1.248504
     74          1           0      -29.591074    4.948272   -2.853257
     75          1           0      -28.136836    5.356507   -1.881391
     76          1           0      -25.846608    1.236250    0.675943
     77          1           0      -26.544112   -2.256521   -3.030341
     78          1           0      -24.953683   -1.925211   -2.166358
     79          1           0      -25.496193   -1.067438   -3.602765
     80         12           0       31.051586    0.521897   -0.327767
     81          6           0       28.779267   -2.134437    0.156839
     82          6           0       28.843355    2.640290    1.346690
     83          6           0       33.640351    2.700564    0.079769
     84          6           0       33.354286   -1.941284   -1.536143
     85          7           0       29.072088    0.267230    0.581767
     86          6           0       28.367260   -0.879428    0.685279
     87          6           0       27.076840   -0.670243    1.542739
     88          6           0       26.994163    0.925332    1.546387
     89          6           0       28.422521    1.362311    1.086021
     90          6           0       25.987779    1.668969    0.639243
     91          6           0       27.299085   -1.314115    2.963396
     92          6           0       26.026195   -1.968763    3.568262
     93          1           0       25.811349   -1.739124    5.119636
     94          7           0       31.187210    2.545741    0.424989
     95          6           0       30.137986    3.201222    1.012764
     96          6           0       30.594300    4.504180    1.316540
     97          6           0       31.992464    4.581104    1.043867
     98          6           0       32.351628    3.256653    0.434963
     99          6           0       29.748783    5.597566    1.925685
    100          6           0       32.920833    5.680359    1.433747
    101          8           0       32.551735    6.628063    2.108558
    102          6           0       34.327724    5.716227    1.130103
    103          7           0       33.245461    0.315903   -0.596680
    104          6           0       34.044170    1.465195   -0.502747
    105          6           0       35.419935    1.194140   -1.026287
    106          6           0       35.381283   -0.308365   -1.492037
    107          6           0       33.939840   -0.693208   -1.206793
    108          6           0       35.734736    2.195919   -2.144591
    109          6           0       36.563345   -1.179640   -0.922256
    110          6           0       37.436887   -1.873625   -1.922908
    111          7           0       31.101243   -1.637574   -0.686925
    112          6           0       32.084278   -2.433086   -1.222408
    113          6           0       31.567783   -3.797725   -1.466799
    114          6           0       30.287645   -3.692158   -0.861026
    115          6           0       30.038575   -2.381149   -0.500558
    116          6           0       32.287501   -5.022865   -2.008477
    117          6           0       29.167971   -4.486777   -0.430813
    118          8           0       28.985594   -5.711932   -0.505595
    119          6           0       28.130520   -3.571162    0.218425
    120          6           0       26.818220   -3.696185   -0.442895
    121          8           0       25.847154   -4.028206    0.134495
    122          8           0       26.798106   -3.206527   -1.716791
    123          6           0       25.410909   -3.119948   -2.222457
    124          1           0       28.145234    3.349621    1.797082
    125          1           0       34.400021    3.480290    0.153922
    126          1           0       33.915522   -2.826064   -1.845605
    127          1           0       26.245572   -1.147718    1.023686
    128          1           0       27.050897    1.391735    2.529791
    129          1           0       25.741775    1.061366   -0.232365
    130          1           0       26.282461    2.662158    0.300213
    131          1           0       25.076416    1.762695    1.228817
    132          1           0       27.722145   -0.586288    3.656358
    133          1           0       28.059771   -2.077468    2.799558
    134          1           0       26.166246   -3.029028    3.356996
    135          1           0       25.233608   -1.586359    2.924707
    136          1           0       30.095742    6.619477    1.772117
    137          1           0       29.747950    5.352864    2.987519
    138          1           0       28.672561    5.527523    1.767634
    139          1           0       34.413993    5.717322    0.042768
    140          1           0       34.853347    4.882679    1.596839
    141          1           0       34.744488    6.637375    1.537511
    142          1           0       36.146457    1.195768   -0.214074
    143          1           0       35.302228   -0.503907   -2.561662
    144          1           0       35.049369    3.043471   -2.169432
    145          1           0       35.664421    1.735879   -3.130248
    146          1           0       36.657684    2.724812   -1.908671
    147          1           0       36.075713   -1.905835   -0.271893
    148          1           0       37.324479   -0.603293   -0.397597
    149          1           0       37.438679   -2.932476   -1.665597
    150          1           0       38.472552   -1.539348   -1.858861
    151          1           0       37.168021   -1.651238   -2.955598
    152          1           0       32.865289   -5.543755   -1.244705
    153          1           0       32.900721   -4.809390   -2.884876
    154          1           0       31.442320   -5.676179   -2.224802
    155          1           0       27.917023   -3.918607    1.228450
    156          1           0       25.453577   -2.724501   -3.237633
    157          1           0       24.806812   -2.476829   -1.582634
    158          1           0       24.927760   -4.084258   -2.376023
 ---------------------------------------------------------------------

 SCF Done:  E(RPBE1PBE) =  -4067.34671128     A.U. after   16 cycles

 Excitation energies and oscillator strengths:

 Excited State   1:      Singlet-A      1.8469 eV  671.32 nm  f=0.3911  <S**2>=0.000
     309 -> 315       -0.16869
     311 -> 313        0.69416
     311 <- 313       -0.11313
 This state for optimization and/or second-order correction.
 Total Energy, E(TD-HF/TD-DFT) =  -4067.27883975
 Copying the excited state density for this state as the 1-particle RhoCI density.

 Excited State   2:      Singlet-A      1.8968 eV  653.64 nm  f=0.3491  <S**2>=0.000
     310 -> 316        0.18781
     312 -> 314        0.68732

 Excited State   3:      Singlet-A      1.9157 eV  647.19 nm  f=0.0000  <S**2>=0.000
     312 -> 313        0.70711

 Excited State   4:      Singlet-A      2.1423 eV  578.75 nm  f=0.0000  <S**2>=0.000
     311 -> 314        0.70711

 Excited State   5:      Singlet-A      2.2121 eV  560.47 nm  f=0.1082  <S**2>=0.000
     309 -> 313        0.65182
     311 -> 315        0.25470

 The electronic state is 1-A.
 Alpha  occ. eigenvalues --  -46.94187 -46.93785 -19.26691 -19.25698 -19.20277
 Alpha  occ. eigenvalues --  -19.20098 -19.19878 -19.19107 -19.18975 -19.17620
 Alpha  occ. eigenvalues --  -14.42412 -14.42289 -14.41857 -14.41193 -14.40055
 Alpha  occ. eigenvalues --  -14.39580 -14.39220 -14.38873 -10.37019 -10.35697
 Alpha  occ. eigenvalues --  -10.33076 -10.32319 -10.31820 -10.30684 -10.30482
 Alpha  occ. eigenvalues --  -10.29918 -10.29665 -10.29646 -10.29298 -10.29182
 Alpha  occ. eigenvalues --  -10.29015 -10.28891 -10.28791 -10.28732 -10.28441
 Alpha  occ. eigenvalues --  -10.28355 -10.28055 -10.27788 -10.27704 -10.27667
 Alpha  occ. eigenvalues --  -10.27501 -10.27187 -10.27046 -10.26866 -10.26855
 Alpha  occ. eigenvalues --  -10.26841 -10.26835 -10.26612 -10.26282 -10.26277
 Alpha  occ. eigenvalues --  -10.26261 -10.26235 -10.26220 -10.26141 -10.26092
 Alpha  occ. eigenvalues --  -10.26013 -10.26012 -10.26011 -10.25812 -10.25695
 Alpha  occ. eigenvalues --  -10.25576 -10.25557 -10.25499 -10.25457 -10.25304
 Alpha  occ. eigenvalues --  -10.25277 -10.25204 -10.24975 -10.24572 -10.24507
 Alpha  occ. eigenvalues --  -10.24479 -10.24401 -10.24371 -10.24027 -10.23935
 Alpha  occ. eigenvalues --  -10.23899 -10.23879 -10.23811 -10.23796 -10.23600
 Alpha  occ. eigenvalues --  -10.23519 -10.23454 -10.23150 -10.23036 -10.22814
 Alpha  occ. eigenvalues --  -10.22640  -3.15926  -3.15732  -1.88777  -1.88533
 Alpha  occ. eigenvalues --   -1.88279  -1.88141  -1.88125  -1.87943  -1.12708
 Alpha  occ. eigenvalues --   -1.11224  -1.06140  -1.05522  -1.04359  -1.03853
 Alpha  occ. eigenvalues --   -1.03582  -1.01858  -0.99725  -0.99334  -0.98433
 Alpha  occ. eigenvalues --   -0.98390  -0.98016  -0.97681  -0.97258  -0.96628
 Alpha  occ. eigenvalues --   -0.86924  -0.86884  -0.83696  -0.83353  -0.83270
 Alpha  occ. eigenvalues --   -0.82590  -0.82546  -0.82338  -0.82002  -0.81696
 Alpha  occ. eigenvalues --   -0.81260  -0.80486  -0.80206  -0.79809  -0.79161
 Alpha  occ. eigenvalues --   -0.79099  -0.78919  -0.77661  -0.77001  -0.76866
 Alpha  occ. eigenvalues --   -0.76740  -0.76068  -0.75212  -0.75143  -0.74909
 Alpha  occ. eigenvalues --   -0.74733  -0.72985  -0.71889  -0.71839  -0.71598
 Alpha  occ. eigenvalues --   -0.71180  -0.70923  -0.70777  -0.70710  -0.69802
 Alpha  occ. eigenvalues --   -0.69653  -0.67589  -0.67305  -0.66975  -0.66467
 Alpha  occ. eigenvalues --   -0.64245  -0.63778  -0.63770  -0.63624  -0.62752
 Alpha  occ. eigenvalues --   -0.62407  -0.61540  -0.61318  -0.60760  -0.60339
 Alpha  occ. eigenvalues --   -0.60143  -0.59580  -0.59425  -0.59317  -0.59211
 Alpha  occ. eigenvalues --   -0.59161  -0.58296  -0.57813  -0.54666  -0.54562
 Alpha  occ. eigenvalues --   -0.54544  -0.53875  -0.53574  -0.53486  -0.53460
 Alpha  occ. eigenvalues --   -0.52849  -0.52817  -0.52298  -0.51907  -0.51654
 Alpha  occ. eigenvalues --   -0.50999  -0.50768  -0.50617  -0.50602  -0.50165
 Alpha  occ. eigenvalues --   -0.50063  -0.49627  -0.49624  -0.49099  -0.48833
 Alpha  occ. eigenvalues --   -0.48345  -0.48199  -0.47978  -0.47791  -0.47767
 Alpha  occ. eigenvalues --   -0.47494  -0.47394  -0.47310  -0.47084  -0.46870
 Alpha  occ. eigenvalues --   -0.46535  -0.46300  -0.46170  -0.46019  -0.46009
 Alpha  occ. eigenvalues --   -0.45869  -0.45742  -0.45560  -0.45336  -0.45160
 Alpha  occ. eigenvalues --   -0.44707  -0.44621  -0.44539  -0.44507  -0.44322
 Alpha  occ. eigenvalues --   -0.44207  -0.44120  -0.43893  -0.43669  -0.43595
 Alpha  occ. eigenvalues --   -0.43359  -0.43239  -0.43076  -0.43056  -0.42775
 Alpha  occ. eigenvalues --   -0.42240  -0.42217  -0.41987  -0.41961  -0.41900
 Alpha  occ. eigenvalues --   -0.41651  -0.41584  -0.41562  -0.41423  -0.41341
 Alpha  occ. eigenvalues --   -0.41076  -0.41074  -0.41008  -0.40783  -0.40495
 Alpha  occ. eigenvalues --   -0.40488  -0.40257  -0.40112  -0.39948  -0.39923
 Alpha  occ. eigenvalues --   -0.39799  -0.39655  -0.39614  -0.39475  -0.39142
 Alpha  occ. eigenvalues --   -0.39025  -0.38831  -0.38801  -0.38667  -0.38459
 Alpha  occ. eigenvalues --   -0.38432  -0.38224  -0.38162  -0.37986  -0.37850
 Alpha  occ. eigenvalues --   -0.37793  -0.37657  -0.37632  -0.37492  -0.37189
 Alpha  occ. eigenvalues --   -0.37052  -0.37036  -0.36850  -0.36623  -0.36622
 Alpha  occ. eigenvalues --   -0.36156  -0.36143  -0.35921  -0.35581  -0.35267
 Alpha  occ. eigenvalues --   -0.35013  -0.34832  -0.34563  -0.34185  -0.34146
 Alpha  occ. eigenvalues --   -0.33887  -0.33634  -0.33141  -0.32881  -0.32541
 Alpha  occ. eigenvalues --   -0.32248  -0.32226  -0.32204  -0.31941  -0.31721
 Alpha  occ. eigenvalues --   -0.31426  -0.31369  -0.29801  -0.29790  -0.29446
 Alpha  occ. eigenvalues --   -0.29346  -0.29044  -0.28697  -0.27133  -0.26920
 Alpha  occ. eigenvalues --   -0.26179  -0.26063  -0.25968  -0.25758  -0.25701
 Alpha  occ. eigenvalues --   -0.25442  -0.25049  -0.24597  -0.21442  -0.20976
 Alpha  occ. eigenvalues --   -0.19241  -0.19028
 Alpha virt. eigenvalues --   -0.11775  -0.11157  -0.05749  -0.05534  -0.04126
 Alpha virt. eigenvalues --   -0.03893  -0.02395  -0.01998  -0.01975  -0.01519
 Alpha virt. eigenvalues --   -0.00122   0.00590   0.01148   0.01303   0.01435

 Mulliken charges:
               1
     1  Mg  11.999994
     2  C    6.000056
     3  C    6.000010
     4  C    5.999904
     5  C    5.999958
     6  N    7.000033
     7  C    5.999952
     8  C    6.000016
     9  C    5.999982
    10  C    6.000063
    11  C    6.000006
    12  C    6.000007
    13  C    6.000030
    14  H    0.999974
    15  N    7.000015
    16  C    6.000020
    17  C    6.000006
    18  C    5.999969
    19  C    6.000110
    20  C    6.000009
    21  C    6.000033
    22  O    8.000037
    23  C    6.000018
    24  N    7.000000
    25  C    6.000097
    26  C    5.999989
    27  C    5.999985
    28  C    5.999913
    29  C    5.999981
    30  C    5.999994
    31  C    5.999986
    32  N    6.999978
    33  C    6.000002
    34  C    6.000027
    35  C    5.999973
    36  C    5.999939
    37  C    5.999998
    38  C    5.999936
    39  O    7.999944
    40  C    5.999996
    41  C    6.000029
    42  O    7.999968
    43  O    7.999988
    44  C    6.000025
    45  H    1.000040
    46  H    1.000004
    47  H    0.999968
    48  H    1.000007
    49  H    1.000007
    50  H    0.999988
    51  H    1.000023
    52  H    1.000026
    53  H    1.000003
    54  H    0.999995
    55  H    0.999983
    56  H    0.999996
    57  H    1.000045
    58  H    1.000053
    59  H    1.000031
    60  H    1.000022
    61  H    1.000012
    62  H    1.000001
    63  H    1.000004
    64  H    1.000004
    65  H    1.000004
    66  H    1.000014
    67  H    1.000010
    68  H    1.000008
    69  H    0.999979
    70  H    1.000009
    71  H    0.999987
    72  H    1.000013
    73  H    0.999945
    74  H    0.999952
    75  H    0.999968
    76  H    0.999979
    77  H    0.999983
    78  H    0.999996
    79  H    0.999993
    80  Mg  12.001520
    81  C    6.018759
    82  C    5.987761
    83  C    5.983244
    84  C    6.001705
    85  N    7.003626
    86  C    5.967567
    87  C    6.007743
    88  C    5.997504
    89  C    6.028278
    90  C    5.992365
    91  C    6.001703
    92  C    6.001114
    93  H    0.992742
    94  N    6.990913
    95  C    6.042568
    96  C    6.019536
    97  C    6.007444
    98  C    6.043066
    99  C    5.996811
   100  C    6.011000
   101  O    8.020908
   102  C    5.995591
   103  N    6.998774
   104  C    6.032086
   105  C    5.988562
   106  C    6.006544
   107  C    5.970331
   108  C    5.997594
   109  C    6.000557
   110  C    6.002039
   111  N    7.001175
   112  C    5.968036
   113  C    5.967032
   114  C    6.000337
   115  C    5.972052
   116  C    5.999921
   117  C    5.982539
   118  O    7.969064
   119  C    6.001558
   120  C    5.995702
   121  O    7.991573
   122  O    8.003546
   123  C    6.002557
   124  H    1.009322
   125  H    1.007357
   126  H    0.992169
   127  H    1.002130
   128  H    0.996987
   129  H    1.013271
   130  H    0.994953
   131  H    1.007663
   132  H    0.989013
   133  H    1.007838
   134  H    1.004779
   135  H    0.996960
   136  H    1.013999
   137  H    1.019699
   138  H    1.019447
   139  H    1.009109
   140  H    1.010589
   141  H    1.012164
   142  H    1.002433
   143  H    1.004152
   144  H    0.992688
   145  H    1.010007
   146  H    1.002177
   147  H    1.002678
   148  H    0.989867
   149  H    1.002162
   150  H    0.994377
   151  H    0.998009
   152  H    0.979805
   153  H    0.982771
   154  H    0.988604
   155  H    0.991250
   156  H    0.995890
   157  H    0.992828
   158  H    0.997806
 Sum of Mulliken charges = 624.00000

 Dipole moment (field-independent basis, Debye):
    X=              0.2137    Y=             10.2000    Z=              2.7540  Tot=             10.5674
 Quadrupole moment (field-independent basis, Debye-Ang):
   XX=             12.6203   YY=              7.4975   ZZ=             -0.6930
   XY=            318.2190   XZ=             86.4299   YZ=              2.1202

 Normal termination of Gaussian 16 at Thu Oct 14 22:03:12 2021.
