 Gaussian 16, Revision A.03,
 Gaussian 16:  ES64L-G16RevA.03 25-Dec-2016

 --------------------------------------------------------
 #p PBE1PBE/Def2SVP td=(nstates=5) density=(transition=1)
 --------------------------------------------------------

 --------------------------------
 TDDFT excited states in gaussian
 --------------------------------
 Symbolic Z-matrix:
 Charge =  0 Multiplicity = 1

                         Standard orientation:
 ---------------------------------------------------------------------
 Center     Atomic      Atomic             Coordinates (Angstroms)
 Number     Number       Type             X           Y           Z
 ---------------------------------------------------------------------
      1         12           0        5.368822    0.345552    0.690660
      2          6           0        5.098390   -3.118362   -0.045801
      3          6           0        2.726146   -0.185328    2.981173
      4          6           0        5.255939    3.565259    1.205524
      5          6           0        7.747711    0.641026   -1.829295
      6          7           0        4.027494   -1.483887    1.396027
      7          6           0        4.231703   -2.778129    0.984529
      8          6           0        3.378891   -3.786263    1.735997
      9          6           0        2.529058   -2.775969    2.619928
     10          6           0        3.144370   -1.392698    2.357963
     11          6           0        1.035297   -2.942312    2.356827
     12          6           0        4.264239   -4.739083    2.568954
     13          6           0        3.821475   -6.244787    2.715031
     14          1           0        2.339310   -6.597594    2.447590
     15          7           0        4.211649    1.536059    1.981949
     16          6           0        3.134203    1.130170    2.769903
     17          6           0        2.618722    2.311026    3.480658
     18          6           0        3.428755    3.406183    3.035485
     19          6           0        4.371227    2.816692    2.065296
     20          6           0        1.476420    2.272638    4.347929
     21          6           0        3.345361    4.874783    3.439237
     22          8           0        4.057642    5.730577    2.890584
     23          6           0        2.546120    5.292274    4.610661
     24          7           0        6.289899    1.901960   -0.262514
     25          6           0        6.155456    3.144579    0.208355
     26          6           0        6.978873    4.161797   -0.646706
     27          6           0        7.900768    3.202470   -1.464468
     28          6           0        7.309380    1.850014   -1.217835
     29          6           0        6.102762    5.160780   -1.485109
     30          6           0        9.324802    3.334612   -0.801233
     31          6           0        9.769610    2.337120    0.323278
     32          7           0        6.340290   -0.939079   -0.601423
     33          6           0        7.291540   -0.650748   -1.596760
     34          6           0        7.602297   -1.908595   -2.320378
     35          6           0        6.730242   -2.844230   -1.776201
     36          6           0        6.007802   -2.288620   -0.741515
     37          6           0        8.402579   -1.879235   -3.532447
     38          6           0        6.254058   -4.208841   -1.988634
     39          8           0        6.606163   -5.003578   -2.852993
     40          6           0        5.132332   -4.454538   -0.873651
     41          6           0        3.833448   -4.818850   -1.490018
     42          8           0        2.919920   -4.046415   -1.765573
     43          8           0        3.798975   -6.210882   -1.696755
     44          6           0        2.674436   -6.851965   -2.339985
     45          1           0        2.099158   -0.296988    3.868677
     46          1           0        5.283883    4.648614    1.342527
     47          1           0        8.530792    0.852801   -2.559913
     48          1           0        2.743785   -4.375658    1.074162
     49          1           0        2.636182   -3.119740    3.648374
     50          1           0        0.432153   -3.142451    3.241719
     51          1           0        0.757541   -3.702276    1.626440
     52          1           0        0.674046   -1.970913    2.016608
     53          1           0        4.407103   -4.352341    3.577902
     54          1           0        5.210418   -4.642584    2.035344
     55          1           0        3.953551   -6.579479    3.743390
     56          1           0        4.591758   -6.816142    2.197057
     57          1           0        1.792791    2.726871    5.287132
     58          1           0        1.008339    1.288838    4.333493
     59          1           0        0.778452    2.878197    3.768934
     60          1           0        1.469858    5.254672    4.439605
     61          1           0        2.770407    6.331969    4.848288
     62          1           0        2.712587    4.559931    5.400112
     63          1           0        7.457695    4.695928    0.174019
     64          1           0        7.984081    3.509785   -2.507229
     65          1           0        5.993866    6.102819   -0.947540
     66          1           0        5.174563    4.640481   -1.719191
     67          1           0        6.648994    5.327018   -2.413450
     68          1           0        9.518432    4.383019   -0.573516
     69          1           0        9.989451    2.965818   -1.583037
     70          1           0       10.240676    2.987054    1.060126
     71          1           0       10.514479    1.616018   -0.015757
     72          1           0        8.970234    1.802431    0.835172
     73          1           0        8.019152   -1.092505   -4.180918
     74          1           0        8.242861   -2.836492   -4.029718
     75          1           0        9.466926   -1.882312   -3.298947
     76          1           0        5.518380   -5.309615   -0.317889
     77          1           0        2.823818   -7.019824   -3.406295
     78          1           0        1.729304   -6.416323   -2.015530
     79          1           0        2.642450   -7.794520   -1.792733
     80         12           0       -4.477021    0.759399   -1.084108
     81          6           0       -7.269882   -1.334679   -0.269018
     82          6           0       -2.485552   -1.819278   -0.676605
     83          6           0       -2.024588    2.988571   -1.055828
     84          6           0       -6.889749    3.535577   -1.101903
     85          7           0       -4.859511   -1.346642   -0.579550
     86          6           0       -6.059117   -2.008166   -0.249585
     87          6           0       -5.870453   -3.534715    0.091284
     88          6           0       -4.239245   -3.622432   -0.139135
     89          6           0       -3.797400   -2.207916   -0.500964
     90          6           0       -3.474101   -4.135691    1.155305
     91          6           0       -6.733769   -4.535397   -0.753274
     92          6           0       -6.274798   -5.988500   -0.731148
     93          1           0       -7.248792   -6.959786   -0.039396
     94          7           0       -2.509743    0.585061   -0.990001
     95          6           0       -1.779425   -0.570571   -0.841457
     96          6           0       -0.352291   -0.328721   -0.866780
     97          6           0       -0.247462    1.112938   -0.994278
     98          6           0       -1.664605    1.614104   -1.091939
     99          6           0        0.704098   -1.330678   -0.844422
    100          6           0        0.983532    1.998162   -1.083228
    101          8           0        0.949929    3.175751   -1.306548
    102          6           0        2.283015    1.301439   -0.778484
    103          7           0       -4.458355    2.965098   -1.015751
    104          6           0       -3.271835    3.622592   -1.046949
    105          6           0       -3.488880    5.156585   -1.141122
    106          6           0       -5.046342    5.266234   -1.288853
    107          6           0       -5.512385    3.827133   -1.180315
    108          6           0       -2.932897    6.054770    0.015918
    109          6           0       -5.571140    5.914427   -2.618385
    110          6           0       -5.452930    7.454524   -2.636667
    111          7           0       -6.589686    1.113169   -0.749048
    112          6           0       -7.398556    2.220212   -0.863906
    113          6           0       -8.741432    1.824824   -0.705372
    114          6           0       -8.770964    0.510687   -0.423038
    115          6           0       -7.413234    0.068723   -0.429078
    116          6           0       -9.884306    2.808521   -0.920116
    117          6           0       -9.553827   -0.674120   -0.057475
    118          8           0      -10.737412   -0.806564    0.119160
    119          6           0       -8.559711   -1.924207    0.076413
    120          6           0       -8.516112   -2.302316    1.522613
    121          8           0       -7.836618   -1.902317    2.440941
    122          8           0       -9.441977   -3.319347    1.645287
    123          6           0       -9.607976   -3.920300    2.990109
    124          1           0       -1.741379   -2.601066   -0.511587
    125          1           0       -1.186392    3.670098   -0.891981
    126          1           0       -7.478394    4.444500   -1.246282
    127          1           0       -6.030736   -3.655640    1.162760
    128          1           0       -4.052186   -4.354492   -0.925102
    129          1           0       -2.725531   -4.872131    0.863483
    130          1           0       -4.051486   -4.535344    1.988547
    131          1           0       -2.859967   -3.337445    1.570999
    132          1           0       -6.683080   -4.045770   -1.726667
    133          1           0       -7.810059   -4.564804   -0.582054
    134          1           0       -5.317876   -6.050726   -0.213715
    135          1           0       -6.264497   -6.364984   -1.753640
    136          1           0        1.116718   -1.172266   -1.840765
    137          1           0        0.298155   -2.326683   -0.666879
    138          1           0        1.517825   -1.201019   -0.131171
    139          1           0        2.733861    0.957521   -1.709280
    140          1           0        2.251674    0.692758    0.125655
    141          1           0        2.854152    2.072537   -0.262231
    142          1           0       -3.159103    5.424864   -2.145245
    143          1           0       -5.454507    5.731453   -0.391320
    144          1           0       -3.663470    6.664943    0.547796
    145          1           0       -2.317469    6.805727   -0.478971
    146          1           0       -2.374231    5.527940    0.789502
    147          1           0       -6.627332    5.677375   -2.741307
    148          1           0       -5.004925    5.422828   -3.410703
    149          1           0       -5.390285    7.843497   -1.620177
    150          1           0       -6.325053    7.812029   -3.183981
    151          1           0       -4.547189    7.827486   -3.115756
    152          1           0      -10.795387    2.293809   -1.225442
    153          1           0       -9.573248    3.551522   -1.654553
    154          1           0      -10.044597    3.405400   -0.021987
    155          1           0       -8.867814   -2.754733   -0.559170
    156          1           0      -10.679124   -4.087000    3.103233
    157          1           0       -9.244811   -3.298200    3.808022
    158          1           0       -9.040321   -4.839324    2.841023
 ---------------------------------------------------------------------

 SCF Done:  E(RPBE1PBE) =  -4067.38881427     A.U. after   16 cycles

 Excitation energies and oscillator strengths:

 Excited State   1:      Singlet-A      1.6072 eV  771.45 nm  f=0.0001  <S**2>=0.000
     312 -> 313        0.70675
 This state for optimization and/or second-order correction.
 Total Energy, E(TD-HF/TD-DFT) =  -4067.32975228
 Copying the excited state density for this state as the 1-particle RhoCI density.

 Excited State   2:      Singlet-A      1.8485 eV  670.74 nm  f=0.4733  <S**2>=0.000
     310 -> 316        0.13547
     311 -> 313       -0.21488
     311 -> 314        0.33237
     312 -> 314        0.57344

 Excited State   3:      Singlet-A      1.8529 eV  669.13 nm  f=0.1447  <S**2>=0.000
     311 -> 313        0.17049
     311 -> 314        0.62106
     312 -> 314       -0.28305

 Excited State   4:      Singlet-A      1.8873 eV  656.94 nm  f=0.1764  <S**2>=0.000
     309 -> 315       -0.17065
     311 -> 313        0.63177
     312 -> 314        0.26817

 Excited State   5:      Singlet-A      2.1550 eV  575.33 nm  f=0.0001  <S**2>=0.000
     310 -> 313        0.70647

 The electronic state is 1-A.
 Alpha  occ. eigenvalues --  -46.92289 -46.91743 -19.25275 -19.24406 -19.20838
 Alpha  occ. eigenvalues --  -19.20096 -19.19978 -19.19087 -19.18950 -19.18734
 Alpha  occ. eigenvalues --  -14.41964 -14.41485 -14.41323 -14.40636 -14.39565
 Alpha  occ. eigenvalues --  -14.39135 -14.38974 -14.38285 -10.37135 -10.35827
 Alpha  occ. eigenvalues --  -10.33087 -10.32390 -10.32213 -10.31445 -10.29067
 Alpha  occ. eigenvalues --  -10.29028 -10.28967 -10.28588 -10.28423 -10.28385
 Alpha  occ. eigenvalues --  -10.28364 -10.28337 -10.28211 -10.28182 -10.27906
 Alpha  occ. eigenvalues --  -10.27632 -10.27608 -10.27537 -10.27533 -10.27162
 Alpha  occ. eigenvalues --  -10.27042 -10.26798 -10.26645 -10.26618 -10.26605
 Alpha  occ. eigenvalues --  -10.26547 -10.26522 -10.26260 -10.25970 -10.25932
 Alpha  occ. eigenvalues --  -10.25674 -10.25654 -10.25636 -10.25441 -10.25429
 Alpha  occ. eigenvalues --  -10.25352 -10.25173 -10.25155 -10.25054 -10.24869
 Alpha  occ. eigenvalues --  -10.24743 -10.24639 -10.24611 -10.24524 -10.24486
 Alpha  occ. eigenvalues --  -10.24319 -10.24214 -10.24182 -10.24157 -10.24149
 Alpha  occ. eigenvalues --  -10.24129 -10.23709 -10.23653 -10.23490 -10.23315
 Alpha  occ. eigenvalues --  -10.23309 -10.23184 -10.23053 -10.23035 -10.23018
 Alpha  occ. eigenvalues --  -10.22990 -10.22973 -10.22876 -10.22827 -10.22211
 Alpha  occ. eigenvalues --  -10.22151  -3.14417  -3.13866  -1.87265  -1.86805
 Alpha  occ. eigenvalues --   -1.86703  -1.86627  -1.86221  -1.86112  -1.10311
 Alpha  occ. eigenvalues --   -1.10045  -1.05668  -1.05330  -1.04948  -1.03890
 Alpha  occ. eigenvalues --   -1.02735  -1.02158  -0.99762  -0.99049  -0.98197
 Alpha  occ. eigenvalues --   -0.98092  -0.97719  -0.96904  -0.96597  -0.95979
 Alpha  occ. eigenvalues --   -0.87140  -0.86844  -0.84229  -0.83410  -0.82957
 Alpha  occ. eigenvalues --   -0.82918  -0.82176  -0.82100  -0.82005  -0.81420
 Alpha  occ. eigenvalues --   -0.81154  -0.81025  -0.80952  -0.80122  -0.78763
 Alpha  occ. eigenvalues --   -0.77989  -0.77979  -0.77291  -0.76889  -0.76532
 Alpha  occ. eigenvalues --   -0.76288  -0.75685  -0.75577  -0.75228  -0.74819
 Alpha  occ. eigenvalues --   -0.74183  -0.73319  -0.71787  -0.71724  -0.71629
 Alpha  occ. eigenvalues --   -0.71126  -0.70732  -0.70540  -0.69697  -0.69443
 Alpha  occ. eigenvalues --   -0.68982  -0.67022  -0.66953  -0.66135  -0.65555
 Alpha  occ. eigenvalues --   -0.63896  -0.63784  -0.63627  -0.62949  -0.62757
 Alpha  occ. eigenvalues --   -0.61974  -0.61346  -0.61057  -0.59831  -0.59560
 Alpha  occ. eigenvalues --   -0.59314  -0.59285  -0.59199  -0.58919  -0.58643
 Alpha  occ. eigenvalues --   -0.58250  -0.56621  -0.55856  -0.55029  -0.54390
 Alpha  occ. eigenvalues --   -0.54202  -0.53986  -0.53813  -0.53129  -0.53030
 Alpha  occ. eigenvalues --   -0.52769  -0.52529  -0.52274  -0.52200  -0.51254
 Alpha  occ. eigenvalues --   -0.51107  -0.50434  -0.50368  -0.50254  -0.49967
 Alpha  occ. eigenvalues --   -0.49307  -0.49100  -0.48922  -0.48840  -0.48675
 Alpha  occ. eigenvalues --   -0.48582  -0.48194  -0.48113  -0.48045  -0.47875
 Alpha  occ. eigenvalues --   -0.47733  -0.47114  -0.47044  -0.46790  -0.46734
 Alpha  occ. eigenvalues --   -0.46588  -0.46387  -0.46106  -0.46038  -0.45710
 Alpha  occ. eigenvalues --   -0.45444  -0.45255  -0.45198  -0.44934  -0.44816
 Alpha  occ. eigenvalues --   -0.44637  -0.44583  -0.44367  -0.44242  -0.44068
 Alpha  occ. eigenvalues --   -0.43934  -0.43744  -0.43714  -0.43572  -0.43471
 Alpha  occ. eigenvalues --   -0.43250  -0.43148  -0.42963  -0.42827  -0.42558
 Alpha  occ. eigenvalues --   -0.42468  -0.42324  -0.42233  -0.42036  -0.41801
 Alpha  occ. eigenvalues --   -0.41558  -0.41510  -0.41307  -0.41206  -0.41027
 Alpha  occ. eigenvalues --   -0.40836  -0.40375  -0.40364  -0.40263  -0.40249
 Alpha  occ. eigenvalues --   -0.39926  -0.39846  -0.39744  -0.39674  -0.39505
 Alpha  occ. eigenvalues --   -0.39446  -0.39389  -0.39335  -0.39198  -0.39125
 Alpha  occ. eigenvalues --   -0.39059  -0.38787  -0.38571  -0.38552  -0.38506
 Alpha  occ. eigenvalues --   -0.38296  -0.38210  -0.37902  -0.37888  -0.37754
 Alpha  occ. eigenvalues --   -0.37468  -0.37270  -0.37209  -0.36868  -0.36718
 Alpha  occ. eigenvalues --   -0.36508  -0.36256  -0.36231  -0.36064  -0.35996
 Alpha  occ. eigenvalues --   -0.35602  -0.35518  -0.35469  -0.35235  -0.35177
 Alpha  occ. eigenvalues --   -0.35008  -0.34675  -0.34168  -0.33883  -0.33661
 Alpha  occ. eigenvalues --   -0.33090  -0.32945  -0.32786  -0.32523  -0.32430
 Alpha  occ. eigenvalues --   -0.32033  -0.31895  -0.31677  -0.31375  -0.31225
 Alpha  occ. eigenvalues --   -0.31084  -0.30569  -0.29680  -0.29631  -0.29283
 Alpha  occ. eigenvalues --   -0.29231  -0.28909  -0.27997  -0.26987  -0.26606
 Alpha  occ. eigenvalues --   -0.26304  -0.26016  -0.25907  -0.25509  -0.25396
 Alpha  occ. eigenvalues --   -0.25282  -0.25262  -0.25028  -0.21173  -0.20330
 Alpha  occ. eigenvalues --   -0.18859  -0.18330
 Alpha virt. eigenvalues --   -0.11070  -0.10683  -0.05584  -0.04468  -0.04351
 Alpha virt. eigenvalues --   -0.03014  -0.02500  -0.01478  -0.00364   0.00009
 Alpha virt. eigenvalues --    0.00131   0.00674   0.00931   0.01192   0.01534

 Mulliken charges:
               1
     1  Mg  12.000342
     2  C    6.000290
     3  C    6.000282
     4  C    6.000147
     5  C    5.999717
     6  N    7.000464
     7  C    6.000041
     8  C    6.000095
     9  C    5.999763
    10  C    6.000215
    11  C    6.000296
    12  C    5.999971
    13  C    5.999996
    14  H    1.000026
    15  N    7.000019
    16  C    5.999603
    17  C    5.999850
    18  C    5.999474
    19  C    5.999944
    20  C    5.999998
    21  C    5.999872
    22  O    7.999619
    23  C    6.000069
    24  N    6.999752
    25  C    5.999828
    26  C    6.000015
    27  C    5.999956
    28  C    6.000242
    29  C    6.000057
    30  C    6.000015
    31  C    5.999994
    32  N    6.999971
    33  C    6.000271
    34  C    6.000093
    35  C    6.000105
    36  C    5.999980
    37  C    5.999989
    38  C    6.000106
    39  O    8.000112
    40  C    5.999982
    41  C    5.999982
    42  O    8.000154
    43  O    7.999986
    44  C    5.999984
    45  H    0.999863
    46  H    0.999925
    47  H    0.999972
    48  H    0.999986
    49  H    0.999983
    50  H    0.999958
    51  H    0.999899
    52  H    0.999236
    53  H    1.000079
    54  H    0.999930
    55  H    1.000013
    56  H    0.999971
    57  H    0.999824
    58  H    0.999885
    59  H    1.000031
    60  H    0.999836
    61  H    0.999817
    62  H    0.999903
    63  H    1.000003
    64  H    0.999980
    65  H    0.999994
    66  H    0.999985
    67  H    0.999889
    68  H    1.000032
    69  H    0.999958
    70  H    1.000018
    71  H    0.999948
    72  H    1.000024
    73  H    1.000090
    74  H    1.000033
    75  H    1.000073
    76  H    1.000048
    77  H    1.000002
    78  H    1.000042
    79  H    1.000010
    80  Mg  12.000037
    81  C    5.999905
    82  C    6.000175
    83  C    6.000017
    84  C    5.999977
    85  N    6.999937
    86  C    6.000208
    87  C    5.999896
    88  C    6.000068
    89  C    5.999793
    90  C    5.999847
    91  C    5.999970
    92  C    5.999999
    93  H    1.000035
    94  N    6.999906
    95  C    6.000144
    96  C    5.999663
    97  C    6.000135
    98  C    5.999867
    99  C    6.000297
   100  C    5.999803
   101  O    7.999760
   102  C    6.000020
   103  N    6.999947
   104  C    6.000022
   105  C    6.000022
   106  C    5.999915
   107  C    6.000269
   108  C    6.000053
   109  C    5.999940
   110  C    6.000002
   111  N    6.999990
   112  C    6.000271
   113  C    6.000168
   114  C    6.000049
   115  C    6.000274
   116  C    5.999985
   117  C    6.000159
   118  O    8.000248
   119  C    6.000012
   120  C    6.000013
   121  O    8.000073
   122  O    8.000003
   123  C    5.999981
   124  H    1.000024
   125  H    1.000105
   126  H    1.000122
   127  H    1.000075
   128  H    0.999991
   129  H    1.000108
   130  H    0.999995
   131  H    1.000216
   132  H    1.000005
   133  H    0.999977
   134  H    1.000055
   135  H    1.000030
   136  H    0.999655
   137  H    0.999780
   138  H    0.999131
   139  H    0.999771
   140  H    1.000092
   141  H    1.000086
   142  H    1.000062
   143  H    1.000051
   144  H    0.999977
   145  H    1.000046
   146  H    1.000033
   147  H    0.999974
   148  H    1.000070
   149  H    1.000047
   150  H    1.000022
   151  H    1.000082
   152  H    1.000127
   153  H    1.000131
   154  H    1.000180
   155  H    1.000088
   156  H    1.000036
   157  H    1.000044
   158  H    1.000052
 Sum of Mulliken charges = 624.00000

 Dipole moment (field-independent basis, Debye):
    X=             -0.1128    Y=             -0.0426    Z=             -0.0507  Tot=              0.1308
 Quadrupole moment (field-independent basis, Debye-Ang):
   XX=              1.0011   YY=              0.0070   ZZ=             -0.1303
   XY=             -0.3799   XZ=             -0.1250   YZ=             -0.1421

 Normal termination of Gaussian 16 at Thu Oct 14 11:37:54 2021.
