 Gaussian 16, Revision A.03,
 Gaussian 16:  ES64L-G16RevA.03 25-Dec-2016

 --------------------------------------------------------
 #p PBE1PBE/Def2SVP td=(nstates=5) density=(transition=1)
 --------------------------------------------------------

 --------------------------------
 TDDFT excited states in gaussian
 --------------------------------
 Symbolic Z-matrix:
 Charge =  0 Multiplicity = 1

                         Standard orientation:
 ---------------------------------------------------------------------
 Center     Atomic      Atomic             Coordinates (Angstroms)
 Number     Number       Type             X           Y           Z
 ---------------------------------------------------------------------
      1         12           0        9.115950    0.526687   -0.123653
      2          6           0        6.850531   -2.199327   -0.681265
      3          6           0        6.560608    2.574299   -1.551024
      4          6           0       10.509592    3.299101    1.164891
      5          6           0       11.017931   -1.545470    1.821840
      6          7           0        6.982833    0.184854   -0.955181
      7          6           0        6.296991   -0.985217   -1.103625
      8          6           0        4.892303   -0.759359   -1.764211
      9          6           0        5.071533    0.716546   -2.364523
     10          6           0        6.229872    1.211029   -1.512855
     11          6           0        5.435464    0.763076   -3.830827
     12          6           0        3.730575   -1.025470   -0.821237
     13          6           0        2.528114   -1.832526   -1.376009
     14          1           0        1.188977   -1.094258   -1.844550
     15          7           0        8.665507    2.723230   -0.258754
     16          6           0        7.610173    3.316654   -0.982402
     17          6           0        7.745133    4.776085   -0.899023
     18          6           0        8.953081    4.994351   -0.126382
     19          6           0        9.374897    3.698865    0.361382
     20          6           0        6.817668    5.793498   -1.448660
     21          6           0        9.610645    6.333758    0.092869
     22          8           0        9.197724    7.282024   -0.536033
     23          6           0       10.764553    6.574150    1.038787
     24          7           0       10.434719    0.771258    1.340358
     25          6           0       10.967721    2.036762    1.568818
     26          6           0       12.066426    1.885813    2.623501
     27          6           0       12.354555    0.340203    2.655300
     28          6           0       11.215752   -0.182681    1.846477
     29          6           0       13.344398    2.794574    2.502105
     30          6           0       12.534971   -0.345144    4.044550
     31          6           0       13.786313   -1.125471    4.283724
     32          7           0        9.085983   -1.459469    0.381256
     33          6           0        9.976623   -2.207890    1.130938
     34          6           0        9.696006   -3.649852    0.990744
     35          6           0        8.411148   -3.648445    0.321205
     36          6           0        8.120860   -2.316580    0.009880
     37          6           0       10.465022   -4.844465    1.490408
     38          6           0        7.346862   -4.556077   -0.199861
     39          8           0        7.210480   -5.741177   -0.089450
     40          6           0        6.277053   -3.617648   -0.748713
     41          6           0        6.005428   -4.014499   -2.169084
     42          8           0        6.883394   -3.874814   -2.993281
     43          8           0        4.674170   -4.441244   -2.456630
     44          6           0        4.334276   -4.640408   -3.898189
     45          1           0        5.827566    3.228836   -2.027475
     46          1           0       11.084477    4.089201    1.650833
     47          1           0       11.760990   -2.192831    2.291571
     48          1           0        4.766421   -1.361143   -2.663815
     49          1           0        4.216879    1.349688   -2.126493
     50          1           0        6.506078    0.582505   -3.924377
     51          1           0        5.116121    1.734309   -4.208497
     52          1           0        4.999004    0.025482   -4.505099
     53          1           0        3.332194   -0.047133   -0.554220
     54          1           0        4.142230   -1.401709    0.115253
     55          1           0        2.290163   -2.509319   -0.555029
     56          1           0        2.785198   -2.458941   -2.230270
     57          1           0        7.250252    6.117916   -2.394604
     58          1           0        6.847197    6.681423   -0.817066
     59          1           0        5.765466    5.552430   -1.604532
     60          1           0       11.051487    7.617436    1.168942
     61          1           0       11.612476    6.047759    0.600392
     62          1           0       10.719324    6.170962    2.049788
     63          1           0       11.570208    2.284621    3.508747
     64          1           0       13.195029    0.140523    1.991266
     65          1           0       13.450256    3.175272    1.485893
     66          1           0       14.229343    2.255110    2.839183
     67          1           0       13.274017    3.635092    3.192176
     68          1           0       11.684287   -1.002779    4.223002
     69          1           0       12.398331    0.428150    4.800374
     70          1           0       13.549838   -2.189250    4.272980
     71          1           0       14.184352   -0.883754    5.269145
     72          1           0       14.606064   -0.993871    3.577806
     73          1           0       10.208508   -5.739778    0.924461
     74          1           0       10.211796   -4.953483    2.545339
     75          1           0       11.524206   -4.586838    1.476598
     76          1           0        5.429086   -3.655849   -0.064737
     77          1           0        4.728490   -5.601807   -4.227885
     78          1           0        4.818337   -3.887251   -4.519551
     79          1           0        3.257585   -4.576482   -4.054329
     80         12           0       -9.131010    0.333269   -0.011327
     81          6           0       -6.833609   -2.324440   -0.415658
     82          6           0       -7.083763    2.270447   -1.956885
     83          6           0      -10.919996    2.968200    0.896689
     84          6           0      -10.837105   -1.628334    2.332348
     85          7           0       -7.091855    0.049297   -0.932932
     86          6           0       -6.422298   -1.172077   -1.045539
     87          6           0       -5.295654   -1.060254   -2.102142
     88          6           0       -5.386660    0.438679   -2.568357
     89          6           0       -6.627130    0.996831   -1.817234
     90          6           0       -4.103431    1.250669   -2.545960
     91          6           0       -5.349530   -2.056737   -3.270631
     92          6           0       -4.046955   -2.882839   -3.454861
     93          1           0       -3.410702   -2.797180   -4.824466
     94          7           0       -9.044320    2.333440   -0.555402
     95          6           0       -8.124623    2.972014   -1.334376
     96          6           0       -8.586912    4.324075   -1.539322
     97          6           0       -9.650395    4.590456   -0.574599
     98          6           0       -9.870087    3.257895   -0.033627
     99          6           0       -7.791000    5.382786   -2.464624
    100          6           0      -10.174117    5.842985   -0.015929
    101          8           0      -11.063151    5.972425    0.776609
    102          6           0       -9.493126    7.121733   -0.494547
    103          7           0      -10.544045    0.653748    1.592470
    104          6           0      -11.183310    1.834633    1.702236
    105          6           0      -12.386285    1.713786    2.640622
    106          6           0      -12.547957    0.192651    2.791421
    107          6           0      -11.266271   -0.326040    2.178552
    108          6           0      -12.110582    2.435739    4.038621
    109          6           0      -13.816679   -0.276065    1.912685
    110          6           0      -13.612931   -0.260206    0.373054
    111          7           0       -9.028979   -1.632185    0.767526
    112          6           0       -9.785271   -2.262993    1.680382
    113          6           0       -9.275002   -3.598112    1.840417
    114          6           0       -8.169810   -3.674537    1.013774
    115          6           0       -7.994354   -2.427571    0.407573
    116          6           0       -9.779505   -4.715245    2.733877
    117          6           0       -7.101484   -4.606701    0.643574
    118          8           0       -6.709564   -5.694633    0.959436
    119          6           0       -6.233371   -3.801140   -0.358847
    120          6           0       -4.869326   -3.778314    0.225297
    121          8           0       -4.671106   -3.376739    1.344404
    122          8           0       -3.905234   -4.335427   -0.599371
    123          6           0       -2.572893   -4.620380    0.031038
    124          1           0       -6.541235    2.806848   -2.738317
    125          1           0      -11.614858    3.774435    1.142427
    126          1           0      -11.421973   -2.373464    2.875694
    127          1           0       -4.334068   -1.146668   -1.595764
    128          1           0       -5.591994    0.443184   -3.639011
    129          1           0       -3.341799    0.766903   -1.936205
    130          1           0       -4.239675    2.278529   -2.208799
    131          1           0       -3.717734    1.222267   -3.564732
    132          1           0       -5.503340   -1.660796   -4.274475
    133          1           0       -6.176093   -2.755441   -3.143378
    134          1           0       -4.176006   -3.912090   -3.120226
    135          1           0       -3.294701   -2.458030   -2.791438
    136          1           0       -8.517555    5.862856   -3.120084
    137          1           0       -7.043162    4.967304   -3.139002
    138          1           0       -7.188821    6.152043   -1.981231
    139          1           0       -9.690929    7.123235   -1.566705
    140          1           0       -8.438105    6.974929   -0.265457
    141          1           0       -9.916304    8.042247   -0.091268
    142          1           0      -13.316628    2.081467    2.206454
    143          1           0      -12.603331   -0.260184    3.781606
    144          1           0      -13.077906    2.765046    4.418930
    145          1           0      -11.470645    3.318640    4.053211
    146          1           0      -11.718768    1.640052    4.672044
    147          1           0      -14.720528    0.288009    2.142021
    148          1           0      -13.987083   -1.342461    2.061185
    149          1           0      -14.514492   -0.409313   -0.220186
    150          1           0      -12.929280   -1.072558    0.125946
    151          1           0      -13.138863    0.687411    0.115279
    152          1           0      -10.786265   -5.059474    2.498239
    153          1           0       -9.791197   -4.262545    3.725010
    154          1           0       -9.082993   -5.551302    2.796709
    155          1           0       -6.236755   -4.429170   -1.249548
    156          1           0       -1.931055   -4.245285   -0.766111
    157          1           0       -2.389536   -5.684299    0.180079
    158          1           0       -2.309661   -4.170347    0.987937
 ---------------------------------------------------------------------

 SCF Done:  E(RPBE1PBE) =  -4067.38416026     A.U. after   16 cycles

 Excitation energies and oscillator strengths:

 Excited State   1:      Singlet-A      1.7688 eV  700.95 nm  f=0.0000  <S**2>=0.000
     312 -> 313        0.70708
 This state for optimization and/or second-order correction.
 Total Energy, E(TD-HF/TD-DFT) =  -4067.31915803
 Copying the excited state density for this state as the 1-particle RhoCI density.

 Excited State   2:      Singlet-A      1.8351 eV  675.61 nm  f=0.2476  <S**2>=0.000
     309 -> 315        0.16160
     311 -> 313        0.11864
     312 -> 314        0.68657
     312 <- 314       -0.11759

 Excited State   3:      Singlet-A      1.8690 eV  663.36 nm  f=0.4955  <S**2>=0.000
     310 -> 316        0.16597
     311 -> 313        0.68442
     312 -> 314       -0.11842
     311 <- 313       -0.11013

 Excited State   4:      Singlet-A      1.9051 eV  650.81 nm  f=0.0000  <S**2>=0.000
     311 -> 314        0.70708

 Excited State   5:      Singlet-A      2.2021 eV  563.02 nm  f=0.1397  <S**2>=0.000
     310 -> 313        0.66192
     311 -> 316       -0.22314

 The electronic state is 1-A.
 Alpha  occ. eigenvalues --  -46.92947 -46.92796 -19.25969 -19.25741 -19.20953
 Alpha  occ. eigenvalues --  -19.19895 -19.19779 -19.19440 -19.18647 -19.18287
 Alpha  occ. eigenvalues --  -14.42196 -14.41711 -14.41413 -14.41398 -14.39452
 Alpha  occ. eigenvalues --  -14.39062 -14.38882 -14.38880 -10.37274 -10.35759
 Alpha  occ. eigenvalues --  -10.32540 -10.32273 -10.31738 -10.31509 -10.29569
 Alpha  occ. eigenvalues --  -10.29253 -10.29179 -10.29101 -10.28958 -10.28559
 Alpha  occ. eigenvalues --  -10.28550 -10.28533 -10.28476 -10.28238 -10.28000
 Alpha  occ. eigenvalues --  -10.27980 -10.27977 -10.27724 -10.27437 -10.27342
 Alpha  occ. eigenvalues --  -10.27014 -10.26956 -10.26853 -10.26816 -10.26543
 Alpha  occ. eigenvalues --  -10.26449 -10.26446 -10.26423 -10.26303 -10.25962
 Alpha  occ. eigenvalues --  -10.25887 -10.25882 -10.25857 -10.25825 -10.25750
 Alpha  occ. eigenvalues --  -10.25682 -10.25619 -10.25497 -10.25394 -10.25378
 Alpha  occ. eigenvalues --  -10.24907 -10.24837 -10.24787 -10.24770 -10.24723
 Alpha  occ. eigenvalues --  -10.24629 -10.24388 -10.24252 -10.24239 -10.24216
 Alpha  occ. eigenvalues --  -10.24161 -10.24124 -10.24071 -10.23972 -10.23954
 Alpha  occ. eigenvalues --  -10.23619 -10.23566 -10.23505 -10.23497 -10.23276
 Alpha  occ. eigenvalues --  -10.23270 -10.23200 -10.23047 -10.22898 -10.22715
 Alpha  occ. eigenvalues --  -10.22374  -3.14942  -3.14935  -1.87757  -1.87728
 Alpha  occ. eigenvalues --   -1.87323  -1.87322  -1.87171  -1.87150  -1.10374
 Alpha  occ. eigenvalues --   -1.10114  -1.06468  -1.06397  -1.05855  -1.05051
 Alpha  occ. eigenvalues --   -1.02741  -1.02397  -0.99830  -0.99293  -0.98980
 Alpha  occ. eigenvalues --   -0.98551  -0.98257  -0.97446  -0.96634  -0.96258
 Alpha  occ. eigenvalues --   -0.87105  -0.86702  -0.83769  -0.83248  -0.83196
 Alpha  occ. eigenvalues --   -0.83117  -0.82847  -0.82596  -0.82098  -0.81986
 Alpha  occ. eigenvalues --   -0.80869  -0.80624  -0.80607  -0.80022  -0.78850
 Alpha  occ. eigenvalues --   -0.78739  -0.78320  -0.77770  -0.76849  -0.76784
 Alpha  occ. eigenvalues --   -0.76087  -0.75503  -0.75181  -0.74920  -0.74593
 Alpha  occ. eigenvalues --   -0.74439  -0.72681  -0.72550  -0.71860  -0.71699
 Alpha  occ. eigenvalues --   -0.71172  -0.71056  -0.70718  -0.70469  -0.69675
 Alpha  occ. eigenvalues --   -0.69611  -0.67565  -0.67171  -0.66295  -0.66248
 Alpha  occ. eigenvalues --   -0.63947  -0.63706  -0.63642  -0.63414  -0.62533
 Alpha  occ. eigenvalues --   -0.62452  -0.61672  -0.61223  -0.60447  -0.59936
 Alpha  occ. eigenvalues --   -0.59854  -0.59664  -0.59614  -0.59209  -0.59067
 Alpha  occ. eigenvalues --   -0.58912  -0.56958  -0.56817  -0.55031  -0.54419
 Alpha  occ. eigenvalues --   -0.54283  -0.54068  -0.53864  -0.53860  -0.53558
 Alpha  occ. eigenvalues --   -0.53379  -0.53071  -0.52617  -0.52297  -0.52167
 Alpha  occ. eigenvalues --   -0.51166  -0.50635  -0.50264  -0.50127  -0.49898
 Alpha  occ. eigenvalues --   -0.49717  -0.49237  -0.48867  -0.48654  -0.48536
 Alpha  occ. eigenvalues --   -0.48041  -0.48005  -0.47798  -0.47553  -0.47536
 Alpha  occ. eigenvalues --   -0.47101  -0.46962  -0.46947  -0.46719  -0.46554
 Alpha  occ. eigenvalues --   -0.46406  -0.46322  -0.46120  -0.46016  -0.45725
 Alpha  occ. eigenvalues --   -0.45634  -0.45537  -0.45371  -0.45128  -0.44655
 Alpha  occ. eigenvalues --   -0.44569  -0.44509  -0.44409  -0.44398  -0.44081
 Alpha  occ. eigenvalues --   -0.44042  -0.43987  -0.43921  -0.43837  -0.43664
 Alpha  occ. eigenvalues --   -0.43387  -0.43336  -0.43090  -0.42950  -0.42923
 Alpha  occ. eigenvalues --   -0.42571  -0.42442  -0.42270  -0.42052  -0.41899
 Alpha  occ. eigenvalues --   -0.41717  -0.41669  -0.41176  -0.41112  -0.41109
 Alpha  occ. eigenvalues --   -0.40947  -0.40913  -0.40875  -0.40781  -0.40778
 Alpha  occ. eigenvalues --   -0.40687  -0.40634  -0.40321  -0.40100  -0.40043
 Alpha  occ. eigenvalues --   -0.39814  -0.39757  -0.39488  -0.39334  -0.38937
 Alpha  occ. eigenvalues --   -0.38685  -0.38515  -0.38512  -0.38330  -0.38194
 Alpha  occ. eigenvalues --   -0.38171  -0.38114  -0.37854  -0.37808  -0.37714
 Alpha  occ. eigenvalues --   -0.37557  -0.37477  -0.37352  -0.37284  -0.37154
 Alpha  occ. eigenvalues --   -0.36987  -0.36875  -0.36870  -0.36453  -0.36346
 Alpha  occ. eigenvalues --   -0.36314  -0.36086  -0.35770  -0.35761  -0.35587
 Alpha  occ. eigenvalues --   -0.35285  -0.35255  -0.34714  -0.34287  -0.34005
 Alpha  occ. eigenvalues --   -0.33613  -0.33350  -0.33075  -0.32860  -0.32774
 Alpha  occ. eigenvalues --   -0.32431  -0.32142  -0.32116  -0.31642  -0.31382
 Alpha  occ. eigenvalues --   -0.31180  -0.30994  -0.29873  -0.29642  -0.29618
 Alpha  occ. eigenvalues --   -0.29128  -0.28893  -0.28733  -0.27254  -0.26915
 Alpha  occ. eigenvalues --   -0.26413  -0.26152  -0.26009  -0.25761  -0.25377
 Alpha  occ. eigenvalues --   -0.25290  -0.25127  -0.24462  -0.21268  -0.21145
 Alpha  occ. eigenvalues --   -0.19208  -0.18844
 Alpha virt. eigenvalues --   -0.11602  -0.11461  -0.05085  -0.05015  -0.03699
 Alpha virt. eigenvalues --   -0.03614  -0.02026  -0.01944  -0.01611  -0.01143
 Alpha virt. eigenvalues --   -0.00304  -0.00110   0.00809   0.01147   0.01164

 Mulliken charges:
               1
     1  Mg  11.999999
     2  C    5.999996
     3  C    5.999998
     4  C    6.000004
     5  C    6.000001
     6  N    6.999998
     7  C    6.000004
     8  C    5.999999
     9  C    6.000001
    10  C    5.999996
    11  C    6.000001
    12  C    5.999997
    13  C    6.000001
    14  H    1.000006
    15  N    7.000001
    16  C    5.999994
    17  C    5.999996
    18  C    5.999999
    19  C    5.999993
    20  C    6.000001
    21  C    5.999999
    22  O    7.999997
    23  C    6.000000
    24  N    7.000002
    25  C    5.999994
    26  C    6.000001
    27  C    5.999998
    28  C    6.000002
    29  C    6.000000
    30  C    5.999999
    31  C    6.000000
    32  N    7.000000
    33  C    6.000002
    34  C    6.000003
    35  C    5.999998
    36  C    6.000005
    37  C    6.000000
    38  C    6.000002
    39  O    8.000002
    40  C    6.000000
    41  C    6.000001
    42  O    8.000000
    43  O    8.000000
    44  C    6.000000
    45  H    0.999998
    46  H    1.000000
    47  H    1.000002
    48  H    1.000000
    49  H    1.000000
    50  H    0.999999
    51  H    1.000000
    52  H    0.999998
    53  H    1.000002
    54  H    1.000000
    55  H    0.999999
    56  H    0.999999
    57  H    0.999997
    58  H    0.999998
    59  H    0.999998
    60  H    0.999999
    61  H    0.999999
    62  H    0.999998
    63  H    1.000000
    64  H    1.000001
    65  H    1.000001
    66  H    0.999999
    67  H    1.000001
    68  H    1.000000
    69  H    1.000002
    70  H    0.999999
    71  H    1.000001
    72  H    1.000001
    73  H    1.000002
    74  H    1.000002
    75  H    1.000002
    76  H    1.000001
    77  H    1.000000
    78  H    1.000001
    79  H    1.000000
    80  Mg  12.000000
    81  C    5.999993
    82  C    5.999996
    83  C    6.000011
    84  C    6.000000
    85  N    6.999996
    86  C    6.000012
    87  C    5.999998
    88  C    6.000004
    89  C    5.999991
    90  C    5.999994
    91  C    5.999999
    92  C    5.999998
    93  H    1.000003
    94  N    7.000002
    95  C    5.999992
    96  C    5.999991
    97  C    5.999994
    98  C    5.999990
    99  C    6.000001
   100  C    5.999997
   101  O    7.999988
   102  C    6.000001
   103  N    7.000004
   104  C    5.999988
   105  C    6.000003
   106  C    5.999998
   107  C    6.000009
   108  C    6.000002
   109  C    5.999998
   110  C    5.999999
   111  N    6.999998
   112  C    6.000013
   113  C    6.000012
   114  C    6.000001
   115  C    6.000014
   116  C    6.000000
   117  C    6.000004
   118  O    8.000011
   119  C    5.999999
   120  C    6.000005
   121  O    8.000001
   122  O    8.000001
   123  C    5.999999
   124  H    0.999996
   125  H    0.999999
   126  H    1.000004
   127  H    1.000000
   128  H    0.999998
   129  H    1.000001
   130  H    1.000003
   131  H    0.999999
   132  H    1.000003
   133  H    0.999998
   134  H    0.999998
   135  H    0.999999
   136  H    0.999994
   137  H    0.999994
   138  H    0.999993
   139  H    0.999998
   140  H    0.999999
   141  H    0.999995
   142  H    1.000000
   143  H    1.000000
   144  H    0.999999
   145  H    1.000002
   146  H    0.999996
   147  H    1.000004
   148  H    0.999999
   149  H    1.000002
   150  H    0.999996
   151  H    1.000006
   152  H    1.000007
   153  H    1.000006
   154  H    1.000005
   155  H    1.000003
   156  H    1.000005
   157  H    1.000000
   158  H    1.000001
 Sum of Mulliken charges = 624.00000

 Dipole moment (field-independent basis, Debye):
    X=             -0.0010    Y=             -0.0049    Z=              0.0015  Tot=              0.0052
 Quadrupole moment (field-independent basis, Debye-Ang):
   XX=              0.0065   YY=             -0.0056   ZZ=              0.0005
   XY=              0.0200   XZ=             -0.0081   YZ=             -0.0002

 Normal termination of Gaussian 16 at Thu Oct 14 20:28:22 2021.
