 Gaussian 16, Revision A.03,
 Gaussian 16:  ES64L-G16RevA.03 25-Dec-2016

 --------------------------------------------------------
 #p PBE1PBE/Def2SVP td=(nstates=5) density=(transition=1)
 --------------------------------------------------------

 --------------------------------
 TDDFT excited states in gaussian
 --------------------------------
 Symbolic Z-matrix:
 Charge =  0 Multiplicity = 1

                         Standard orientation:
 ---------------------------------------------------------------------
 Center     Atomic      Atomic             Coordinates (Angstroms)
 Number     Number       Type             X           Y           Z
 ---------------------------------------------------------------------
      1         12           0       19.823260   -0.849485    0.286422
      2          6           0       19.258412    2.279998   -1.272837
      3          6           0       21.256524    0.981170    2.896605
      4          6           0       20.323177   -3.651460    1.923051
      5          6           0       19.118838   -2.445597   -2.721258
      6          7           0       20.158307    1.367690    0.725628
      7          6           0       19.721606    2.454344    0.030211
      8          6           0       20.062019    3.825327    0.639247
      9          6           0       20.831377    3.296929    1.953648
     10          6           0       20.742277    1.805780    1.816805
     11          6           0       22.346332    3.736561    2.041965
     12          6           0       18.794716    4.676806    0.976220
     13          6           0       18.404066    5.964950    0.262172
     14          1           0       17.744053    7.115104    1.011189
     15          7           0       20.602369   -1.305457    2.190136
     16          6           0       21.210546   -0.421929    3.093501
     17          6           0       21.743880   -1.214396    4.178912
     18          6           0       21.348784   -2.538565    4.005414
     19          6           0       20.676457   -2.536525    2.691522
     20          6           0       22.365103   -0.508131    5.335302
     21          6           0       21.611599   -3.791176    4.840626
     22          8           0       21.223186   -4.925709    4.546284
     23          6           0       22.253654   -3.596992    6.157637
     24          7           0       19.843659   -2.789651   -0.308261
     25          6           0       19.866363   -3.824593    0.585120
     26          6           0       19.337484   -5.145786   -0.069208
     27          6           0       19.079384   -4.732885   -1.512454
     28          6           0       19.435529   -3.220950   -1.558684
     29          6           0       20.290098   -6.369139    0.133579
     30          6           0       17.618615   -5.032394   -1.882036
     31          6           0       17.337236   -5.660432   -3.198478
     32          7           0       19.392292   -0.266713   -1.656287
     33          6           0       19.100377   -1.013743   -2.769407
     34          6           0       18.777107   -0.180030   -3.888383
     35          6           0       18.712506    1.201440   -3.360162
     36          6           0       19.099967    1.055137   -1.970108
     37          6           0       18.495269   -0.664680   -5.320872
     38          6           0       18.449052    2.634696   -3.644048
     39          8           0       17.972755    3.177694   -4.655315
     40          6           0       18.794119    3.369130   -2.283507
     41          6           0       19.865186    4.300849   -2.757930
     42          8           0       21.067660    4.091063   -2.861940
     43          8           0       19.383593    5.497083   -2.957822
     44          6           0       20.234039    6.537152   -3.585989
     45          1           0       21.528743    1.678525    3.691207
     46          1           0       20.476681   -4.651880    2.332195
     47          1           0       18.831915   -2.967777   -3.635987
     48          1           0       20.760495    4.321557   -0.035703
     49          1           0       20.395449    3.513303    2.929460
     50          1           0       22.809122    4.110718    1.129175
     51          1           0       22.958829    2.890850    2.352601
     52          1           0       22.433340    4.511856    2.803398
     53          1           0       18.892127    4.966867    2.022519
     54          1           0       17.894922    4.073284    0.863901
     55          1           0       17.607874    5.594701   -0.383822
     56          1           0       19.340243    6.236705   -0.225603
     57          1           0       21.821542   -0.688310    6.261735
     58          1           0       22.388329    0.569479    5.171120
     59          1           0       23.389989   -0.821617    5.531562
     60          1           0       21.731872   -2.810975    6.703700
     61          1           0       23.251738   -3.166467    6.075286
     62          1           0       22.230892   -4.474151    6.803514
     63          1           0       18.424579   -5.318579    0.500511
     64          1           0       19.665673   -5.336199   -2.205348
     65          1           0       21.107165   -6.189653    0.832201
     66          1           0       20.768189   -6.711133   -0.783590
     67          1           0       19.704682   -7.252013    0.389915
     68          1           0       17.162968   -4.043637   -1.847087
     69          1           0       17.104538   -5.706228   -1.197080
     70          1           0       16.626713   -4.985877   -3.675639
     71          1           0       17.009555   -6.691027   -3.062455
     72          1           0       18.177331   -5.667407   -3.893285
     73          1           0       19.430122   -0.678785   -5.879973
     74          1           0       17.760468    0.004523   -5.768201
     75          1           0       18.119839   -1.687976   -5.343142
     76          1           0       17.900110    3.919896   -1.991662
     77          1           0       21.131940    6.778419   -3.018129
     78          1           0       19.712026    7.468982   -3.802578
     79          1           0       20.613944    6.324006   -4.584691
     80         12           0      -20.256117   -0.568665    0.010284
     81          6           0      -17.665525    1.645542    0.531899
     82          6           0      -22.396166    1.920813    1.442270
     83          6           0      -22.741192   -2.681302   -0.109438
     84          6           0      -18.030297   -2.999813   -1.038741
     85          7           0      -19.964939    1.507256    1.092060
     86          6           0      -18.869577    2.234023    0.947524
     87          6           0      -19.165357    3.741393    1.188238
     88          6           0      -20.503417    3.623717    1.998605
     89          6           0      -21.043311    2.269207    1.512362
     90          6           0      -20.267799    3.651231    3.550688
     91          6           0      -19.325556    4.375053   -0.211627
     92          6           0      -19.481003    5.901159   -0.259221
     93          1           0      -19.724061    6.682861    1.016189
     94          7           0      -22.285173   -0.457865    0.449119
     95          6           0      -22.964908    0.682446    1.000111
     96          6           0      -24.385716    0.367391    0.940968
     97          6           0      -24.497473   -0.943501    0.380770
     98          6           0      -23.134995   -1.455333    0.240367
     99          6           0      -25.541489    1.346681    1.369174
    100          6           0      -25.812479   -1.683535   -0.032337
    101          8           0      -25.729675   -2.830488   -0.377102
    102          6           0      -27.132314   -0.986852    0.041305
    103          7           0      -20.382004   -2.556836   -0.596481
    104          6           0      -21.541483   -3.251779   -0.566196
    105          6           0      -21.377463   -4.717090   -0.968007
    106          6           0      -19.892017   -4.765566   -1.394785
    107          6           0      -19.390006   -3.324032   -0.976459
    108          6           0      -21.733476   -5.771915    0.143098
    109          6           0      -19.589110   -5.212008   -2.802370
    110          6           0      -20.365675   -4.639431   -4.012607
    111          7           0      -18.259350   -0.744895   -0.221928
    112          6           0      -17.475846   -1.772465   -0.663420
    113          6           0      -16.123726   -1.264913   -0.763488
    114          6           0      -16.107370    0.107012   -0.335147
    115          6           0      -17.467192    0.353728   -0.001199
    116          6           0      -14.956798   -2.077342   -1.231327
    117          6           0      -15.313603    1.256909   -0.058791
    118          8           0      -14.087242    1.485328   -0.143601
    119          6           0      -16.324984    2.207236    0.786237
    120          6           0      -16.018489    3.646034    0.367292
    121          8           0      -15.997461    4.046165   -0.733489
    122          8           0      -15.732268    4.360072    1.495940
    123          6           0      -15.763344    5.805778    1.412253
    124          1           0      -23.029775    2.657304    1.939930
    125          1           0      -23.524035   -3.442538   -0.122286
    126          1           0      -17.275114   -3.726065   -1.344043
    127          1           0      -18.418174    4.211846    1.827203
    128          1           0      -21.097672    4.458156    1.625437
    129          1           0      -20.557317    4.625550    3.942437
    130          1           0      -19.213062    3.442289    3.730528
    131          1           0      -20.886880    2.939877    4.097400
    132          1           0      -20.251419    3.988392   -0.636716
    133          1           0      -18.570328    4.018952   -0.911617
    134          1           0      -20.088259    6.244531   -1.097037
    135          1           0      -18.524470    6.252633   -0.646474
    136          1           0      -26.250394    0.878256    2.052558
    137          1           0      -25.996913    1.683972    0.438225
    138          1           0      -25.110239    2.248564    1.805281
    139          1           0      -27.697397   -1.500204   -0.736992
    140          1           0      -27.079602    0.050145   -0.288319
    141          1           0      -27.607888   -0.799491    1.003984
    142          1           0      -22.045913   -4.850395   -1.818304
    143          1           0      -19.281117   -5.386288   -0.739379
    144          1           0      -21.031587   -6.592982   -0.000407
    145          1           0      -22.749127   -6.059111   -0.129860
    146          1           0      -21.758735   -5.298272    1.124437
    147          1           0      -19.995677   -6.222217   -2.768389
    148          1           0      -18.544770   -5.221168   -3.116210
    149          1           0      -20.953641   -5.326346   -4.619888
    150          1           0      -19.686782   -4.266651   -4.779539
    151          1           0      -21.057475   -3.872979   -3.662924
    152          1           0      -14.089193   -1.425994   -1.129854
    153          1           0      -15.060731   -2.301922   -2.293714
    154          1           0      -14.854969   -3.057954   -0.767361
    155          1           0      -16.108908    1.981493    1.830689
    156          1           0      -14.757394    5.875958    1.826310
    157          1           0      -16.606035    6.258910    1.934841
    158          1           0      -15.744433    6.199175    0.395563
 ---------------------------------------------------------------------

 SCF Done:  E(RPBE1PBE) =  -4067.36631868     A.U. after   16 cycles

 Excitation energies and oscillator strengths:

 Excited State   1:      Singlet-A      1.8638 eV  665.23 nm  f=0.3686  <S**2>=0.000
     309 -> 315        0.18315
     311 -> 313        0.68963
 This state for optimization and/or second-order correction.
 Total Energy, E(TD-HF/TD-DFT) =  -4067.29782559
 Copying the excited state density for this state as the 1-particle RhoCI density.

 Excited State   2:      Singlet-A      1.8859 eV  657.44 nm  f=0.3637  <S**2>=0.000
     310 -> 316        0.19004
     312 -> 314        0.68795
     312 <- 314       -0.10013

 Excited State   3:      Singlet-A      2.0032 eV  618.94 nm  f=0.0000  <S**2>=0.000
     312 -> 313        0.70711

 Excited State   4:      Singlet-A      2.0364 eV  608.85 nm  f=0.0000  <S**2>=0.000
     311 -> 314        0.70710

 Excited State   5:      Singlet-A      2.2118 eV  560.56 nm  f=0.0960  <S**2>=0.000
     309 -> 313        0.64953
     311 -> 315       -0.26740

 The electronic state is 1-A.
 Alpha  occ. eigenvalues --  -46.91933 -46.91655 -19.25929 -19.25016 -19.20390
 Alpha  occ. eigenvalues --  -19.19486 -19.19345 -19.19342 -19.19190 -19.18466
 Alpha  occ. eigenvalues --  -14.41925 -14.41530 -14.41244 -14.41167 -14.39330
 Alpha  occ. eigenvalues --  -14.39007 -14.38916 -14.38830 -10.35860 -10.35684
 Alpha  occ. eigenvalues --  -10.32827 -10.32786 -10.32455 -10.32148 -10.29182
 Alpha  occ. eigenvalues --  -10.29122 -10.28915 -10.28825 -10.28658 -10.28458
 Alpha  occ. eigenvalues --  -10.28385 -10.28371 -10.28365 -10.28282 -10.28242
 Alpha  occ. eigenvalues --  -10.28150 -10.28015 -10.27216 -10.26964 -10.26928
 Alpha  occ. eigenvalues --  -10.26869 -10.26811 -10.26689 -10.26586 -10.26451
 Alpha  occ. eigenvalues --  -10.26362 -10.26272 -10.26253 -10.26161 -10.25893
 Alpha  occ. eigenvalues --  -10.25884 -10.25867 -10.25851 -10.25704 -10.25625
 Alpha  occ. eigenvalues --  -10.25617 -10.25398 -10.25321 -10.25315 -10.25313
 Alpha  occ. eigenvalues --  -10.25273 -10.25245 -10.25107 -10.24905 -10.24864
 Alpha  occ. eigenvalues --  -10.24630 -10.24323 -10.24311 -10.24181 -10.24097
 Alpha  occ. eigenvalues --  -10.24073 -10.23908 -10.23826 -10.23810 -10.23751
 Alpha  occ. eigenvalues --  -10.23536 -10.23503 -10.23429 -10.23376 -10.23334
 Alpha  occ. eigenvalues --  -10.23278 -10.23147 -10.22906 -10.22680 -10.22632
 Alpha  occ. eigenvalues --  -10.22328  -3.14108  -3.13870  -1.86950  -1.86712
 Alpha  occ. eigenvalues --   -1.86484  -1.86335  -1.86261  -1.86085  -1.12618
 Alpha  occ. eigenvalues --   -1.12337  -1.06322  -1.04604  -1.04502  -1.03327
 Alpha  occ. eigenvalues --   -1.02666  -1.01323  -1.00012  -0.99869  -0.98650
 Alpha  occ. eigenvalues --   -0.98420  -0.97677  -0.97411  -0.96811  -0.96267
 Alpha  occ. eigenvalues --   -0.87330  -0.86287  -0.83811  -0.83653  -0.83192
 Alpha  occ. eigenvalues --   -0.83045  -0.82921  -0.82761  -0.81840  -0.81645
 Alpha  occ. eigenvalues --   -0.81059  -0.80698  -0.79942  -0.79492  -0.78659
 Alpha  occ. eigenvalues --   -0.78350  -0.77994  -0.77862  -0.77147  -0.76710
 Alpha  occ. eigenvalues --   -0.76651  -0.75955  -0.75724  -0.75170  -0.74819
 Alpha  occ. eigenvalues --   -0.74600  -0.72849  -0.72326  -0.71841  -0.71661
 Alpha  occ. eigenvalues --   -0.71176  -0.71068  -0.70570  -0.70173  -0.69890
 Alpha  occ. eigenvalues --   -0.69464  -0.67090  -0.66767  -0.66445  -0.66203
 Alpha  occ. eigenvalues --   -0.64627  -0.63467  -0.63287  -0.62624  -0.62495
 Alpha  occ. eigenvalues --   -0.62215  -0.61238  -0.60678  -0.60182  -0.59694
 Alpha  occ. eigenvalues --   -0.59653  -0.59413  -0.59367  -0.58813  -0.58753
 Alpha  occ. eigenvalues --   -0.58623  -0.57063  -0.56880  -0.55240  -0.55073
 Alpha  occ. eigenvalues --   -0.54189  -0.53977  -0.53711  -0.53599  -0.53369
 Alpha  occ. eigenvalues --   -0.53088  -0.52720  -0.52400  -0.52369  -0.52256
 Alpha  occ. eigenvalues --   -0.51109  -0.50752  -0.50579  -0.50237  -0.50181
 Alpha  occ. eigenvalues --   -0.49846  -0.49595  -0.48872  -0.48785  -0.48781
 Alpha  occ. eigenvalues --   -0.48403  -0.48271  -0.48064  -0.47886  -0.47659
 Alpha  occ. eigenvalues --   -0.47389  -0.47213  -0.46989  -0.46872  -0.46732
 Alpha  occ. eigenvalues --   -0.46715  -0.46592  -0.46252  -0.46074  -0.45356
 Alpha  occ. eigenvalues --   -0.45306  -0.45253  -0.44957  -0.44763  -0.44621
 Alpha  occ. eigenvalues --   -0.44591  -0.44360  -0.44261  -0.44197  -0.44110
 Alpha  occ. eigenvalues --   -0.43929  -0.43900  -0.43897  -0.43533  -0.43454
 Alpha  occ. eigenvalues --   -0.43343  -0.43115  -0.42908  -0.42841  -0.42785
 Alpha  occ. eigenvalues --   -0.42625  -0.42588  -0.42353  -0.42299  -0.42180
 Alpha  occ. eigenvalues --   -0.41532  -0.41414  -0.41246  -0.41244  -0.40959
 Alpha  occ. eigenvalues --   -0.40783  -0.40675  -0.40638  -0.40623  -0.40316
 Alpha  occ. eigenvalues --   -0.40229  -0.40188  -0.39987  -0.39928  -0.39785
 Alpha  occ. eigenvalues --   -0.39687  -0.39515  -0.39499  -0.39126  -0.38843
 Alpha  occ. eigenvalues --   -0.38779  -0.38691  -0.38184  -0.38157  -0.38050
 Alpha  occ. eigenvalues --   -0.37865  -0.37779  -0.37709  -0.37679  -0.37585
 Alpha  occ. eigenvalues --   -0.37354  -0.37214  -0.36940  -0.36813  -0.36675
 Alpha  occ. eigenvalues --   -0.36667  -0.36393  -0.36392  -0.36299  -0.36289
 Alpha  occ. eigenvalues --   -0.36079  -0.35825  -0.35698  -0.35324  -0.35092
 Alpha  occ. eigenvalues --   -0.35000  -0.34795  -0.34441  -0.34409  -0.34394
 Alpha  occ. eigenvalues --   -0.33395  -0.33322  -0.32885  -0.32797  -0.32529
 Alpha  occ. eigenvalues --   -0.32222  -0.32162  -0.31711  -0.31321  -0.31284
 Alpha  occ. eigenvalues --   -0.30874  -0.30844  -0.30126  -0.29663  -0.29122
 Alpha  occ. eigenvalues --   -0.28834  -0.28823  -0.28057  -0.27239  -0.26952
 Alpha  occ. eigenvalues --   -0.26305  -0.26029  -0.25923  -0.25677  -0.25617
 Alpha  occ. eigenvalues --   -0.25234  -0.24982  -0.24663  -0.20792  -0.20746
 Alpha  occ. eigenvalues --   -0.18755  -0.18726
 Alpha virt. eigenvalues --   -0.11038  -0.10936  -0.05365  -0.05341  -0.04365
 Alpha virt. eigenvalues --   -0.04003  -0.02255  -0.01802  -0.00139   0.00284
 Alpha virt. eigenvalues --    0.01095   0.01296   0.01484   0.01644   0.01819

 Mulliken charges:
               1
     1  Mg  12.004708
     2  C    5.980216
     3  C    6.001013
     4  C    6.025988
     5  C    5.993801
     6  N    6.988567
     7  C    6.032591
     8  C    5.984724
     9  C    6.010926
    10  C    5.969543
    11  C    6.004202
    12  C    5.997264
    13  C    5.997895
    14  H    1.005782
    15  N    7.007032
    16  C    5.967163
    17  C    5.981789
    18  C    5.981127
    19  C    5.973755
    20  C    6.005713
    21  C    5.987139
    22  O    7.970934
    23  C    6.004620
    24  N    7.009889
    25  C    5.958994
    26  C    6.005878
    27  C    5.992684
    28  C    6.027380
    29  C    6.002777
    30  C    5.997932
    31  C    5.999850
    32  N    6.999621
    33  C    6.028514
    34  C    6.030869
    35  C    6.000775
    36  C    6.030615
    37  C    5.999956
    38  C    6.018183
    39  O    8.026730
    40  C    6.001334
    41  C    6.000846
    42  O    8.007838
    43  O    8.000831
    44  C    5.997430
    45  H    0.987382
    46  H    0.997029
    47  H    1.009785
    48  H    1.000911
    49  H    1.000822
    50  H    0.987290
    51  H    1.004472
    52  H    0.993478
    53  H    1.008640
    54  H    0.998839
    55  H    0.995393
    56  H    1.000008
    57  H    0.982531
    58  H    0.984983
    59  H    0.981983
    60  H    0.994624
    61  H    0.992869
    62  H    0.986304
    63  H    1.000288
    64  H    1.002505
    65  H    1.006089
    66  H    0.992596
    67  H    0.996854
    68  H    0.996186
    69  H    1.010570
    70  H    0.996821
    71  H    1.006007
    72  H    0.999052
    73  H    1.019482
    74  H    1.014267
    75  H    1.017566
    76  H    1.008019
    77  H    1.006034
    78  H    1.004060
    79  H    1.000841
    80  Mg  11.999963
    81  C    6.000028
    82  C    5.999630
    83  C    5.999837
    84  C    6.000212
    85  N    6.999946
    86  C    5.999564
    87  C    6.000065
    88  C    5.999852
    89  C    6.000584
    90  C    5.999948
    91  C    6.000119
    92  C    5.999977
    93  H    0.999940
    94  N    6.999897
    95  C    6.000860
    96  C    6.000179
    97  C    6.000336
    98  C    6.000424
    99  C    5.999991
   100  C    6.000293
   101  O    8.000466
   102  C    5.999919
   103  N    7.000042
   104  C    6.000574
   105  C    5.999795
   106  C    6.000088
   107  C    5.999499
   108  C    5.999997
   109  C    6.000107
   110  C    6.000039
   111  N    7.000011
   112  C    5.999475
   113  C    5.999447
   114  C    5.999948
   115  C    5.999685
   116  C    6.000053
   117  C    5.999605
   118  O    7.999338
   119  C    6.000073
   120  C    5.999876
   121  O    7.999874
   122  O    7.999992
   123  C    6.000031
   124  H    1.000184
   125  H    1.000139
   126  H    0.999879
   127  H    1.000034
   128  H    1.000032
   129  H    1.000098
   130  H    1.000257
   131  H    0.999970
   132  H    0.999778
   133  H    1.000106
   134  H    0.999918
   135  H    1.000027
   136  H    1.000289
   137  H    1.000256
   138  H    1.000291
   139  H    1.000256
   140  H    1.000107
   141  H    1.000214
   142  H    0.999999
   143  H    1.000073
   144  H    1.000203
   145  H    0.999981
   146  H    1.000035
   147  H    0.999881
   148  H    1.000060
   149  H    0.999937
   150  H    1.000017
   151  H    0.999845
   152  H    0.999741
   153  H    0.999526
   154  H    0.999639
   155  H    0.999898
   156  H    0.999952
   157  H    0.999905
   158  H    0.999895
 Sum of Mulliken charges = 624.00000

 Dipole moment (field-independent basis, Debye):
    X=             -3.6546    Y=              2.3525    Z=             -9.2414  Tot=             10.2125
 Quadrupole moment (field-independent basis, Debye-Ang):
   XX=           -131.9495   YY=             -0.9368   ZZ=             -4.4273
   XY=             49.1996   XZ=           -189.1702   YZ=              7.4769

 Normal termination of Gaussian 16 at Fri Oct 15 12:37:59 2021.
