 Gaussian 16, Revision A.03,
 Gaussian 16:  ES64L-G16RevA.03 25-Dec-2016

 --------------------------------------------------------
 #p PBE1PBE/Def2SVP td=(nstates=5) density=(transition=1)
 --------------------------------------------------------

 --------------------------------
 TDDFT excited states in gaussian
 --------------------------------
 Symbolic Z-matrix:
 Charge =  0 Multiplicity = 1

                         Standard orientation:
 ---------------------------------------------------------------------
 Center     Atomic      Atomic             Coordinates (Angstroms)
 Number     Number       Type             X           Y           Z
 ---------------------------------------------------------------------
      1         12           0      -21.362232    0.215220   -0.717971
      2          6           0      -18.109553   -1.277469   -0.042022
      3          6           0      -22.742357   -2.861439   -0.070669
      4          6           0      -24.205618    1.755480    0.133596
      5          6           0      -19.812831    3.147014   -1.459778
      6          7           0      -20.490797   -1.799513    0.074786
      7          6           0      -19.108243   -2.187600    0.200728
      8          6           0      -19.023494   -3.700522    0.421329
      9          6           0      -20.438292   -4.227621    0.040071
     10          6           0      -21.334844   -2.913491   -0.016042
     11          6           0      -20.480844   -4.993347   -1.366180
     12          6           0      -18.448273   -4.173821    1.724201
     13          6           0      -18.370887   -3.152779    2.883758
     14          1           0      -17.888353   -3.423810    4.320475
     15          7           0      -23.289290   -0.479241   -0.183597
     16          6           0      -23.638543   -1.790934    0.050211
     17          6           0      -25.112368   -1.840640    0.303357
     18          6           0      -25.469568   -0.504857    0.468468
     19          6           0      -24.320590    0.356241    0.198401
     20          6           0      -25.819182   -3.141071    0.453211
     21          6           0      -26.885604   -0.018617    0.894009
     22          8           0      -27.713738   -0.863804    1.183731
     23          6           0      -27.260692    1.408830    1.117915
     24          7           0      -21.821392    2.208166   -0.538095
     25          6           0      -23.149914    2.558920   -0.300607
     26          6           0      -23.359618    4.062766   -0.477688
     27          6           0      -22.073650    4.497034   -1.270131
     28          6           0      -21.214687    3.238346   -1.129342
     29          6           0      -24.657632    4.552403   -1.169861
     30          6           0      -21.369990    5.802217   -0.777764
     31          6           0      -21.540477    7.084015   -1.714912
     32          7           0      -19.368276    0.844501   -0.840159
     33          6           0      -18.896113    2.084124   -1.246319
     34          6           0      -17.464144    2.013899   -1.403476
     35          6           0      -17.161199    0.755457   -0.866154
     36          6           0      -18.375203    0.089613   -0.565945
     37          6           0      -16.597436    3.194976   -1.873470
     38          6           0      -16.110609   -0.174018   -0.584114
     39          8           0      -14.899858    0.018481   -0.815279
     40          6           0      -16.655123   -1.610635   -0.163649
     41          6           0      -15.927429   -1.927615    1.081386
     42          8           0      -15.792300   -1.192900    2.065480
     43          8           0      -15.546234   -3.224855    0.984770
     44          6           0      -14.622810   -3.725957    2.050542
     45          1           0      -23.180479   -3.836020    0.152380
     46          1           0      -25.145467    2.243312    0.401329
     47          1           0      -19.350673    4.067362   -1.821834
     48          1           0      -18.332877   -3.918773   -0.393273
     49          1           0      -20.910510   -4.796910    0.840905
     50          1           0      -20.699656   -6.021532   -1.080721
     51          1           0      -19.530159   -4.856799   -1.882155
     52          1           0      -21.328626   -4.567562   -1.904082
     53          1           0      -17.486131   -4.624441    1.481314
     54          1           0      -19.132499   -4.988840    1.962536
     55          1           0      -19.382291   -2.753370    2.965202
     56          1           0      -17.703973   -2.336342    2.605985
     57          1           0      -26.113082   -3.200775    1.500735
     58          1           0      -25.130108   -3.936199    0.170125
     59          1           0      -26.655452   -3.180016   -0.245694
     60          1           0      -26.778111    1.946354    1.933290
     61          1           0      -28.300717    1.527410    1.420450
     62          1           0      -27.107839    1.811246    0.116614
     63          1           0      -23.349193    4.323149    0.581338
     64          1           0      -22.404952    4.567593   -2.306400
     65          1           0      -25.419714    4.898397   -0.470826
     66          1           0      -25.121879    3.722194   -1.701101
     67          1           0      -24.371677    5.313084   -1.897108
     68          1           0      -20.301560    5.691902   -0.590227
     69          1           0      -21.796877    5.970749    0.210984
     70          1           0      -21.748018    7.866981   -0.985966
     71          1           0      -22.345413    7.015736   -2.446858
     72          1           0      -20.625939    7.166299   -2.301156
     73          1           0      -15.681167    2.921114   -2.396959
     74          1           0      -16.334706    3.644981   -0.916708
     75          1           0      -17.127188    3.772588   -2.630668
     76          1           0      -16.458895   -2.318745   -0.970085
     77          1           0      -14.398041   -4.776948    1.865616
     78          1           0      -15.083375   -3.656602    3.036204
     79          1           0      -13.759349   -3.074530    1.923245
     80         12           0       20.656730    0.739069   -0.110729
     81          6           0       20.903957   -2.710545   -0.222881
     82          6           0       17.561003    0.441660    1.403133
     83          6           0       20.821772    4.024301    0.647456
     84          6           0       23.960179    0.810132   -1.343539
     85          7           0       19.504133   -0.963948    0.777829
     86          6           0       19.741182   -2.228016    0.416222
     87          6           0       18.689143   -3.176897    1.069311
     88          6           0       17.486994   -2.154987    1.343141
     89          6           0       18.189074   -0.765524    1.093895
     90          6           0       16.225112   -2.469677    0.504015
     91          6           0       19.215151   -3.729206    2.374564
     92          6           0       18.904561   -5.194238    2.638805
     93          1           0       18.556070   -5.747524    4.071829
     94          7           0       19.234541    2.073890    0.757824
     95          6           0       18.078179    1.783951    1.378729
     96          6           0       17.493109    3.017065    1.795007
     97          6           0       18.340250    4.106747    1.429182
     98          6           0       19.530344    3.447179    0.877736
     99          6           0       16.108512    3.081502    2.325155
    100          6           0       18.078093    5.525844    1.789536
    101          8           0       17.037531    5.835082    2.345886
    102          6           0       19.053076    6.637105    1.419284
    103          7           0       22.225756    2.272080   -0.418193
    104          6           0       22.010565    3.524905    0.072091
    105          6           0       23.271878    4.325523    0.045537
    106          6           0       24.283167    3.262905   -0.597503
    107          6           0       23.472443    2.024832   -0.890219
    108          6           0       23.165271    5.674978   -0.689110
    109          6           0       25.596765    2.950406    0.247330
    110          6           0       26.994307    3.044300   -0.408931
    111          7           0       22.118014   -0.606423   -0.689554
    112          6           0       23.355076   -0.432843   -1.226023
    113          6           0       23.798325   -1.623366   -1.803707
    114          6           0       22.864330   -2.595234   -1.472730
    115          6           0       21.905252   -1.946178   -0.736338
    116          6           0       25.161008   -1.795168   -2.536759
    117          6           0       22.508619   -3.931502   -1.588137
    118          8           0       23.166611   -4.850135   -2.063860
    119          6           0       21.176841   -4.169448   -0.725670
    120          6           0       20.080333   -4.556004   -1.538168
    121          8           0       19.362488   -3.896248   -2.293494
    122          8           0       19.907233   -5.919899   -1.323493
    123          6           0       18.857146   -6.653642   -2.008906
    124          1           0       16.524063    0.361474    1.735275
    125          1           0       21.018595    5.084019    0.825327
    126          1           0       24.942827    0.958366   -1.796420
    127          1           0       18.484553   -3.982565    0.364774
    128          1           0       17.210023   -2.066369    2.393133
    129          1           0       16.404630   -3.271793   -0.211594
    130          1           0       15.903826   -1.569523   -0.020976
    131          1           0       15.424983   -2.721918    1.199529
    132          1           0       18.960925   -3.193216    3.289221
    133          1           0       20.284912   -3.522722    2.342214
    134          1           0       19.726013   -5.764987    2.206052
    135          1           0       18.042501   -5.344525    1.988930
    136          1           0       15.531443    3.374063    1.448142
    137          1           0       16.023679    3.803881    3.137214
    138          1           0       15.751840    2.126975    2.712298
    139          1           0       19.843971    6.594798    2.168301
    140          1           0       18.527823    7.568541    1.629146
    141          1           0       19.409837    6.514247    0.396757
    142          1           0       23.430317    4.459817    1.115079
    143          1           0       24.734134    3.643128   -1.514123
    144          1           0       23.163468    6.437817    0.090163
    145          1           0       22.282465    5.744147   -1.325535
    146          1           0       24.063916    5.832711   -1.284985
    147          1           0       25.522575    1.931131    0.626102
    148          1           0       25.722507    3.620464    1.098093
    149          1           0       27.091768    2.019809   -0.767892
    150          1           0       27.756905    3.224254    0.347696
    151          1           0       27.129969    3.607597   -1.332087
    152          1           0       25.954373   -1.801871   -1.790437
    153          1           0       25.450656   -0.986249   -3.207752
    154          1           0       25.193127   -2.738543   -3.082543
    155          1           0       21.448666   -4.894872    0.041279
    156          1           0       19.221719   -7.670567   -2.150699
    157          1           0       18.480263   -6.185090   -2.918426
    158          1           0       18.029694   -6.769524   -1.308767
 ---------------------------------------------------------------------

 SCF Done:  E(RPBE1PBE) =  -4067.32021075     A.U. after   16 cycles

 Excitation energies and oscillator strengths:

 Excited State   1:      Singlet-A      1.7706 eV  700.24 nm  f=0.0000  <S**2>=0.000
     312 -> 313        0.70711
 This state for optimization and/or second-order correction.
 Total Energy, E(TD-HF/TD-DFT) =  -4067.25514223
 Copying the excited state density for this state as the 1-particle RhoCI density.

 Excited State   2:      Singlet-A      1.8047 eV  687.00 nm  f=0.3487  <S**2>=0.000
     310 -> 316        0.15295
     312 -> 314        0.69763
     312 <- 314       -0.11784

 Excited State   3:      Singlet-A      1.8606 eV  666.38 nm  f=0.3861  <S**2>=0.000
     309 -> 315        0.17798
     311 -> 313        0.69228
     311 <- 313       -0.11025

 Excited State   4:      Singlet-A      2.1180 eV  585.39 nm  f=0.0000  <S**2>=0.000
     311 -> 314        0.70710

 Excited State   5:      Singlet-A      2.2365 eV  554.38 nm  f=0.0959  <S**2>=0.000
     309 -> 313        0.64820
     311 -> 315       -0.26576

 The electronic state is 1-A.
 Alpha  occ. eigenvalues --  -46.93041 -46.92676 -19.26059 -19.25241 -19.20318
 Alpha  occ. eigenvalues --  -19.19734 -19.19491 -19.19077 -19.18578 -19.17595
 Alpha  occ. eigenvalues --  -14.41960 -14.41855 -14.41481 -14.41144 -14.39444
 Alpha  occ. eigenvalues --  -14.39254 -14.38856 -14.38491 -10.36495 -10.36219
 Alpha  occ. eigenvalues --  -10.32485 -10.32337 -10.31760 -10.30953 -10.29456
 Alpha  occ. eigenvalues --  -10.29363 -10.29254 -10.29249 -10.29125 -10.29020
 Alpha  occ. eigenvalues --  -10.29007 -10.28848 -10.28752 -10.28603 -10.28385
 Alpha  occ. eigenvalues --  -10.28276 -10.28167 -10.27460 -10.27100 -10.27095
 Alpha  occ. eigenvalues --  -10.26477 -10.26433 -10.26381 -10.26308 -10.26287
 Alpha  occ. eigenvalues --  -10.26210 -10.26205 -10.26184 -10.26127 -10.26097
 Alpha  occ. eigenvalues --  -10.25977 -10.25962 -10.25934 -10.25821 -10.25639
 Alpha  occ. eigenvalues --  -10.25606 -10.25561 -10.25459 -10.25451 -10.25435
 Alpha  occ. eigenvalues --  -10.25099 -10.25068 -10.25049 -10.24943 -10.24888
 Alpha  occ. eigenvalues --  -10.24830 -10.24736 -10.24601 -10.24443 -10.24374
 Alpha  occ. eigenvalues --  -10.24346 -10.24337 -10.24323 -10.23978 -10.23933
 Alpha  occ. eigenvalues --  -10.23895 -10.23636 -10.23614 -10.23531 -10.23503
 Alpha  occ. eigenvalues --  -10.23338 -10.23327 -10.23282 -10.22512 -10.22365
 Alpha  occ. eigenvalues --  -10.22013  -3.14950  -3.14744  -1.87803  -1.87555
 Alpha  occ. eigenvalues --   -1.87318  -1.87165  -1.87141  -1.86948  -1.10889
 Alpha  occ. eigenvalues --   -1.10409  -1.05235  -1.04771  -1.04728  -1.02365
 Alpha  occ. eigenvalues --   -1.02243  -1.01612  -1.00173  -0.99675  -0.98770
 Alpha  occ. eigenvalues --   -0.98686  -0.98461  -0.97287  -0.97263  -0.94860
 Alpha  occ. eigenvalues --   -0.88255  -0.86395  -0.83789  -0.83643  -0.83364
 Alpha  occ. eigenvalues --   -0.83217  -0.82880  -0.82670  -0.82223  -0.81219
 Alpha  occ. eigenvalues --   -0.81085  -0.80896  -0.80532  -0.80503  -0.79695
 Alpha  occ. eigenvalues --   -0.78881  -0.78591  -0.78069  -0.77308  -0.76760
 Alpha  occ. eigenvalues --   -0.76586  -0.76451  -0.75807  -0.75338  -0.75067
 Alpha  occ. eigenvalues --   -0.74523  -0.72503  -0.72277  -0.72074  -0.71910
 Alpha  occ. eigenvalues --   -0.70849  -0.70840  -0.70765  -0.70345  -0.69530
 Alpha  occ. eigenvalues --   -0.69514  -0.67914  -0.67536  -0.66852  -0.66078
 Alpha  occ. eigenvalues --   -0.64306  -0.64021  -0.63644  -0.63324  -0.62525
 Alpha  occ. eigenvalues --   -0.62153  -0.61749  -0.61315  -0.60557  -0.60536
 Alpha  occ. eigenvalues --   -0.60308  -0.60039  -0.59793  -0.59402  -0.59255
 Alpha  occ. eigenvalues --   -0.58125  -0.57217  -0.56752  -0.55033  -0.54490
 Alpha  occ. eigenvalues --   -0.54100  -0.53753  -0.53684  -0.53676  -0.53488
 Alpha  occ. eigenvalues --   -0.52805  -0.52597  -0.52512  -0.52034  -0.51799
 Alpha  occ. eigenvalues --   -0.51354  -0.50920  -0.50720  -0.50636  -0.50073
 Alpha  occ. eigenvalues --   -0.49731  -0.49348  -0.49175  -0.48898  -0.48781
 Alpha  occ. eigenvalues --   -0.48305  -0.48208  -0.47967  -0.47764  -0.47446
 Alpha  occ. eigenvalues --   -0.47145  -0.47132  -0.46966  -0.46884  -0.46702
 Alpha  occ. eigenvalues --   -0.46495  -0.46475  -0.46330  -0.46082  -0.45914
 Alpha  occ. eigenvalues --   -0.45829  -0.45798  -0.45498  -0.45320  -0.44987
 Alpha  occ. eigenvalues --   -0.44701  -0.44588  -0.44518  -0.44329  -0.44225
 Alpha  occ. eigenvalues --   -0.44056  -0.43980  -0.43692  -0.43649  -0.43635
 Alpha  occ. eigenvalues --   -0.43349  -0.43012  -0.42987  -0.42925  -0.42802
 Alpha  occ. eigenvalues --   -0.42459  -0.42269  -0.42187  -0.41862  -0.41577
 Alpha  occ. eigenvalues --   -0.41556  -0.41494  -0.41397  -0.41363  -0.41312
 Alpha  occ. eigenvalues --   -0.41233  -0.40994  -0.40812  -0.40659  -0.40508
 Alpha  occ. eigenvalues --   -0.40484  -0.40217  -0.40208  -0.40068  -0.39932
 Alpha  occ. eigenvalues --   -0.39770  -0.39701  -0.39469  -0.39300  -0.39279
 Alpha  occ. eigenvalues --   -0.38811  -0.38724  -0.38678  -0.38431  -0.38340
 Alpha  occ. eigenvalues --   -0.38245  -0.38222  -0.37948  -0.37766  -0.37657
 Alpha  occ. eigenvalues --   -0.37562  -0.37362  -0.37066  -0.37033  -0.37015
 Alpha  occ. eigenvalues --   -0.36858  -0.36785  -0.36776  -0.36658  -0.36655
 Alpha  occ. eigenvalues --   -0.36359  -0.35953  -0.35857  -0.35743  -0.35187
 Alpha  occ. eigenvalues --   -0.34894  -0.34625  -0.34322  -0.34030  -0.33378
 Alpha  occ. eigenvalues --   -0.33241  -0.33152  -0.32944  -0.32406  -0.32400
 Alpha  occ. eigenvalues --   -0.32221  -0.32149  -0.31583  -0.31382  -0.31128
 Alpha  occ. eigenvalues --   -0.30860  -0.30668  -0.29787  -0.29533  -0.29266
 Alpha  occ. eigenvalues --   -0.29041  -0.29019  -0.28297  -0.27418  -0.27089
 Alpha  occ. eigenvalues --   -0.26395  -0.25900  -0.25829  -0.25474  -0.25396
 Alpha  occ. eigenvalues --   -0.25269  -0.25066  -0.24288  -0.21484  -0.21260
 Alpha  occ. eigenvalues --   -0.19189  -0.18450
 Alpha virt. eigenvalues --   -0.11626  -0.11091  -0.05742  -0.05295  -0.04381
 Alpha virt. eigenvalues --   -0.03119  -0.02077  -0.02005  -0.01392  -0.00401
 Alpha virt. eigenvalues --   -0.00187   0.00168   0.00506   0.01028   0.01399

 Mulliken charges:
               1
     1  Mg  12.000000
     2  C    6.000000
     3  C    6.000000
     4  C    6.000000
     5  C    6.000000
     6  N    7.000000
     7  C    6.000000
     8  C    6.000000
     9  C    6.000000
    10  C    6.000000
    11  C    6.000000
    12  C    6.000000
    13  C    6.000000
    14  H    1.000000
    15  N    7.000000
    16  C    6.000000
    17  C    6.000000
    18  C    6.000000
    19  C    6.000000
    20  C    6.000000
    21  C    6.000000
    22  O    8.000000
    23  C    6.000000
    24  N    7.000000
    25  C    6.000000
    26  C    6.000000
    27  C    6.000000
    28  C    6.000000
    29  C    6.000000
    30  C    6.000000
    31  C    6.000000
    32  N    7.000000
    33  C    6.000000
    34  C    6.000000
    35  C    6.000000
    36  C    6.000000
    37  C    6.000000
    38  C    6.000000
    39  O    8.000000
    40  C    6.000000
    41  C    6.000000
    42  O    8.000000
    43  O    8.000000
    44  C    6.000000
    45  H    1.000000
    46  H    1.000000
    47  H    1.000000
    48  H    1.000000
    49  H    1.000000
    50  H    1.000000
    51  H    1.000000
    52  H    1.000000
    53  H    1.000000
    54  H    1.000000
    55  H    1.000000
    56  H    1.000000
    57  H    1.000000
    58  H    1.000000
    59  H    1.000000
    60  H    1.000000
    61  H    1.000000
    62  H    1.000000
    63  H    1.000000
    64  H    1.000000
    65  H    1.000000
    66  H    1.000000
    67  H    1.000000
    68  H    1.000000
    69  H    1.000000
    70  H    1.000000
    71  H    1.000000
    72  H    1.000000
    73  H    1.000000
    74  H    1.000000
    75  H    1.000000
    76  H    1.000000
    77  H    1.000000
    78  H    1.000000
    79  H    1.000000
    80  Mg  12.000000
    81  C    6.000000
    82  C    6.000000
    83  C    6.000000
    84  C    6.000000
    85  N    7.000000
    86  C    6.000000
    87  C    6.000000
    88  C    6.000000
    89  C    6.000000
    90  C    6.000000
    91  C    6.000000
    92  C    6.000000
    93  H    1.000000
    94  N    7.000000
    95  C    6.000000
    96  C    6.000000
    97  C    6.000000
    98  C    6.000000
    99  C    6.000000
   100  C    6.000000
   101  O    8.000000
   102  C    6.000000
   103  N    7.000000
   104  C    6.000000
   105  C    6.000000
   106  C    6.000000
   107  C    6.000000
   108  C    6.000000
   109  C    6.000000
   110  C    6.000000
   111  N    7.000000
   112  C    6.000000
   113  C    6.000000
   114  C    6.000000
   115  C    6.000000
   116  C    6.000000
   117  C    6.000000
   118  O    8.000000
   119  C    6.000000
   120  C    6.000000
   121  O    8.000000
   122  O    8.000000
   123  C    6.000000
   124  H    1.000000
   125  H    1.000000
   126  H    1.000000
   127  H    1.000000
   128  H    1.000000
   129  H    1.000000
   130  H    1.000000
   131  H    1.000000
   132  H    1.000000
   133  H    1.000000
   134  H    1.000000
   135  H    1.000000
   136  H    1.000000
   137  H    1.000000
   138  H    1.000000
   139  H    1.000000
   140  H    1.000000
   141  H    1.000000
   142  H    1.000000
   143  H    1.000000
   144  H    1.000000
   145  H    1.000000
   146  H    1.000000
   147  H    1.000000
   148  H    1.000000
   149  H    1.000000
   150  H    1.000000
   151  H    1.000000
   152  H    1.000000
   153  H    1.000000
   154  H    1.000000
   155  H    1.000000
   156  H    1.000000
   157  H    1.000000
   158  H    1.000000
 Sum of Mulliken charges = 624.00000

 Dipole moment (field-independent basis, Debye):
    X=              0.0000    Y=             -0.0000    Z=             -0.0000  Tot=              0.0000
 Quadrupole moment (field-independent basis, Debye-Ang):
   XX=              0.0000   YY=             -0.0000   ZZ=              0.0000
   XY=             -0.0000   XZ=             -0.0000   YZ=             -0.0000

 Normal termination of Gaussian 16 at Wed Oct 13 23:13:36 2021.
