 Gaussian 16, Revision A.03,
 Gaussian 16:  ES64L-G16RevA.03 25-Dec-2016

 --------------------------------------------------------
 #p PBE1PBE/Def2SVP td=(nstates=5) density=(transition=1)
 --------------------------------------------------------

 --------------------------------
 TDDFT excited states in gaussian
 --------------------------------
 Symbolic Z-matrix:
 Charge =  0 Multiplicity = 1

                         Standard orientation:
 ---------------------------------------------------------------------
 Center     Atomic      Atomic             Coordinates (Angstroms)
 Number     Number       Type             X           Y           Z
 ---------------------------------------------------------------------
      1         12           0      -30.214824    0.609048    0.523625
      2          6           0      -28.384299   -2.356352   -0.625809
      3          6           0      -27.169458    2.231101    0.250917
      4          6           0      -31.874965    3.331307    0.467871
      5          6           0      -33.160432   -1.425364    0.213247
      6          7           0      -27.987124   -0.047981   -0.289049
      7          6           0      -27.492761   -1.273506   -0.678863
      8          6           0      -26.003019   -1.106646   -1.153835
      9          6           0      -25.575169    0.266310   -0.606896
     10          6           0      -26.976519    0.855626   -0.191206
     11          6           0      -24.590785    0.314545    0.634695
     12          6           0      -25.810332   -1.284703   -2.698844
     13          6           0      -24.566470   -2.025221   -3.140715
     14          1           0      -23.384527   -1.156177   -3.673946
     15          7           0      -29.628894    2.499468    0.506186
     16          6           0      -28.355018    2.999217    0.502060
     17          6           0      -28.396372    4.486726    0.539494
     18          6           0      -29.780260    4.799258    0.577418
     19          6           0      -30.487222    3.525138    0.473664
     20          6           0      -27.201441    5.451104    0.463140
     21          6           0      -30.450896    6.171862    0.470940
     22          8           0      -29.716158    7.155713    0.453493
     23          6           0      -31.842968    6.389038    0.424447
     24          7           0      -32.271221    0.893874    0.088861
     25          6           0      -32.693046    2.169512    0.407170
     26          6           0      -34.270536    2.169144    0.436046
     27          6           0      -34.646412    0.695819    0.041760
     28          6           0      -33.278366   -0.004306    0.223912
     29          6           0      -34.920024    2.636564    1.767477
     30          6           0      -35.306208    0.426999   -1.370589
     31          6           0      -36.810948    0.705105   -1.530816
     32          7           0      -30.766947   -1.466190   -0.022700
     33          6           0      -31.972639   -2.136316    0.033995
     34          6           0      -31.809536   -3.555422   -0.169341
     35          6           0      -30.392820   -3.691320   -0.419994
     36          6           0      -29.754296   -2.402577   -0.387391
     37          6           0      -32.939695   -4.537873   -0.191920
     38          6           0      -29.412074   -4.618054   -0.771576
     39          8           0      -29.499154   -5.787018   -1.122434
     40          6           0      -28.109468   -3.813384   -1.049845
     41          6           0      -27.077011   -4.438164   -0.140748
     42          8           0      -25.957468   -4.787474   -0.523104
     43          8           0      -27.417762   -4.456961    1.271537
     44          6           0      -26.259629   -4.729687    2.121167
     45          1           0      -26.210052    2.751647    0.244566
     46          1           0      -32.566409    4.160760    0.630226
     47          1           0      -34.131318   -1.924306    0.240055
     48          1           0      -25.378684   -1.787833   -0.573897
     49          1           0      -25.212521    0.922651   -1.397966
     50          1           0      -23.634763    0.625078    0.213685
     51          1           0      -24.442957   -0.678127    1.058969
     52          1           0      -24.913751    0.938324    1.468113
     53          1           0      -25.668965   -0.354533   -3.249804
     54          1           0      -26.643564   -1.846141   -3.122018
     55          1           0      -24.888152   -2.789582   -3.848110
     56          1           0      -24.171510   -2.549822   -2.270132
     57          1           0      -27.357270    6.286141    1.146688
     58          1           0      -27.160368    5.730610   -0.589549
     59          1           0      -26.285235    4.965747    0.796680
     60          1           0      -32.261476    6.096514    1.387981
     61          1           0      -32.351864    5.923195   -0.419480
     62          1           0      -31.873952    7.454592    0.194425
     63          1           0      -34.722799    2.811932   -0.318447
     64          1           0      -35.279927    0.232247    0.797587
     65          1           0      -35.549027    1.804344    2.083795
     66          1           0      -35.534820    3.511413    1.558201
     67          1           0      -34.062121    2.842892    2.408595
     68          1           0      -35.120096   -0.634800   -1.535246
     69          1           0      -34.863593    1.065327   -2.135549
     70          1           0      -37.074630    0.972772   -0.507219
     71          1           0      -37.363438   -0.213879   -1.731725
     72          1           0      -37.099575    1.493374   -2.225684
     73          1           0      -33.615406   -4.178724   -0.967035
     74          1           0      -33.547434   -4.522643    0.712624
     75          1           0      -32.640450   -5.521204   -0.554904
     76          1           0      -27.826917   -4.019290   -2.082075
     77          1           0      -26.656924   -4.229477    3.005182
     78          1           0      -25.326280   -4.402808    1.662839
     79          1           0      -26.282885   -5.798639    2.333430
     80         12           0       30.298530    0.281453   -0.447617
     81          6           0       28.231892   -1.635894    1.840781
     82          6           0       29.981012    2.810378    1.758876
     83          6           0       32.067564    1.968668   -2.503490
     84          6           0       30.173872   -2.435966   -2.714104
     85          7           0       29.188686    0.515819    1.677675
     86          6           0       28.527189   -0.406603    2.397682
     87          6           0       28.196111    0.146577    3.796951
     88          6           0       28.394038    1.696998    3.457020
     89          6           0       29.276462    1.681227    2.280312
     90          6           0       27.171955    2.599967    3.468326
     91          6           0       29.172168   -0.467876    4.815123
     92          6           0       28.592028   -0.511369    6.259484
     93          1           0       27.052148   -0.240844    6.591901
     94          7           0       31.006692    2.168569   -0.384516
     95          6           0       30.709689    3.125357    0.567054
     96          6           0       31.337493    4.377339    0.155672
     97          6           0       32.021443    4.125941   -1.059326
     98          6           0       31.697720    2.701437   -1.354771
     99          6           0       31.238708    5.634028    0.899932
    100          6           0       32.968163    5.097295   -1.940378
    101          8           0       33.617401    4.677330   -2.858813
    102          6           0       33.318941    6.520519   -1.470660
    103          7           0       30.781203   -0.099569   -2.460138
    104          6           0       31.665344    0.718210   -3.025845
    105          6           0       32.197315    0.238642   -4.349588
    106          6           0       31.910201   -1.274655   -4.192808
    107          6           0       30.755080   -1.223551   -3.134392
    108          6           0       31.448630    0.853940   -5.621988
    109          6           0       33.144598   -2.181954   -3.781296
    110          6           0       34.585068   -1.771239   -4.204240
    111          7           0       29.330318   -1.580861   -0.532727
    112          6           0       29.397538   -2.592701   -1.432958
    113          6           0       28.772661   -3.745943   -0.965336
    114          6           0       28.280213   -3.383059    0.255680
    115          6           0       28.637892   -2.076732    0.524816
    116          6           0       28.740765   -5.099536   -1.669702
    117          6           0       27.537231   -3.944277    1.393988
    118          8           0       26.899874   -4.975480    1.547076
    119          6           0       27.570068   -2.800214    2.499047
    120          6           0       26.203835   -2.582722    2.941407
    121          8           0       25.323580   -1.948476    2.351156
    122          8           0       25.991599   -3.416255    3.981120
    123          6           0       24.580847   -3.584970    4.280115
    124          1           0       29.723718    3.670337    2.380872
    125          1           0       32.636748    2.588040   -3.199010
    126          1           0       30.245328   -3.278916   -3.404335
    127          1           0       27.144553    0.004253    4.046409
    128          1           0       28.990550    2.100593    4.274040
    129          1           0       27.203806    3.323139    4.282693
    130          1           0       26.264349    2.003946    3.561890
    131          1           0       27.011700    3.143189    2.536994
    132          1           0       30.027139    0.204602    4.888589
    133          1           0       29.568948   -1.439174    4.520318
    134          1           0       29.195552    0.073217    6.954576
    135          1           0       28.923170   -1.492658    6.599077
    136          1           0       31.025054    5.463587    1.954898
    137          1           0       30.431741    6.185521    0.417174
    138          1           0       32.148271    6.234801    0.881246
    139          1           0       33.918001    6.548845   -0.560512
    140          1           0       32.363216    7.044920   -1.457395
    141          1           0       33.855774    7.047887   -2.259633
    142          1           0       33.237533    0.562164   -4.321134
    143          1           0       31.506700   -1.729051   -5.097362
    144          1           0       32.290709    1.126781   -6.257628
    145          1           0       30.855101    1.743755   -5.409182
    146          1           0       30.821129    0.162416   -6.182953
    147          1           0       32.947551   -3.202758   -4.105668
    148          1           0       33.140334   -2.041659   -2.700223
    149          1           0       35.016845   -1.091194   -3.470332
    150          1           0       34.446306   -1.379191   -5.212388
    151          1           0       35.239854   -2.633190   -4.327529
    152          1           0       29.663432   -5.125801   -2.249925
    153          1           0       27.929848   -5.189535   -2.391895
    154          1           0       28.707693   -5.878867   -0.908566
    155          1           0       28.189571   -3.178756    3.313054
    156          1           0       24.392380   -4.273517    5.103321
    157          1           0       23.918082   -3.752846    3.431036
    158          1           0       24.166242   -2.661015    4.684711
 ---------------------------------------------------------------------

 SCF Done:  E(RPBE1PBE) =  -4067.30190404     A.U. after   16 cycles

 Excitation energies and oscillator strengths:

 Excited State   1:      Singlet-A      1.8703 eV  662.91 nm  f=0.3400  <S**2>=0.000
     309 -> 315       -0.19149
     311 -> 313        0.68647
 This state for optimization and/or second-order correction.
 Total Energy, E(TD-HF/TD-DFT) =  -4067.23317165
 Copying the excited state density for this state as the 1-particle RhoCI density.

 Excited State   2:      Singlet-A      1.9474 eV  636.66 nm  f=0.3571  <S**2>=0.000
     310 -> 316       -0.18526
     312 -> 314        0.68731

 Excited State   3:      Singlet-A      1.9931 eV  622.06 nm  f=0.0000  <S**2>=0.000
     312 -> 313        0.70711

 Excited State   4:      Singlet-A      2.2112 eV  560.70 nm  f=0.0000  <S**2>=0.000
     311 -> 314        0.70711

 Excited State   5:      Singlet-A      2.2322 eV  555.44 nm  f=0.0731  <S**2>=0.000
     308 -> 313       -0.10213
     309 -> 313        0.63201
     311 -> 315        0.29400

 The electronic state is 1-A.
 Alpha  occ. eigenvalues --  -46.94131 -46.92749 -19.25560 -19.24371 -19.20497
 Alpha  occ. eigenvalues --  -19.20325 -19.19306 -19.19025 -19.18926 -19.18175
 Alpha  occ. eigenvalues --  -14.42074 -14.41631 -14.40770 -14.40732 -14.40319
 Alpha  occ. eigenvalues --  -14.39430 -14.38904 -14.38466 -10.36452 -10.35216
 Alpha  occ. eigenvalues --  -10.33937 -10.32176 -10.31967 -10.30697 -10.29921
 Alpha  occ. eigenvalues --  -10.29552 -10.29459 -10.29069 -10.28862 -10.28781
 Alpha  occ. eigenvalues --  -10.28580 -10.28228 -10.28111 -10.28029 -10.27994
 Alpha  occ. eigenvalues --  -10.27778 -10.27533 -10.27492 -10.27239 -10.27143
 Alpha  occ. eigenvalues --  -10.27125 -10.26731 -10.26671 -10.26659 -10.26655
 Alpha  occ. eigenvalues --  -10.26641 -10.26509 -10.26191 -10.26115 -10.25998
 Alpha  occ. eigenvalues --  -10.25960 -10.25960 -10.25918 -10.25809 -10.25795
 Alpha  occ. eigenvalues --  -10.25732 -10.25280 -10.25226 -10.25184 -10.25169
 Alpha  occ. eigenvalues --  -10.25166 -10.25116 -10.25064 -10.25043 -10.24813
 Alpha  occ. eigenvalues --  -10.24648 -10.24521 -10.24432 -10.24426 -10.24423
 Alpha  occ. eigenvalues --  -10.24402 -10.24234 -10.24095 -10.23950 -10.23910
 Alpha  occ. eigenvalues --  -10.23745 -10.23577 -10.23506 -10.23456 -10.23450
 Alpha  occ. eigenvalues --  -10.23298 -10.23106 -10.23076 -10.23015 -10.22899
 Alpha  occ. eigenvalues --  -10.21731  -3.16124  -3.14831  -1.88906  -1.88550
 Alpha  occ. eigenvalues --   -1.88311  -1.87673  -1.87223  -1.87039  -1.11290
 Alpha  occ. eigenvalues --   -1.08662  -1.07154  -1.05101  -1.04396  -1.03790
 Alpha  occ. eigenvalues --   -1.01454  -1.01175  -1.00435  -0.99756  -0.99560
 Alpha  occ. eigenvalues --   -0.99153  -0.98368  -0.98000  -0.97890  -0.95835
 Alpha  occ. eigenvalues --   -0.87309  -0.86794  -0.83247  -0.83214  -0.83193
 Alpha  occ. eigenvalues --   -0.82955  -0.82769  -0.82404  -0.81719  -0.81265
 Alpha  occ. eigenvalues --   -0.81241  -0.81117  -0.80343  -0.80167  -0.79230
 Alpha  occ. eigenvalues --   -0.78583  -0.78116  -0.77923  -0.77460  -0.76830
 Alpha  occ. eigenvalues --   -0.76618  -0.75893  -0.75526  -0.75073  -0.74450
 Alpha  occ. eigenvalues --   -0.74230  -0.72680  -0.72511  -0.71664  -0.71312
 Alpha  occ. eigenvalues --   -0.71141  -0.70973  -0.70131  -0.70103  -0.69607
 Alpha  occ. eigenvalues --   -0.69583  -0.67336  -0.67303  -0.66379  -0.66054
 Alpha  occ. eigenvalues --   -0.63963  -0.63499  -0.63152  -0.63039  -0.62185
 Alpha  occ. eigenvalues --   -0.62151  -0.61377  -0.61064  -0.60007  -0.59912
 Alpha  occ. eigenvalues --   -0.59832  -0.59529  -0.59470  -0.59126  -0.58602
 Alpha  occ. eigenvalues --   -0.58247  -0.56434  -0.56397  -0.55177  -0.54879
 Alpha  occ. eigenvalues --   -0.54423  -0.53994  -0.53831  -0.53771  -0.53510
 Alpha  occ. eigenvalues --   -0.52958  -0.52504  -0.52122  -0.51847  -0.51543
 Alpha  occ. eigenvalues --   -0.51211  -0.50995  -0.50270  -0.50009  -0.49802
 Alpha  occ. eigenvalues --   -0.49350  -0.49133  -0.48731  -0.48543  -0.48421
 Alpha  occ. eigenvalues --   -0.48295  -0.48209  -0.48113  -0.48026  -0.47846
 Alpha  occ. eigenvalues --   -0.47552  -0.47465  -0.47231  -0.47114  -0.46817
 Alpha  occ. eigenvalues --   -0.46594  -0.46405  -0.46068  -0.45925  -0.45907
 Alpha  occ. eigenvalues --   -0.45738  -0.45590  -0.45240  -0.45237  -0.44990
 Alpha  occ. eigenvalues --   -0.44740  -0.44509  -0.44490  -0.44270  -0.44056
 Alpha  occ. eigenvalues --   -0.43867  -0.43618  -0.43554  -0.43444  -0.43332
 Alpha  occ. eigenvalues --   -0.43299  -0.43295  -0.43032  -0.42869  -0.42843
 Alpha  occ. eigenvalues --   -0.42643  -0.42628  -0.42401  -0.42217  -0.42078
 Alpha  occ. eigenvalues --   -0.41865  -0.41722  -0.41458  -0.41446  -0.41134
 Alpha  occ. eigenvalues --   -0.40905  -0.40774  -0.40600  -0.40560  -0.40267
 Alpha  occ. eigenvalues --   -0.40154  -0.39827  -0.39744  -0.39490  -0.39426
 Alpha  occ. eigenvalues --   -0.39268  -0.39143  -0.39113  -0.38957  -0.38933
 Alpha  occ. eigenvalues --   -0.38818  -0.38724  -0.38663  -0.38477  -0.38407
 Alpha  occ. eigenvalues --   -0.38062  -0.38044  -0.37999  -0.37820  -0.37553
 Alpha  occ. eigenvalues --   -0.37406  -0.37390  -0.37356  -0.37146  -0.37141
 Alpha  occ. eigenvalues --   -0.37053  -0.36841  -0.36732  -0.36361  -0.36283
 Alpha  occ. eigenvalues --   -0.36162  -0.36160  -0.35340  -0.35180  -0.35056
 Alpha  occ. eigenvalues --   -0.34838  -0.34628  -0.34256  -0.34209  -0.33799
 Alpha  occ. eigenvalues --   -0.33602  -0.33167  -0.32983  -0.32878  -0.32554
 Alpha  occ. eigenvalues --   -0.32425  -0.32159  -0.31664  -0.31343  -0.30849
 Alpha  occ. eigenvalues --   -0.30691  -0.30251  -0.29665  -0.29411  -0.29221
 Alpha  occ. eigenvalues --   -0.28659  -0.28406  -0.27976  -0.27105  -0.26947
 Alpha  occ. eigenvalues --   -0.26651  -0.26566  -0.26150  -0.26073  -0.25519
 Alpha  occ. eigenvalues --   -0.25281  -0.25161  -0.24431  -0.21378  -0.20336
 Alpha  occ. eigenvalues --   -0.19105  -0.18873
 Alpha virt. eigenvalues --   -0.11328  -0.10760  -0.06106  -0.04633  -0.04371
 Alpha virt. eigenvalues --   -0.03611  -0.02414  -0.02148  -0.01818  -0.00433
 Alpha virt. eigenvalues --    0.00098   0.00129   0.00145   0.01112   0.01385

 Mulliken charges:
               1
     1  Mg  11.996771
     2  C    6.014978
     3  C    6.000668
     4  C    5.971557
     5  C    6.011047
     6  N    7.009763
     7  C    5.972823
     8  C    6.005316
     9  C    5.995970
    10  C    6.026197
    11  C    5.993115
    12  C    6.001551
    13  C    6.001292
    14  H    0.991907
    15  N    6.992547
    16  C    6.033503
    17  C    6.024853
    18  C    6.002926
    19  C    6.037086
    20  C    5.999093
    21  C    6.012898
    22  O    8.016715
    23  C    5.996149
    24  N    6.999066
    25  C    6.037724
    26  C    5.989521
    27  C    6.005332
    28  C    5.967428
    29  C    5.999335
    30  C    6.003084
    31  C    5.998764
    32  N    7.003356
    33  C    5.972503
    34  C    5.963435
    35  C    6.006844
    36  C    5.962181
    37  C    6.000629
    38  C    5.983340
    39  O    7.972197
    40  C    6.001797
    41  C    5.996297
    42  O    7.990866
    43  O    8.003511
    44  C    6.001370
    45  H    1.011578
    46  H    1.006209
    47  H    0.991705
    48  H    1.001060
    49  H    1.000143
    50  H    1.005795
    51  H    1.013113
    52  H    0.997185
    53  H    0.991828
    54  H    1.006879
    55  H    1.002614
    56  H    1.000858
    57  H    1.013778
    58  H    1.016407
    59  H    1.014678
    60  H    1.008081
    61  H    1.010040
    62  H    1.010554
    63  H    1.003546
    64  H    1.002564
    65  H    1.010081
    66  H    1.000427
    67  H    0.996994
    68  H    1.006632
    69  H    0.991106
    70  H    0.995634
    71  H    1.001045
    72  H    0.994686
    73  H    0.980553
    74  H    0.980202
    75  H    0.986599
    76  H    0.992654
    77  H    0.995825
    78  H    0.993642
    79  H    0.997999
    80  Mg  11.999997
    81  C    5.999979
    82  C    6.000002
    83  C    6.000051
    84  C    6.000009
    85  N    7.000092
    86  C    5.999961
    87  C    5.999973
    88  C    6.000021
    89  C    5.999922
    90  C    6.000022
    91  C    5.999999
    92  C    6.000010
    93  H    0.999986
    94  N    6.999990
    95  C    5.999952
    96  C    5.999961
    97  C    5.999953
    98  C    5.999951
    99  C    6.000038
   100  C    5.999992
   101  O    7.999960
   102  C    6.000024
   103  N    6.999966
   104  C    5.999996
   105  C    6.000026
   106  C    6.000015
   107  C    6.000019
   108  C    5.999975
   109  C    5.999983
   110  C    6.000014
   111  N    7.000045
   112  C    6.000020
   113  C    6.000061
   114  C    5.999937
   115  C    6.000072
   116  C    5.999992
   117  C    6.000046
   118  O    8.000038
   119  C    5.999997
   120  C    6.000009
   121  O    7.999987
   122  O    7.999994
   123  C    6.000001
   124  H    0.999975
   125  H    0.999998
   126  H    1.000022
   127  H    1.000000
   128  H    0.999993
   129  H    0.999983
   130  H    0.999973
   131  H    0.999990
   132  H    1.000016
   133  H    0.999999
   134  H    1.000001
   135  H    1.000006
   136  H    0.999977
   137  H    0.999958
   138  H    0.999972
   139  H    0.999992
   140  H    0.999980
   141  H    0.999979
   142  H    1.000005
   143  H    1.000008
   144  H    1.000003
   145  H    0.999995
   146  H    0.999994
   147  H    1.000006
   148  H    1.000000
   149  H    1.000004
   150  H    1.000003
   151  H    1.000010
   152  H    1.000027
   153  H    1.000035
   154  H    1.000033
   155  H    1.000013
   156  H    1.000012
   157  H    1.000005
   158  H    0.999994
 Sum of Mulliken charges = 624.00000

 Dipole moment (field-independent basis, Debye):
    X=              2.7168    Y=              9.3430    Z=              1.0926  Tot=              9.7911
 Quadrupole moment (field-independent basis, Debye-Ang):
   XX=           -165.1037   YY=              7.7474   ZZ=             -0.6341
   XY=           -280.2209   XZ=            -32.4583   YZ=              1.4108

 Normal termination of Gaussian 16 at Fri Oct 15 08:11:43 2021.
