 Gaussian 16, Revision A.03,
 Gaussian 16:  ES64L-G16RevA.03 25-Dec-2016

 --------------------------------------------------------
 #p PBE1PBE/Def2SVP td=(nstates=5) density=(transition=1)
 --------------------------------------------------------

 --------------------------------
 TDDFT excited states in gaussian
 --------------------------------
 Symbolic Z-matrix:
 Charge =  0 Multiplicity = 1

                         Standard orientation:
 ---------------------------------------------------------------------
 Center     Atomic      Atomic             Coordinates (Angstroms)
 Number     Number       Type             X           Y           Z
 ---------------------------------------------------------------------
      1         12           0      -26.031893   -0.579216   -0.364884
      2          6           0      -24.209936    2.490533   -0.033100
      3          6           0      -28.646135    0.933006    1.299585
      4          6           0      -27.396432   -3.538756   -0.131726
      5          6           0      -23.186367   -1.920160   -1.819286
      6          7           0      -26.284531    1.458494    0.805244
      7          6           0      -25.432512    2.518265    0.650109
      8          6           0      -26.127947    3.817226    1.138441
      9          6           0      -27.549122    3.314882    1.631618
     10          6           0      -27.540025    1.786849    1.261483
     11          6           0      -27.912120    3.504732    3.164388
     12          6           0      -26.258667    4.937351    0.072119
     13          6           0      -25.926677    6.327885    0.482307
     14          1           0      -25.874464    6.803212    1.984481
     15          7           0      -27.821629   -1.269397    0.493018
     16          6           0      -28.852289   -0.492514    1.021405
     17          6           0      -29.932110   -1.385546    1.483548
     18          6           0      -29.605847   -2.692343    0.952651
     19          6           0      -28.232873   -2.550794    0.414707
     20          6           0      -31.144621   -0.974113    2.262493
     21          6           0      -30.411457   -4.012808    0.938321
     22          8           0      -30.172639   -4.989254    0.196829
     23          6           0      -31.652284   -4.060858    1.735888
     24          7           0      -25.355535   -2.397596   -0.837318
     25          6           0      -26.130458   -3.503714   -0.565743
     26          6           0      -25.541413   -4.778453   -1.230950
     27          6           0      -24.360205   -4.145675   -2.091900
     28          6           0      -24.290387   -2.720055   -1.572610
     29          6           0      -25.075269   -5.965009   -0.292300
     30          6           0      -24.517535   -4.168497   -3.604041
     31          6           0      -23.502293   -5.044400   -4.367681
     32          7           0      -24.157581    0.147950   -1.018365
     33          6           0      -23.094672   -0.530497   -1.566154
     34          6           0      -21.951966    0.377117   -1.732686
     35          6           0      -22.392617    1.572369   -1.192710
     36          6           0      -23.728717    1.392159   -0.770506
     37          6           0      -20.590874    0.089262   -2.274791
     38          6           0      -21.968568    2.908078   -0.971879
     39          8           0      -20.925948    3.534683   -1.315144
     40          6           0      -23.072747    3.540950   -0.236330
     41          6           0      -22.557630    4.177640    1.026081
     42          8           0      -22.175021    3.593652    1.981697
     43          8           0      -22.659941    5.503758    0.939989
     44          6           0      -21.959918    6.321375    1.871641
     45          1           0      -29.515216    1.329010    1.829356
     46          1           0      -27.744142   -4.574223   -0.165233
     47          1           0      -22.271153   -2.371780   -2.205612
     48          1           0      -25.521202    4.184713    1.966865
     49          1           0      -28.334686    3.795925    1.049651
     50          1           0      -27.210820    4.109451    3.738679
     51          1           0      -27.864619    2.515176    3.621278
     52          1           0      -28.928060    3.886273    3.270761
     53          1           0      -27.271123    5.030389   -0.322523
     54          1           0      -25.611372    4.776513   -0.789515
     55          1           0      -26.674915    7.015668    0.087194
     56          1           0      -24.962335    6.572859    0.038048
     57          1           0      -31.214754   -1.577443    3.167315
     58          1           0      -32.003218   -1.193004    1.627664
     59          1           0      -31.194984    0.108337    2.384713
     60          1           0      -31.373263   -3.939956    2.782659
     61          1           0      -32.027807   -5.077436    1.621581
     62          1           0      -32.420151   -3.396476    1.340490
     63          1           0      -26.314429   -5.129461   -1.915318
     64          1           0      -23.458355   -4.705064   -1.843399
     65          1           0      -25.253594   -5.709196    0.751530
     66          1           0      -24.054448   -6.293362   -0.491497
     67          1           0      -25.667475   -6.838890   -0.564293
     68          1           0      -24.613291   -3.202598   -4.100197
     69          1           0      -25.482495   -4.631050   -3.808711
     70          1           0      -23.064740   -4.620397   -5.271268
     71          1           0      -24.072478   -5.856964   -4.818737
     72          1           0      -22.658983   -5.405279   -3.780423
     73          1           0      -20.558236   -0.830376   -2.859706
     74          1           0      -19.907284   -0.147816   -1.459691
     75          1           0      -20.248179    1.008519   -2.749632
     76          1           0      -23.470414    4.307429   -0.900997
     77          1           0      -20.908702    6.277485    1.583355
     78          1           0      -21.988447    5.886515    2.870843
     79          1           0      -22.277323    7.361961    1.799251
     80         12           0       25.568468   -0.769395    0.438657
     81          6           0       25.803608    2.301618   -1.243204
     82          6           0       26.341942    0.680871    3.340377
     83          6           0       25.384878   -3.700829    1.797557
     84          6           0       25.772049   -2.286719   -2.839293
     85          7           0       26.117332    1.259243    0.913693
     86          6           0       25.996432    2.366966    0.171301
     87          6           0       26.417637    3.600894    0.926843
     88          6           0       26.981994    2.996838    2.274945
     89          6           0       26.448423    1.579510    2.196978
     90          6           0       28.523448    3.052574    2.528648
     91          6           0       25.140699    4.536658    1.238618
     92          6           0       25.374363    6.043684    0.892174
     93          1           0       23.986321    6.885566    0.923182
     94          7           0       25.577717   -1.362316    2.290021
     95          6           0       25.879984   -0.608825    3.411469
     96          6           0       25.543020   -1.375370    4.579341
     97          6           0       25.202001   -2.735752    4.192442
     98          6           0       25.259694   -2.650351    2.682896
     99          6           0       25.756678   -0.739577    5.983070
    100          6           0       24.817449   -4.016603    4.924190
    101          8           0       24.465428   -5.089009    4.400464
    102          6           0       24.785835   -3.842388    6.401339
    103          7           0       25.740375   -2.665877   -0.459108
    104          6           0       25.626791   -3.717546    0.416296
    105          6           0       25.821848   -5.052268   -0.303873
    106          6           0       25.626321   -4.630816   -1.783923
    107          6           0       25.779902   -3.109645   -1.727737
    108          6           0       27.197051   -5.701907    0.124998
    109          6           0       24.258866   -5.070756   -2.460006
    110          6           0       24.252094   -5.192357   -3.992249
    111          7           0       25.713135   -0.165736   -1.645788
    112          6           0       25.778945   -0.892598   -2.795719
    113          6           0       25.727616   -0.036117   -3.959378
    114          6           0       25.664232    1.234440   -3.358469
    115          6           0       25.722139    1.115506   -1.962507
    116          6           0       25.734069   -0.343542   -5.474514
    117          6           0       25.558069    2.632884   -3.668394
    118          8           0       25.322915    3.240569   -4.679834
    119          6           0       25.818335    3.392323   -2.265838
    120          6           0       24.779288    4.424168   -2.318328
    121          8           0       23.561810    4.337811   -2.017764
    122          8           0       25.402985    5.520232   -2.783625
    123          6           0       24.610731    6.733537   -2.989240
    124          1           0       26.504359    1.161606    4.307466
    125          1           0       25.247288   -4.685781    2.248988
    126          1           0       25.735927   -2.798347   -3.803340
    127          1           0       27.136025    4.238636    0.411018
    128          1           0       26.547678    3.389624    3.194482
    129          1           0       28.905445    2.033479    2.468704
    130          1           0       28.628054    3.431506    3.545144
    131          1           0       29.143798    3.639264    1.852013
    132          1           0       24.739055    4.472387    2.250571
    133          1           0       24.306512    4.101098    0.688487
    134          1           0       25.811313    6.144432   -0.101103
    135          1           0       25.996700    6.591484    1.599375
    136          1           0       24.834247   -0.233445    6.264414
    137          1           0       26.414138    0.130641    5.974259
    138          1           0       26.246045   -1.355277    6.737385
    139          1           0       24.067455   -3.104406    6.756532
    140          1           0       25.824184   -3.590146    6.619963
    141          1           0       24.592128   -4.765998    6.947529
    142          1           0       25.014457   -5.690493    0.055384
    143          1           0       26.399843   -5.097129   -2.394031
    144          1           0       27.917946   -5.629861   -0.689288
    145          1           0       27.214340   -6.755754    0.401653
    146          1           0       27.746493   -5.203907    0.924152
    147          1           0       23.610921   -4.216530   -2.261761
    148          1           0       23.783686   -5.980726   -2.092960
    149          1           0       23.606767   -4.448044   -4.460586
    150          1           0       23.960962   -6.138327   -4.449309
    151          1           0       25.252988   -4.899804   -4.306507
    152          1           0       26.223669   -1.312096   -5.575994
    153          1           0       26.271858    0.426421   -6.029305
    154          1           0       24.689048   -0.424515   -5.773452
    155          1           0       26.789128    3.887514   -2.293368
    156          1           0       24.910356    7.471068   -2.244882
    157          1           0       23.542637    6.525198   -3.041569
    158          1           0       24.912367    7.178507   -3.937377
 ---------------------------------------------------------------------

 SCF Done:  E(RPBE1PBE) =  -4067.36618240     A.U. after   16 cycles

 Excitation energies and oscillator strengths:

 Excited State   1:      Singlet-A      1.8640 eV  665.15 nm  f=0.4025  <S**2>=0.000
     310 -> 316       -0.17330
     311 -> 313        0.69402
     311 <- 313       -0.11114
 This state for optimization and/or second-order correction.
 Total Energy, E(TD-HF/TD-DFT) =  -4067.29768116
 Copying the excited state density for this state as the 1-particle RhoCI density.

 Excited State   2:      Singlet-A      1.8755 eV  661.09 nm  f=0.3737  <S**2>=0.000
     309 -> 315       -0.18972
     312 -> 314        0.68796

 Excited State   3:      Singlet-A      1.9470 eV  636.80 nm  f=0.0000  <S**2>=0.000
     312 -> 313        0.70711

 Excited State   4:      Singlet-A      2.0876 eV  593.90 nm  f=0.0000  <S**2>=0.000
     311 -> 314        0.70711

 Excited State   5:      Singlet-A      2.2041 eV  562.52 nm  f=0.1211  <S**2>=0.000
     310 -> 313        0.66062
     311 -> 316        0.24068

 The electronic state is 1-A.
 Alpha  occ. eigenvalues --  -46.92294 -46.90976 -19.25520 -19.25502 -19.19803
 Alpha  occ. eigenvalues --  -19.19719 -19.19280 -19.19013 -19.18979 -19.18671
 Alpha  occ. eigenvalues --  -14.42053 -14.41522 -14.41274 -14.41147 -14.39330
 Alpha  occ. eigenvalues --  -14.39209 -14.39108 -14.38081 -10.35898 -10.35543
 Alpha  occ. eigenvalues --  -10.33017 -10.32288 -10.31829 -10.31566 -10.29431
 Alpha  occ. eigenvalues --  -10.29249 -10.28973 -10.28871 -10.28623 -10.28535
 Alpha  occ. eigenvalues --  -10.28476 -10.28245 -10.28213 -10.28209 -10.28059
 Alpha  occ. eigenvalues --  -10.27946 -10.27711 -10.27593 -10.27571 -10.27466
 Alpha  occ. eigenvalues --  -10.27013 -10.26948 -10.26731 -10.26708 -10.26560
 Alpha  occ. eigenvalues --  -10.26207 -10.26168 -10.26124 -10.26079 -10.26066
 Alpha  occ. eigenvalues --  -10.25849 -10.25797 -10.25656 -10.25646 -10.25594
 Alpha  occ. eigenvalues --  -10.25567 -10.25534 -10.25496 -10.25410 -10.25278
 Alpha  occ. eigenvalues --  -10.25187 -10.25101 -10.25041 -10.24984 -10.24919
 Alpha  occ. eigenvalues --  -10.24595 -10.24435 -10.24287 -10.24280 -10.24120
 Alpha  occ. eigenvalues --  -10.24093 -10.23967 -10.23929 -10.23798 -10.23675
 Alpha  occ. eigenvalues --  -10.23484 -10.23435 -10.23425 -10.23365 -10.23247
 Alpha  occ. eigenvalues --  -10.23002 -10.22910 -10.22853 -10.22825 -10.22584
 Alpha  occ. eigenvalues --  -10.22222  -3.14451  -3.13390  -1.87274  -1.86839
 Alpha  occ. eigenvalues --   -1.86672  -1.86217  -1.85777  -1.85629  -1.13297
 Alpha  occ. eigenvalues --   -1.10695  -1.05552  -1.04414  -1.04014  -1.03210
 Alpha  occ. eigenvalues --   -1.02530  -1.00302  -0.99837  -0.99331  -0.98976
 Alpha  occ. eigenvalues --   -0.98353  -0.98261  -0.97229  -0.97025  -0.96525
 Alpha  occ. eigenvalues --   -0.87770  -0.87092  -0.83462  -0.83414  -0.82726
 Alpha  occ. eigenvalues --   -0.82685  -0.82520  -0.82343  -0.81885  -0.81782
 Alpha  occ. eigenvalues --   -0.81284  -0.81160  -0.80618  -0.80609  -0.78830
 Alpha  occ. eigenvalues --   -0.78803  -0.78107  -0.77792  -0.76859  -0.76680
 Alpha  occ. eigenvalues --   -0.76448  -0.76338  -0.76020  -0.75618  -0.74843
 Alpha  occ. eigenvalues --   -0.74614  -0.72672  -0.72449  -0.71989  -0.71624
 Alpha  occ. eigenvalues --   -0.71446  -0.71198  -0.70594  -0.70226  -0.69725
 Alpha  occ. eigenvalues --   -0.69601  -0.67535  -0.67236  -0.66586  -0.65960
 Alpha  occ. eigenvalues --   -0.63721  -0.63584  -0.63382  -0.63194  -0.62293
 Alpha  occ. eigenvalues --   -0.61858  -0.61610  -0.60755  -0.60468  -0.60352
 Alpha  occ. eigenvalues --   -0.59994  -0.59433  -0.59421  -0.59236  -0.59001
 Alpha  occ. eigenvalues --   -0.58956  -0.57504  -0.56342  -0.54767  -0.54728
 Alpha  occ. eigenvalues --   -0.54470  -0.54365  -0.53900  -0.53750  -0.53479
 Alpha  occ. eigenvalues --   -0.53254  -0.52788  -0.52616  -0.52359  -0.51549
 Alpha  occ. eigenvalues --   -0.50897  -0.50867  -0.50728  -0.50383  -0.50034
 Alpha  occ. eigenvalues --   -0.49636  -0.49491  -0.48868  -0.48480  -0.48315
 Alpha  occ. eigenvalues --   -0.47971  -0.47923  -0.47745  -0.47655  -0.47627
 Alpha  occ. eigenvalues --   -0.47446  -0.47302  -0.47083  -0.46958  -0.46757
 Alpha  occ. eigenvalues --   -0.46215  -0.46195  -0.46119  -0.45941  -0.45927
 Alpha  occ. eigenvalues --   -0.45813  -0.45579  -0.45212  -0.45026  -0.44752
 Alpha  occ. eigenvalues --   -0.44742  -0.44600  -0.44560  -0.44366  -0.44015
 Alpha  occ. eigenvalues --   -0.43870  -0.43708  -0.43701  -0.43505  -0.43395
 Alpha  occ. eigenvalues --   -0.43251  -0.43067  -0.42968  -0.42925  -0.42696
 Alpha  occ. eigenvalues --   -0.42627  -0.42395  -0.42109  -0.42092  -0.41954
 Alpha  occ. eigenvalues --   -0.41582  -0.41539  -0.41489  -0.41189  -0.41089
 Alpha  occ. eigenvalues --   -0.40921  -0.40888  -0.40607  -0.40589  -0.40466
 Alpha  occ. eigenvalues --   -0.40438  -0.40260  -0.40055  -0.39933  -0.39637
 Alpha  occ. eigenvalues --   -0.39531  -0.39264  -0.39083  -0.38902  -0.38568
 Alpha  occ. eigenvalues --   -0.38451  -0.38381  -0.38305  -0.38270  -0.38000
 Alpha  occ. eigenvalues --   -0.37922  -0.37695  -0.37643  -0.37596  -0.37415
 Alpha  occ. eigenvalues --   -0.37413  -0.37029  -0.36852  -0.36837  -0.36673
 Alpha  occ. eigenvalues --   -0.36590  -0.36495  -0.36289  -0.36218  -0.36116
 Alpha  occ. eigenvalues --   -0.36002  -0.35814  -0.35681  -0.35507  -0.35187
 Alpha  occ. eigenvalues --   -0.35182  -0.34945  -0.34627  -0.34504  -0.33927
 Alpha  occ. eigenvalues --   -0.33667  -0.33190  -0.32857  -0.32817  -0.32426
 Alpha  occ. eigenvalues --   -0.32004  -0.31982  -0.31361  -0.31234  -0.30887
 Alpha  occ. eigenvalues --   -0.30461  -0.30343  -0.29474  -0.29443  -0.29241
 Alpha  occ. eigenvalues --   -0.29168  -0.28484  -0.27856  -0.27083  -0.26969
 Alpha  occ. eigenvalues --   -0.26393  -0.26115  -0.26015  -0.25957  -0.25667
 Alpha  occ. eigenvalues --   -0.25559  -0.25312  -0.25197  -0.21097  -0.20997
 Alpha  occ. eigenvalues --   -0.18920  -0.18777
 Alpha virt. eigenvalues --   -0.11364  -0.10994  -0.05730  -0.05035  -0.04455
 Alpha virt. eigenvalues --   -0.04346  -0.02378  -0.01936  -0.00504   0.00186
 Alpha virt. eigenvalues --    0.00857   0.00970   0.01190   0.01505   0.01669

 Mulliken charges:
               1
     1  Mg  12.000147
     2  C    5.980207
     3  C    6.003411
     4  C    6.027259
     5  C    5.996906
     6  N    6.993798
     7  C    6.029020
     8  C    5.990473
     9  C    6.005872
    10  C    5.974932
    11  C    6.002144
    12  C    5.997818
    13  C    5.999063
    14  H    1.004923
    15  N    7.003511
    16  C    5.960231
    17  C    5.980496
    18  C    5.986519
    19  C    5.967007
    20  C    6.002625
    21  C    5.984866
    22  O    7.970613
    23  C    6.007314
    24  N    7.007236
    25  C    5.963824
    26  C    6.012008
    27  C    5.991734
    28  C    6.027717
    29  C    5.999101
    30  C    5.991708
    31  C    5.998746
    32  N    6.997698
    33  C    6.030683
    34  C    6.034569
    35  C    5.999199
    36  C    6.029952
    37  C    5.997514
    38  C    6.017335
    39  O    8.029972
    40  C    5.994836
    41  C    6.005473
    42  O    8.004912
    43  O    8.001731
    44  C    5.998659
    45  H    0.990072
    46  H    0.995059
    47  H    1.011999
    48  H    0.999432
    49  H    0.998597
    50  H    0.988495
    51  H    1.003938
    52  H    0.999169
    53  H    1.008325
    54  H    0.992922
    55  H    1.003360
    56  H    0.995028
    57  H    0.982921
    58  H    0.982626
    59  H    0.983568
    60  H    0.992500
    61  H    0.985667
    62  H    0.992921
    63  H    1.000985
    64  H    1.001750
    65  H    1.003030
    66  H    0.990857
    67  H    1.000930
    68  H    0.998245
    69  H    1.013315
    70  H    0.999743
    71  H    1.006356
    72  H    1.000583
    73  H    1.017755
    74  H    1.021859
    75  H    1.014587
    76  H    1.009819
    77  H    0.999945
    78  H    1.004700
    79  H    1.005183
    80  Mg  11.999962
    81  C    6.000162
    82  C    5.999885
    83  C    5.999874
    84  C    6.000225
    85  N    7.000017
    86  C    5.999643
    87  C    6.000136
    88  C    5.999924
    89  C    6.000370
    90  C    5.999976
    91  C    6.000027
    92  C    6.000041
    93  H    0.999907
    94  N    6.999982
    95  C    6.000299
    96  C    6.000228
    97  C    6.000212
    98  C    6.000158
    99  C    5.999919
   100  C    6.000162
   101  O    8.000315
   102  C    5.999924
   103  N    7.000096
   104  C    6.000233
   105  C    5.999962
   106  C    6.000062
   107  C    5.999634
   108  C    5.999924
   109  C    6.000030
   110  C    6.000007
   111  N    6.999994
   112  C    5.999630
   113  C    5.999734
   114  C    5.999965
   115  C    5.999684
   116  C    6.000021
   117  C    5.999818
   118  O    7.999703
   119  C    5.999998
   120  C    5.999971
   121  O    7.999876
   122  O    8.000009
   123  C    6.000035
   124  H    1.000090
   125  H    1.000074
   126  H    0.999899
   127  H    0.999995
   128  H    0.999974
   129  H    1.000010
   130  H    1.000029
   131  H    1.000147
   132  H    0.999864
   133  H    1.000004
   134  H    1.000057
   135  H    0.999968
   136  H    1.000171
   137  H    1.000203
   138  H    1.000186
   139  H    1.000067
   140  H    1.000088
   141  H    1.000165
   142  H    0.999966
   143  H    0.999988
   144  H    1.000144
   145  H    1.000044
   146  H    0.999969
   147  H    0.999959
   148  H    0.999877
   149  H    0.999998
   150  H    0.999946
   151  H    1.000055
   152  H    0.999867
   153  H    0.999874
   154  H    0.999784
   155  H    0.999949
   156  H    0.999944
   157  H    0.999932
   158  H    0.999974
 Sum of Mulliken charges = 624.00000

 Dipole moment (field-independent basis, Debye):
    X=              9.5422    Y=              3.2690    Z=             -3.4838  Tot=             10.6713
 Quadrupole moment (field-independent basis, Debye-Ang):
   XX=           -494.7493   YY=             -1.8555   ZZ=              1.9039
   XY=            -91.6568   XZ=             94.8973   YZ=              3.2099

 Normal termination of Gaussian 16 at Fri Oct 15 10:36:05 2021.
