 Gaussian 16, Revision A.03,
 Gaussian 16:  ES64L-G16RevA.03 25-Dec-2016

 --------------------------------------------------------
 #p PBE1PBE/Def2SVP td=(nstates=5) density=(transition=1)
 --------------------------------------------------------

 --------------------------------
 TDDFT excited states in gaussian
 --------------------------------
 Symbolic Z-matrix:
 Charge =  0 Multiplicity = 1

                         Standard orientation:
 ---------------------------------------------------------------------
 Center     Atomic      Atomic             Coordinates (Angstroms)
 Number     Number       Type             X           Y           Z
 ---------------------------------------------------------------------
      1         12           0       11.758317   -0.022739    0.610490
      2          6           0        8.371443    0.162801   -0.389315
      3          6           0       12.491164    2.318519   -1.779180
      4          6           0       14.969432   -0.672667    1.094393
      5          6           0       10.905324   -2.736280    2.650234
      6          7           0       10.580275    0.991885   -1.023800
      7          6           0        9.187802    0.977411   -1.140204
      8          6           0        8.725588    2.116591   -2.081942
      9          6           0       10.077029    2.783060   -2.531236
     10          6           0       11.163109    2.032436   -1.711797
     11          6           0       10.296787    2.967363   -4.022626
     12          6           0        7.723704    3.125092   -1.498501
     13          6           0        6.426460    3.282411   -2.338438
     14          1           0        6.107557    4.692051   -2.784745
     15          7           0       13.485211    0.804339   -0.188257
     16          6           0       13.613584    1.729416   -1.182327
     17          6           0       15.008582    2.090694   -1.267415
     18          6           0       15.779482    1.100370   -0.520677
     19          6           0       14.712721    0.361603    0.137258
     20          6           0       15.554006    3.211041   -2.295939
     21          6           0       17.186342    0.689219   -0.603892
     22          8           0       17.744661   -0.138124    0.058706
     23          6           0       18.023525    1.391585   -1.668705
     24          7           0       12.784833   -1.661218    1.576507
     25          6           0       14.127954   -1.647529    1.681566
     26          6           0       14.600934   -2.676697    2.710849
     27          6           0       13.299792   -3.052858    3.437666
     28          6           0       12.246865   -2.430209    2.548273
     29          6           0       15.286736   -3.934972    2.005122
     30          6           0       13.299241   -2.341946    4.885468
     31          6           0       13.075029   -0.805085    4.881529
     32          7           0       10.010250   -1.063277    1.194930
     33          6           0        9.836257   -2.107821    2.020677
     34          6           0        8.432648   -2.418942    2.060862
     35          6           0        7.831410   -1.535037    1.184590
     36          6           0        8.831729   -0.747155    0.608578
     37          6           0        7.712786   -3.495421    2.850655
     38          6           0        6.513924   -1.225805    0.622535
     39          8           0        5.398656   -1.664128    0.654397
     40          6           0        6.792273   -0.060091   -0.362873
     41          6           0        6.319233   -0.536619   -1.686324
     42          8           0        6.717118   -1.570490   -2.161456
     43          8           0        5.338686    0.267117   -2.245307
     44          6           0        4.603567   -0.301002   -3.424538
     45          1           0       12.679364    3.204714   -2.389048
     46          1           0       16.008497   -0.850326    1.380776
     47          1           0       10.520530   -3.420024    3.409800
     48          1           0        8.308575    1.672736   -2.986168
     49          1           0       10.055865    3.826190   -2.215145
     50          1           0        9.610313    2.350858   -4.601062
     51          1           0       11.320006    2.770593   -4.343625
     52          1           0       10.011386    3.996622   -4.238586
     53          1           0        8.044046    4.161448   -1.391381
     54          1           0        7.436903    2.841571   -0.486103
     55          1           0        5.577603    2.796836   -1.857134
     56          1           0        6.574674    2.741135   -3.271998
     57          1           0       16.218271    3.874642   -1.742438
     58          1           0       14.805030    3.871107   -2.731853
     59          1           0       16.057749    2.885707   -3.206129
     60          1           0       17.996428    2.436309   -1.358114
     61          1           0       17.485671    1.219580   -2.600493
     62          1           0       19.072241    1.093906   -1.694081
     63          1           0       15.268132   -2.262016    3.467234
     64          1           0       13.011178   -4.098673    3.545220
     65          1           0       16.016599   -4.332523    2.710847
     66          1           0       15.830912   -3.778636    1.073094
     67          1           0       14.469198   -4.645385    1.883441
     68          1           0       14.201361   -2.552621    5.459500
     69          1           0       12.414540   -2.651952    5.441787
     70          1           0       13.244933   -0.304610    5.834229
     71          1           0       12.034812   -0.627737    4.607937
     72          1           0       13.717641   -0.382448    4.108488
     73          1           0        7.784305   -3.383175    3.932261
     74          1           0        8.229247   -4.410611    2.562360
     75          1           0        6.677227   -3.626535    2.536814
     76          1           0        6.132814    0.729997   -0.004188
     77          1           0        4.603367    0.584888   -4.059594
     78          1           0        3.577759   -0.586040   -3.191667
     79          1           0        5.002683   -1.163225   -3.958162
     80         12           0      -11.478004   -0.442903   -0.492538
     81          6           0      -10.667814    2.598699    1.084069
     82          6           0       -8.500581   -0.102670   -2.256908
     83          6           0      -11.900384   -3.508210   -1.724226
     84          6           0      -13.836099   -0.976933    1.996959
     85          7           0       -9.716765    1.043766   -0.407672
     86          6           0       -9.628578    2.280651    0.200792
     87          6           0       -8.560581    3.201377   -0.351188
     88          6           0       -7.879733    2.340166   -1.441598
     89          6           0       -8.701277    1.010539   -1.387871
     90          6           0       -7.870749    2.997307   -2.881265
     91          6           0       -7.487610    3.751945    0.690805
     92          6           0       -7.112630    2.854570    1.881482
     93          1           0       -5.743067    2.113889    1.845910
     94          7           0      -10.380698   -1.604704   -1.786306
     95          6           0       -9.231475   -1.274205   -2.446447
     96          6           0       -8.868126   -2.344256   -3.386101
     97          6           0       -9.862870   -3.360094   -3.247286
     98          6           0      -10.780275   -2.832044   -2.191307
     99          6           0       -7.656770   -2.282082   -4.308879
    100          6           0       -9.705434   -4.702526   -4.054263
    101          8           0       -8.708334   -4.839287   -4.749345
    102          6           0      -10.769774   -5.866793   -3.884833
    103          7           0      -12.587837   -2.025287    0.135723
    104          6           0      -12.733428   -3.173776   -0.639015
    105          6           0      -13.900488   -4.136329   -0.027547
    106          6           0      -14.343460   -3.269055    1.271621
    107          6           0      -13.540316   -2.018848    1.108904
    108          6           0      -15.054468   -4.397670   -1.039766
    109          6           0      -14.070710   -3.961732    2.675205
    110          6           0      -15.218813   -4.061749    3.691503
    111          7           0      -12.246895    0.630033    1.155709
    112          6           0      -13.189965    0.313451    2.099661
    113          6           0      -13.282950    1.430632    3.063097
    114          6           0      -12.360032    2.403796    2.594481
    115          6           0      -11.734757    1.819450    1.457726
    116          6           0      -14.148593    1.518229    4.289400
    117          6           0      -11.779738    3.715762    2.937759
    118          8           0      -12.070241    4.568596    3.789313
    119          6           0      -10.780595    3.959479    1.816546
    120          6           0      -11.127257    5.070865    0.996271
    121          8           0      -12.004692    4.989064    0.098094
    122          8           0      -10.349177    6.204108    1.305628
    123          6           0      -10.467145    7.378575    0.447443
    124          1           0       -7.675340    0.028512   -2.959457
    125          1           0      -12.162098   -4.447400   -2.215185
    126          1           0      -14.635838   -1.195816    2.706939
    127          1           0       -9.146893    4.027179   -0.752382
    128          1           0       -6.907290    2.068830   -1.032299
    129          1           0       -6.850005    3.270682   -3.148419
    130          1           0       -8.509329    3.878283   -2.811143
    131          1           0       -8.239414    2.303972   -3.637954
    132          1           0       -8.012127    4.620670    1.090693
    133          1           0       -6.604637    4.089436    0.147589
    134          1           0       -7.880808    2.098998    2.049471
    135          1           0       -7.156050    3.459463    2.786234
    136          1           0       -6.807047   -2.885118   -3.988774
    137          1           0       -7.427035   -1.252998   -4.585401
    138          1           0       -7.910858   -2.647108   -5.303861
    139          1           0      -11.754604   -5.407764   -3.974715
    140          1           0      -10.617798   -6.304174   -2.898428
    141          1           0      -10.571719   -6.742076   -4.503503
    142          1           0      -13.434983   -5.110665    0.118013
    143          1           0      -15.395647   -3.016437    1.138584
    144          1           0      -15.836541   -3.666176   -0.837420
    145          1           0      -15.402946   -5.430452   -1.027125
    146          1           0      -14.759678   -4.305447   -2.084956
    147          1           0      -13.209550   -3.452706    3.109287
    148          1           0      -13.803109   -4.971804    2.364996
    149          1           0      -14.854619   -4.222496    4.706579
    150          1           0      -15.770901   -4.928705    3.329317
    151          1           0      -15.741684   -3.109984    3.595113
    152          1           0      -14.308792    0.478345    4.572861
    153          1           0      -15.080384    1.913964    3.885387
    154          1           0      -13.788585    2.192222    5.067278
    155          1           0       -9.867985    4.146885    2.381910
    156          1           0      -11.427635    7.893724    0.431568
    157          1           0      -10.217323    7.114361   -0.580537
    158          1           0       -9.628825    8.027673    0.700937
 ---------------------------------------------------------------------

 SCF Done:  E(RPBE1PBE) =  -4067.37617339     A.U. after   16 cycles

 Excitation energies and oscillator strengths:

 Excited State   1:      Singlet-A      1.7027 eV  728.18 nm  f=0.0000  <S**2>=0.000
     312 -> 313        0.70709
 This state for optimization and/or second-order correction.
 Total Energy, E(TD-HF/TD-DFT) =  -4067.31360199
 Copying the excited state density for this state as the 1-particle RhoCI density.

 Excited State   2:      Singlet-A      1.8669 eV  664.12 nm  f=0.5005  <S**2>=0.000
     309 -> 316        0.14342
     311 -> 313        0.59360
     312 -> 314       -0.35965

 Excited State   3:      Singlet-A      1.8707 eV  662.79 nm  f=0.2589  <S**2>=0.000
     310 -> 315       -0.14997
     311 -> 313        0.36075
     312 -> 314        0.59133

 Excited State   4:      Singlet-A      2.1560 eV  575.05 nm  f=0.0000  <S**2>=0.000
     311 -> 314        0.70710

 Excited State   5:      Singlet-A      2.2024 eV  562.95 nm  f=0.1283  <S**2>=0.000
     309 -> 313        0.66410
     311 -> 316       -0.22448

 The electronic state is 1-A.
 Alpha  occ. eigenvalues --  -46.92939 -46.92298 -19.26375 -19.25783 -19.20393
 Alpha  occ. eigenvalues --  -19.19784 -19.19735 -19.19469 -19.19420 -19.18642
 Alpha  occ. eigenvalues --  -14.42005 -14.41701 -14.41670 -14.41390 -14.39473
 Alpha  occ. eigenvalues --  -14.39444 -14.38965 -14.38873 -10.36932 -10.35787
 Alpha  occ. eigenvalues --  -10.33583 -10.32488 -10.32278 -10.31504 -10.29505
 Alpha  occ. eigenvalues --  -10.29283 -10.29242 -10.29038 -10.29025 -10.28543
 Alpha  occ. eigenvalues --  -10.28519 -10.28468 -10.28405 -10.28385 -10.28384
 Alpha  occ. eigenvalues --  -10.27974 -10.27913 -10.27715 -10.27429 -10.27392
 Alpha  occ. eigenvalues --  -10.27101 -10.27007 -10.26810 -10.26538 -10.26414
 Alpha  occ. eigenvalues --  -10.26189 -10.26164 -10.26063 -10.26045 -10.25877
 Alpha  occ. eigenvalues --  -10.25860 -10.25854 -10.25851 -10.25834 -10.25744
 Alpha  occ. eigenvalues --  -10.25584 -10.25427 -10.25388 -10.25347 -10.25327
 Alpha  occ. eigenvalues --  -10.25118 -10.24957 -10.24895 -10.24764 -10.24716
 Alpha  occ. eigenvalues --  -10.24601 -10.24428 -10.24375 -10.24355 -10.24225
 Alpha  occ. eigenvalues --  -10.24213 -10.24213 -10.24209 -10.24134 -10.24016
 Alpha  occ. eigenvalues --  -10.23947 -10.23563 -10.23493 -10.23486 -10.23453
 Alpha  occ. eigenvalues --  -10.23345 -10.23040 -10.22974 -10.22781 -10.22711
 Alpha  occ. eigenvalues --  -10.22371  -3.14927  -3.14498  -1.87749  -1.87314
 Alpha  occ. eigenvalues --   -1.87296  -1.87142  -1.86890  -1.86725  -1.10409
 Alpha  occ. eigenvalues --   -1.09641  -1.06404  -1.05851  -1.05054  -1.03771
 Alpha  occ. eigenvalues --   -1.02432  -1.01736  -0.99823  -0.98973  -0.98807
 Alpha  occ. eigenvalues --   -0.98543  -0.98126  -0.97169  -0.96621  -0.96436
 Alpha  occ. eigenvalues --   -0.87474  -0.86701  -0.83435  -0.83189  -0.83091
 Alpha  occ. eigenvalues --   -0.83037  -0.82586  -0.82287  -0.82089  -0.81079
 Alpha  occ. eigenvalues --   -0.80863  -0.80617  -0.80400  -0.79756  -0.78777
 Alpha  occ. eigenvalues --   -0.78725  -0.78124  -0.77767  -0.77007  -0.76772
 Alpha  occ. eigenvalues --   -0.75809  -0.75496  -0.75196  -0.75181  -0.74433
 Alpha  occ. eigenvalues --   -0.74369  -0.72680  -0.72478  -0.71709  -0.71453
 Alpha  occ. eigenvalues --   -0.71054  -0.70955  -0.70792  -0.70462  -0.69597
 Alpha  occ. eigenvalues --   -0.69223  -0.67558  -0.66761  -0.66239  -0.66139
 Alpha  occ. eigenvalues --   -0.63698  -0.63640  -0.63594  -0.63286  -0.62786
 Alpha  occ. eigenvalues --   -0.62523  -0.61651  -0.61181  -0.60152  -0.59920
 Alpha  occ. eigenvalues --   -0.59846  -0.59656  -0.59628  -0.59066  -0.59061
 Alpha  occ. eigenvalues --   -0.58686  -0.56990  -0.56849  -0.55025  -0.54735
 Alpha  occ. eigenvalues --   -0.54278  -0.54092  -0.53862  -0.53566  -0.53366
 Alpha  occ. eigenvalues --   -0.53175  -0.52623  -0.52294  -0.52164  -0.51721
 Alpha  occ. eigenvalues --   -0.50623  -0.50613  -0.50028  -0.49906  -0.49712
 Alpha  occ. eigenvalues --   -0.49449  -0.49230  -0.48937  -0.48750  -0.48674
 Alpha  occ. eigenvalues --   -0.48349  -0.48030  -0.47570  -0.47560  -0.47134
 Alpha  occ. eigenvalues --   -0.47097  -0.46940  -0.46901  -0.46709  -0.46622
 Alpha  occ. eigenvalues --   -0.46552  -0.46132  -0.46112  -0.45754  -0.45725
 Alpha  occ. eigenvalues --   -0.45432  -0.45348  -0.45123  -0.44894  -0.44653
 Alpha  occ. eigenvalues --   -0.44503  -0.44399  -0.44074  -0.44041  -0.43926
 Alpha  occ. eigenvalues --   -0.43899  -0.43883  -0.43789  -0.43659  -0.43491
 Alpha  occ. eigenvalues --   -0.43179  -0.43077  -0.42941  -0.42881  -0.42791
 Alpha  occ. eigenvalues --   -0.42569  -0.42268  -0.42051  -0.42045  -0.41734
 Alpha  occ. eigenvalues --   -0.41667  -0.41303  -0.41110  -0.41087  -0.40937
 Alpha  occ. eigenvalues --   -0.40904  -0.40889  -0.40782  -0.40614  -0.40510
 Alpha  occ. eigenvalues --   -0.40317  -0.40093  -0.40027  -0.39821  -0.39707
 Alpha  occ. eigenvalues --   -0.39481  -0.39388  -0.39325  -0.39253  -0.38924
 Alpha  occ. eigenvalues --   -0.38878  -0.38652  -0.38507  -0.38167  -0.38108
 Alpha  occ. eigenvalues --   -0.37987  -0.37815  -0.37770  -0.37726  -0.37719
 Alpha  occ. eigenvalues --   -0.37403  -0.37346  -0.37209  -0.37149  -0.37022
 Alpha  occ. eigenvalues --   -0.36991  -0.36873  -0.36857  -0.36458  -0.36328
 Alpha  occ. eigenvalues --   -0.36305  -0.35918  -0.35748  -0.35481  -0.35246
 Alpha  occ. eigenvalues --   -0.35190  -0.34743  -0.34688  -0.34605  -0.33998
 Alpha  occ. eigenvalues --   -0.33795  -0.33322  -0.33062  -0.32839  -0.32551
 Alpha  occ. eigenvalues --   -0.32465  -0.32111  -0.32037  -0.32005  -0.31560
 Alpha  occ. eigenvalues --   -0.31371  -0.31209  -0.29935  -0.29607  -0.29125
 Alpha  occ. eigenvalues --   -0.29034  -0.28809  -0.28755  -0.27247  -0.26848
 Alpha  occ. eigenvalues --   -0.26156  -0.26151  -0.26003  -0.25935  -0.25757
 Alpha  occ. eigenvalues --   -0.25562  -0.25278  -0.25122  -0.21138  -0.20988
 Alpha  occ. eigenvalues --   -0.19199  -0.18435
 Alpha virt. eigenvalues --   -0.11595  -0.10694  -0.05225  -0.05007  -0.03928
 Alpha virt. eigenvalues --   -0.03695  -0.02342  -0.01939  -0.01134  -0.01129
 Alpha virt. eigenvalues --   -0.00987   0.00801   0.00868   0.01146   0.01188

 Mulliken charges:
               1
     1  Mg  12.000000
     2  C    6.000000
     3  C    6.000000
     4  C    6.000000
     5  C    6.000000
     6  N    7.000000
     7  C    6.000000
     8  C    6.000000
     9  C    6.000000
    10  C    6.000000
    11  C    6.000000
    12  C    6.000000
    13  C    6.000000
    14  H    1.000000
    15  N    7.000000
    16  C    6.000000
    17  C    6.000000
    18  C    6.000000
    19  C    6.000000
    20  C    6.000000
    21  C    6.000000
    22  O    8.000000
    23  C    6.000000
    24  N    7.000000
    25  C    6.000000
    26  C    6.000000
    27  C    6.000000
    28  C    6.000000
    29  C    6.000000
    30  C    6.000000
    31  C    6.000000
    32  N    7.000000
    33  C    6.000000
    34  C    6.000000
    35  C    6.000000
    36  C    6.000000
    37  C    6.000000
    38  C    6.000000
    39  O    8.000000
    40  C    6.000000
    41  C    6.000000
    42  O    8.000000
    43  O    8.000000
    44  C    6.000000
    45  H    1.000000
    46  H    1.000000
    47  H    1.000000
    48  H    1.000000
    49  H    1.000000
    50  H    1.000000
    51  H    1.000000
    52  H    1.000000
    53  H    1.000000
    54  H    1.000000
    55  H    1.000000
    56  H    1.000000
    57  H    1.000000
    58  H    1.000000
    59  H    1.000000
    60  H    1.000000
    61  H    1.000000
    62  H    1.000000
    63  H    1.000000
    64  H    1.000000
    65  H    1.000000
    66  H    1.000000
    67  H    1.000000
    68  H    1.000000
    69  H    1.000000
    70  H    1.000000
    71  H    1.000000
    72  H    1.000000
    73  H    1.000000
    74  H    1.000000
    75  H    1.000000
    76  H    1.000000
    77  H    1.000000
    78  H    1.000000
    79  H    1.000000
    80  Mg  12.000000
    81  C    6.000000
    82  C    6.000000
    83  C    6.000000
    84  C    6.000000
    85  N    7.000000
    86  C    6.000000
    87  C    6.000000
    88  C    6.000000
    89  C    6.000000
    90  C    6.000000
    91  C    6.000000
    92  C    6.000000
    93  H    1.000000
    94  N    7.000000
    95  C    6.000000
    96  C    6.000000
    97  C    6.000000
    98  C    6.000000
    99  C    6.000000
   100  C    6.000000
   101  O    8.000000
   102  C    6.000000
   103  N    7.000000
   104  C    6.000000
   105  C    6.000000
   106  C    6.000000
   107  C    6.000000
   108  C    6.000000
   109  C    6.000000
   110  C    6.000000
   111  N    7.000000
   112  C    6.000000
   113  C    6.000000
   114  C    6.000000
   115  C    6.000000
   116  C    6.000000
   117  C    6.000000
   118  O    8.000000
   119  C    6.000000
   120  C    6.000000
   121  O    8.000000
   122  O    8.000000
   123  C    6.000000
   124  H    1.000000
   125  H    1.000000
   126  H    1.000000
   127  H    1.000000
   128  H    1.000000
   129  H    1.000000
   130  H    1.000000
   131  H    1.000000
   132  H    1.000000
   133  H    1.000000
   134  H    1.000000
   135  H    1.000000
   136  H    1.000000
   137  H    1.000000
   138  H    1.000000
   139  H    1.000000
   140  H    1.000000
   141  H    1.000000
   142  H    1.000000
   143  H    1.000000
   144  H    1.000000
   145  H    1.000000
   146  H    1.000000
   147  H    1.000000
   148  H    1.000000
   149  H    1.000000
   150  H    1.000000
   151  H    1.000000
   152  H    1.000000
   153  H    1.000000
   154  H    1.000000
   155  H    1.000000
   156  H    1.000000
   157  H    1.000000
   158  H    1.000000
 Sum of Mulliken charges = 624.00000

 Dipole moment (field-independent basis, Debye):
    X=              0.0000    Y=              0.0000    Z=              0.0000  Tot=              0.0000
 Quadrupole moment (field-independent basis, Debye-Ang):
   XX=             -0.0000   YY=              0.0000   ZZ=              0.0000
   XY=             -0.0000   XZ=             -0.0000   YZ=             -0.0000

 Normal termination of Gaussian 16 at Thu Oct 14 21:06:36 2021.
