 Gaussian 16, Revision A.03,
 Gaussian 16:  ES64L-G16RevA.03 25-Dec-2016

 --------------------------------------------------------
 #p PBE1PBE/Def2SVP td=(nstates=5) density=(transition=1)
 --------------------------------------------------------

 --------------------------------
 TDDFT excited states in gaussian
 --------------------------------
 Symbolic Z-matrix:
 Charge =  0 Multiplicity = 1

                         Standard orientation:
 ---------------------------------------------------------------------
 Center     Atomic      Atomic             Coordinates (Angstroms)
 Number     Number       Type             X           Y           Z
 ---------------------------------------------------------------------
      1         12           0      -14.465582   -0.022308    0.427250
      2          6           0      -12.369677    1.304739   -1.956024
      3          6           0      -16.476223   -1.420340   -1.966540
      4          6           0      -16.470747   -1.524508    2.875539
      5          6           0      -12.105058    0.587666    2.873077
      6          7           0      -14.233818   -0.187692   -1.722219
      7          6           0      -13.411626    0.573630   -2.557370
      8          6           0      -13.668507    0.259416   -4.033363
      9          6           0      -15.049033   -0.433740   -3.908067
     10          6           0      -15.265207   -0.799629   -2.425326
     11          6           0      -16.192246    0.368925   -4.566764
     12          6           0      -12.570129   -0.636541   -4.639321
     13          6           0      -12.078799   -0.274687   -6.083412
     14          1           0      -11.631057   -1.406522   -6.923294
     15          7           0      -16.216895   -1.220459    0.433137
     16          6           0      -16.941861   -1.611767   -0.639767
     17          6           0      -18.213951   -2.164925   -0.283096
     18          6           0      -18.307063   -2.086703    1.116199
     19          6           0      -16.950005   -1.556865    1.555056
     20          6           0      -19.290165   -2.577276   -1.289454
     21          6           0      -19.521359   -2.525840    2.012242
     22          8           0      -20.502153   -3.084319    1.457403
     23          6           0      -19.621092   -2.230094    3.570515
     24          7           0      -14.174294   -0.679601    2.527228
     25          6           0      -15.187045   -1.125545    3.309646
     26          6           0      -14.841508   -1.122031    4.776662
     27          6           0      -13.430087   -0.496728    4.802533
     28          6           0      -13.221536   -0.132075    3.330487
     29          6           0      -15.897409   -0.422348    5.695333
     30          6           0      -12.328988   -1.446256    5.476808
     31          6           0      -11.895810   -1.023574    6.885362
     32          7           0      -12.637234    0.826209    0.503771
     33          6           0      -11.751906    1.060282    1.578929
     34          6           0      -10.668545    1.944797    1.130038
     35          6           0      -10.935899    2.109688   -0.221878
     36          6           0      -12.048704    1.314536   -0.541697
     37          6           0       -9.525302    2.520983    1.886110
     38          6           0      -10.440647    2.751328   -1.448055
     39          8           0       -9.600587    3.647639   -1.631294
     40          6           0      -11.385074    2.287583   -2.628517
     41          6           0      -12.096851    3.472202   -3.268014
     42          8           0      -12.657659    4.412987   -2.697221
     43          8           0      -11.902301    3.276168   -4.603007
     44          6           0      -12.323601    4.351746   -5.484924
     45          1           0      -17.128443   -1.866007   -2.720372
     46          1           0      -17.044695   -1.876429    3.735365
     47          1           0      -11.323171    0.820720    3.598647
     48          1           0      -13.690295    1.187409   -4.605692
     49          1           0      -14.920235   -1.349675   -4.484678
     50          1           0      -15.957133    1.112329   -5.328424
     51          1           0      -16.642150    0.948021   -3.760471
     52          1           0      -16.939019   -0.278589   -5.025683
     53          1           0      -12.820691   -1.696402   -4.603602
     54          1           0      -11.758751   -0.613246   -3.911443
     55          1           0      -11.258845    0.439538   -6.008685
     56          1           0      -12.914745    0.161946   -6.631682
     57          1           0      -20.173789   -1.996732   -1.025320
     58          1           0      -19.341885   -3.664586   -1.347172
     59          1           0      -18.938156   -2.175404   -2.239512
     60          1           0      -19.085836   -3.039954    4.064836
     61          1           0      -20.680826   -2.278737    3.819826
     62          1           0      -19.335725   -1.185844    3.700675
     63          1           0      -14.790530   -2.158411    5.110703
     64          1           0      -13.347807    0.496496    5.243316
     65          1           0      -15.423687    0.245702    6.414111
     66          1           0      -16.503162   -1.134221    6.255752
     67          1           0      -16.624715    0.093963    5.070155
     68          1           0      -11.393672   -1.461891    4.917457
     69          1           0      -12.668845   -2.481723    5.459836
     70          1           0      -11.758285   -1.907907    7.507821
     71          1           0      -12.662135   -0.389574    7.330815
     72          1           0      -10.969125   -0.450498    6.909894
     73          1           0       -9.664111    2.259385    2.935128
     74          1           0       -9.369744    3.558972    1.591366
     75          1           0       -8.651170    1.939252    1.591603
     76          1           0      -10.851548    1.714006   -3.386915
     77          1           0      -13.303181    4.765199   -5.241622
     78          1           0      -12.335493    4.140611   -6.554197
     79          1           0      -11.611040    5.174816   -5.425172
     80         12           0       14.317128   -0.786618   -0.456066
     81          6           0       14.366409    2.596880    0.355551
     82          6           0       10.961218   -0.687317   -0.737910
     83          6           0       14.339447   -4.150531   -0.786323
     84          6           0       17.672828   -0.910409    0.327353
     85          7           0       12.828195    0.832617   -0.186778
     86          6           0       13.106704    2.170052   -0.063269
     87          6           0       11.859468    2.965965   -0.138329
     88          6           0       10.727126    1.974279   -0.429412
     89          6           0       11.501428    0.587459   -0.485329
     90          6           0        9.503202    1.968002    0.473296
     91          6           0       11.986079    4.172223   -1.231495
     92          6           0       11.857999    5.625071   -0.716629
     93          1           0       11.108865    6.665117   -1.512871
     94          7           0       12.877606   -2.202173   -0.843645
     95          6           0       11.511775   -1.972120   -0.913088
     96          6           0       10.833131   -3.199176   -1.121931
     97          6           0       11.800301   -4.240507   -1.136627
     98          6           0       13.075844   -3.544916   -0.937198
     99          6           0        9.280192   -3.157505   -1.403152
    100          6           0       11.489053   -5.731720   -1.251860
    101          8           0       12.323991   -6.646620   -1.186678
    102          6           0       10.119448   -6.165312   -1.541179
    103          7           0       15.721066   -2.401339   -0.030170
    104          6           0       15.546029   -3.667036   -0.349263
    105          6           0       16.778533   -4.512637    0.043185
    106          6           0       17.865630   -3.376494   -0.105903
    107          6           0       17.032150   -2.108513    0.050264
    108          6           0       16.872783   -5.185870    1.462390
    109          6           0       18.721512   -3.361450   -1.461877
    110          6           0       17.999680   -3.216946   -2.738649
    111          7           0       15.839492    0.541926    0.273927
    112          6           0       17.208672    0.343240    0.539006
    113          6           0       17.788703    1.572523    0.977414
    114          6           0       16.735719    2.465398    0.992533
    115          6           0       15.583938    1.807817    0.448847
    116          6           0       19.104798    1.744289    1.561436
    117          6           0       16.426938    3.812203    1.111652
    118          8           0       17.110304    4.786052    1.444319
    119          6           0       14.868544    3.984060    0.810255
    120          6           0       14.245811    4.321203    2.124635
    121          8           0       14.213673    3.725114    3.180752
    122          8           0       13.697048    5.524255    1.946896
    123          6           0       12.966087    6.094239    3.125754
    124          1           0        9.926096   -0.483362   -1.019559
    125          1           0       14.319060   -5.208482   -1.053484
    126          1           0       18.748797   -0.951829    0.507933
    127          1           0       11.746488    3.397173    0.855580
    128          1           0       10.364622    2.141468   -1.443439
    129          1           0        9.848360    1.172732    1.132937
    130          1           0        8.547720    1.803279   -0.025037
    131          1           0        9.287732    2.834179    1.098332
    132          1           0       11.256196    4.002943   -2.022596
    133          1           0       12.968871    4.237270   -1.699067
    134          1           0       12.872376    6.024518   -0.696122
    135          1           0       11.536571    5.663892    0.323328
    136          1           0        8.788053   -3.845613   -0.716095
    137          1           0        9.318135   -3.609592   -2.394327
    138          1           0        8.749438   -2.218517   -1.245667
    139          1           0        9.424685   -5.796900   -0.787682
    140          1           0       10.096706   -7.229692   -1.308545
    141          1           0        9.785521   -6.001673   -2.566106
    142          1           0       17.012266   -5.177746   -0.788259
    143          1           0       18.555004   -3.576705    0.713982
    144          1           0       16.504886   -4.587982    2.295360
    145          1           0       17.938716   -5.401422    1.544362
    146          1           0       16.307059   -6.117659    1.485386
    147          1           0       19.307926   -4.268314   -1.611609
    148          1           0       19.310363   -2.448053   -1.545411
    149          1           0       17.827870   -2.143402   -2.802845
    150          1           0       17.027076   -3.695030   -2.859087
    151          1           0       18.516785   -3.480240   -3.660766
    152          1           0       18.960144    1.456559    2.603458
    153          1           0       19.505886    2.756751    1.525139
    154          1           0       19.884963    1.183547    1.045480
    155          1           0       14.657870    4.695395    0.011609
    156          1           0       11.912964    5.993243    2.862443
    157          1           0       13.277637    7.126002    3.286972
    158          1           0       13.072942    5.577644    4.080010
 ---------------------------------------------------------------------

 SCF Done:  E(RPBE1PBE) =  -4067.37116304     A.U. after   17 cycles

 Excitation energies and oscillator strengths:

 Excited State   1:      Singlet-A      1.8385 eV  674.36 nm  f=0.4009  <S**2>=0.000
     309 -> 315        0.16768
     312 -> 314        0.69118
     312 <- 314       -0.10440
 This state for optimization and/or second-order correction.
 Total Energy, E(TD-HF/TD-DFT) =  -4067.30359791
 Copying the excited state density for this state as the 1-particle RhoCI density.

 Excited State   2:      Singlet-A      1.8587 eV  667.03 nm  f=0.3052  <S**2>=0.000
     310 -> 316       -0.16349
     311 -> 313        0.69100
     311 <- 313       -0.10742

 Excited State   3:      Singlet-A      1.8792 eV  659.77 nm  f=0.0000  <S**2>=0.000
     312 -> 313        0.70710

 Excited State   4:      Singlet-A      2.0169 eV  614.72 nm  f=0.0000  <S**2>=0.000
     311 -> 314        0.70710

 Excited State   5:      Singlet-A      2.1769 eV  569.54 nm  f=0.1428  <S**2>=0.000
     310 -> 313        0.66025
     311 -> 316        0.23463

 The electronic state is 1-A.
 Alpha  occ. eigenvalues --  -46.92716 -46.92644 -19.27150 -19.25664 -19.20650
 Alpha  occ. eigenvalues --  -19.19755 -19.19285 -19.18985 -19.18891 -19.18454
 Alpha  occ. eigenvalues --  -14.42064 -14.41704 -14.41620 -14.41206 -14.39784
 Alpha  occ. eigenvalues --  -14.39367 -14.38954 -14.38597 -10.37122 -10.35587
 Alpha  occ. eigenvalues --  -10.33754 -10.32199 -10.32190 -10.31261 -10.29787
 Alpha  occ. eigenvalues --  -10.29377 -10.29192 -10.29080 -10.29074 -10.28910
 Alpha  occ. eigenvalues --  -10.28893 -10.28792 -10.28540 -10.28353 -10.27997
 Alpha  occ. eigenvalues --  -10.27870 -10.27820 -10.27785 -10.27498 -10.26782
 Alpha  occ. eigenvalues --  -10.26608 -10.26444 -10.26425 -10.26419 -10.26346
 Alpha  occ. eigenvalues --  -10.26326 -10.26035 -10.26015 -10.25992 -10.25926
 Alpha  occ. eigenvalues --  -10.25872 -10.25821 -10.25796 -10.25794 -10.25776
 Alpha  occ. eigenvalues --  -10.25774 -10.25661 -10.25616 -10.25520 -10.25516
 Alpha  occ. eigenvalues --  -10.25330 -10.25317 -10.25249 -10.25103 -10.25000
 Alpha  occ. eigenvalues --  -10.24891 -10.24875 -10.24775 -10.24698 -10.24669
 Alpha  occ. eigenvalues --  -10.24290 -10.24243 -10.24002 -10.23965 -10.23958
 Alpha  occ. eigenvalues --  -10.23716 -10.23665 -10.23582 -10.23521 -10.23390
 Alpha  occ. eigenvalues --  -10.23360 -10.23297 -10.22872 -10.22678 -10.22324
 Alpha  occ. eigenvalues --  -10.22111  -3.14755  -3.14710  -1.87561  -1.87553
 Alpha  occ. eigenvalues --   -1.87116  -1.87062  -1.87008  -1.86949  -1.11759
 Alpha  occ. eigenvalues --   -1.11758  -1.03843  -1.03330  -1.03280  -1.03190
 Alpha  occ. eigenvalues --   -1.02744  -1.02151  -1.00019  -0.99491  -0.98912
 Alpha  occ. eigenvalues --   -0.98800  -0.98082  -0.98042  -0.97299  -0.96809
 Alpha  occ. eigenvalues --   -0.86541  -0.85945  -0.83506  -0.83238  -0.83165
 Alpha  occ. eigenvalues --   -0.83039  -0.83016  -0.82679  -0.82253  -0.81927
 Alpha  occ. eigenvalues --   -0.81842  -0.81319  -0.81144  -0.80645  -0.78924
 Alpha  occ. eigenvalues --   -0.78643  -0.78529  -0.78285  -0.77348  -0.76857
 Alpha  occ. eigenvalues --   -0.76227  -0.75857  -0.75821  -0.75380  -0.75067
 Alpha  occ. eigenvalues --   -0.74591  -0.73066  -0.72397  -0.71956  -0.71792
 Alpha  occ. eigenvalues --   -0.71695  -0.71049  -0.70311  -0.70278  -0.69683
 Alpha  occ. eigenvalues --   -0.69681  -0.67907  -0.67274  -0.66215  -0.66126
 Alpha  occ. eigenvalues --   -0.63763  -0.63605  -0.63463  -0.63438  -0.62415
 Alpha  occ. eigenvalues --   -0.62147  -0.61637  -0.61555  -0.60636  -0.60254
 Alpha  occ. eigenvalues --   -0.59894  -0.59741  -0.59499  -0.59315  -0.59197
 Alpha  occ. eigenvalues --   -0.58474  -0.57406  -0.56603  -0.54997  -0.54562
 Alpha  occ. eigenvalues --   -0.54473  -0.54254  -0.53866  -0.53617  -0.53266
 Alpha  occ. eigenvalues --   -0.53241  -0.52809  -0.52415  -0.52360  -0.51839
 Alpha  occ. eigenvalues --   -0.51022  -0.50571  -0.50491  -0.50236  -0.50083
 Alpha  occ. eigenvalues --   -0.49879  -0.49647  -0.49599  -0.49334  -0.49179
 Alpha  occ. eigenvalues --   -0.48474  -0.48019  -0.47916  -0.47892  -0.47803
 Alpha  occ. eigenvalues --   -0.47435  -0.47345  -0.47267  -0.47033  -0.46718
 Alpha  occ. eigenvalues --   -0.46666  -0.46472  -0.46212  -0.45972  -0.45834
 Alpha  occ. eigenvalues --   -0.45813  -0.45664  -0.45626  -0.45533  -0.44974
 Alpha  occ. eigenvalues --   -0.44650  -0.44398  -0.44301  -0.44179  -0.44106
 Alpha  occ. eigenvalues --   -0.44040  -0.43818  -0.43745  -0.43579  -0.43273
 Alpha  occ. eigenvalues --   -0.43139  -0.42965  -0.42924  -0.42830  -0.42707
 Alpha  occ. eigenvalues --   -0.42577  -0.42306  -0.42177  -0.42057  -0.41964
 Alpha  occ. eigenvalues --   -0.41758  -0.41574  -0.41517  -0.41379  -0.41367
 Alpha  occ. eigenvalues --   -0.41224  -0.40966  -0.40761  -0.40738  -0.40506
 Alpha  occ. eigenvalues --   -0.40455  -0.40141  -0.40061  -0.39601  -0.39390
 Alpha  occ. eigenvalues --   -0.39262  -0.39122  -0.38993  -0.38836  -0.38811
 Alpha  occ. eigenvalues --   -0.38749  -0.38640  -0.38522  -0.38362  -0.38244
 Alpha  occ. eigenvalues --   -0.38163  -0.38027  -0.37782  -0.37741  -0.37389
 Alpha  occ. eigenvalues --   -0.37278  -0.37198  -0.37057  -0.37012  -0.36937
 Alpha  occ. eigenvalues --   -0.36825  -0.36694  -0.36574  -0.36418  -0.36147
 Alpha  occ. eigenvalues --   -0.35930  -0.35819  -0.35778  -0.35610  -0.35566
 Alpha  occ. eigenvalues --   -0.35080  -0.34737  -0.34360  -0.34308  -0.33860
 Alpha  occ. eigenvalues --   -0.33727  -0.33439  -0.33181  -0.33042  -0.33025
 Alpha  occ. eigenvalues --   -0.32671  -0.32451  -0.32020  -0.31991  -0.31537
 Alpha  occ. eigenvalues --   -0.31353  -0.31157  -0.30119  -0.29826  -0.29664
 Alpha  occ. eigenvalues --   -0.29182  -0.28966  -0.28737  -0.27093  -0.27023
 Alpha  occ. eigenvalues --   -0.26322  -0.26159  -0.25841  -0.25782  -0.25714
 Alpha  occ. eigenvalues --   -0.25675  -0.25475  -0.25221  -0.21153  -0.20954
 Alpha  occ. eigenvalues --   -0.19061  -0.18796
 Alpha virt. eigenvalues --   -0.11422  -0.11191  -0.05600  -0.05148  -0.04061
 Alpha virt. eigenvalues --   -0.03902  -0.02564  -0.02112  -0.01184  -0.00584
 Alpha virt. eigenvalues --    0.00162   0.00624   0.01053   0.01947   0.02393

 Mulliken charges:
               1
     1  Mg  12.001019
     2  C    5.973306
     3  C    6.009278
     4  C    6.024211
     5  C    6.000688
     6  N    6.984274
     7  C    6.034239
     8  C    5.992641
     9  C    6.008359
    10  C    5.969811
    11  C    6.002935
    12  C    6.000360
    13  C    5.998679
    14  H    1.003759
    15  N    7.004563
    16  C    5.967210
    17  C    5.979686
    18  C    5.987845
    19  C    5.962634
    20  C    6.001712
    21  C    5.989241
    22  O    7.979174
    23  C    5.998056
    24  N    7.006842
    25  C    5.965431
    26  C    6.010768
    27  C    5.992241
    28  C    6.031312
    29  C    6.000653
    30  C    5.996902
    31  C    5.999430
    32  N    7.000070
    33  C    6.035402
    34  C    6.024065
    35  C    6.003182
    36  C    6.026246
    37  C    5.998322
    38  C    6.017441
    39  O    8.030115
    40  C    6.000509
    41  C    6.005491
    42  O    8.002224
    43  O    8.001656
    44  C    5.998421
    45  H    0.989754
    46  H    0.994681
    47  H    1.012753
    48  H    0.998226
    49  H    0.995009
    50  H    0.987346
    51  H    0.999220
    52  H    1.000780
    53  H    1.008303
    54  H    0.992786
    55  H    0.995296
    56  H    1.003819
    57  H    0.986332
    58  H    0.983875
    59  H    0.985171
    60  H    0.990115
    61  H    0.989383
    62  H    0.991736
    63  H    0.999206
    64  H    0.997558
    65  H    0.990450
    66  H    1.002343
    67  H    1.003354
    68  H    0.996918
    69  H    1.010997
    70  H    1.005250
    71  H    1.005212
    72  H    0.997994
    73  H    1.014676
    74  H    1.014981
    75  H    1.018348
    76  H    1.007392
    77  H    1.004820
    78  H    1.005054
    79  H    1.000459
    80  Mg  11.999861
    81  C    5.998030
    82  C    5.999556
    83  C    6.002114
    84  C    6.001347
    85  N    6.998468
    86  C    6.002090
    87  C    5.999307
    88  C    6.000341
    89  C    5.998659
    90  C    6.000203
    91  C    5.999928
    92  C    6.000032
    93  H    0.999918
    94  N    7.000412
    95  C    5.997983
    96  C    5.998687
    97  C    5.999252
    98  C    5.997733
    99  C    6.000007
   100  C    5.999195
   101  O    7.998372
   102  C    6.000487
   103  N    7.001593
   104  C    5.997498
   105  C    6.000553
   106  C    5.999325
   107  C    6.001212
   108  C    5.999925
   109  C    5.999405
   110  C    6.000046
   111  N    6.999698
   112  C    6.001647
   113  C    6.002072
   114  C    6.000258
   115  C    6.001921
   116  C    5.999763
   117  C    6.000794
   118  O    8.002284
   119  C    6.000073
   120  C    6.000226
   121  O    8.000196
   122  O    8.000058
   123  C    5.999919
   124  H    0.998720
   125  H    1.000153
   126  H    1.001188
   127  H    0.999797
   128  H    0.999645
   129  H    1.000109
   130  H    0.999475
   131  H    0.998891
   132  H    1.000260
   133  H    0.999806
   134  H    0.999783
   135  H    0.999906
   136  H    0.998769
   137  H    0.999096
   138  H    0.998797
   139  H    0.999552
   140  H    0.999282
   141  H    0.999461
   142  H    1.000282
   143  H    1.000469
   144  H    0.999757
   145  H    0.999770
   146  H    1.000485
   147  H    1.000842
   148  H    0.999872
   149  H    0.999562
   150  H    1.000954
   151  H    1.000463
   152  H    1.001327
   153  H    1.001084
   154  H    1.001117
   155  H    1.000418
   156  H    1.000188
   157  H    1.000147
   158  H    1.000125
 Sum of Mulliken charges = 624.00000

 Dipole moment (field-independent basis, Debye):
    X=              9.4259    Y=              5.0285    Z=              0.9362  Tot=             10.7243
 Quadrupole moment (field-independent basis, Debye-Ang):
   XX=           -239.4970   YY=              0.5389   ZZ=              2.6259
   XY=            -65.0776   XZ=             -4.1049   YZ=             -0.2131

 Normal termination of Gaussian 16 at Fri Oct 15 15:14:07 2021.
