 Gaussian 16, Revision A.03,
 Gaussian 16:  ES64L-G16RevA.03 25-Dec-2016

 --------------------------------------------------------
 #p PBE1PBE/Def2SVP td=(nstates=5) density=(transition=1)
 --------------------------------------------------------

 --------------------------------
 TDDFT excited states in gaussian
 --------------------------------
 Symbolic Z-matrix:
 Charge =  0 Multiplicity = 1

                         Standard orientation:
 ---------------------------------------------------------------------
 Center     Atomic      Atomic             Coordinates (Angstroms)
 Number     Number       Type             X           Y           Z
 ---------------------------------------------------------------------
      1         12           0        8.623632   -0.367003    0.159095
      2          6           0        7.167841    2.630060   -1.030120
      3          6           0       10.834907    1.519902    2.019611
      4          6           0       10.183826   -3.239372    1.051796
      5          6           0        6.497431   -2.233642   -1.910769
      6          7           0        8.946455    1.818078    0.311465
      7          6           0        8.107999    2.859711   -0.078453
      8          6           0        8.605355    4.248652    0.496780
      9          6           0        9.918192    3.841985    1.217610
     10          6           0        9.960127    2.298803    1.152554
     11          6           0       11.271362    4.456948    0.698109
     12          6           0        7.547080    5.101795    1.309124
     13          6           0        7.254826    6.459957    0.746676
     14          1           0        7.006528    7.609427    1.801928
     15          7           0       10.248539   -0.737571    1.338650
     16          6           0       11.005648    0.141026    2.086714
     17          6           0       12.055997   -0.591607    2.776436
     18          6           0       11.910385   -1.986181    2.529945
     19          6           0       10.714680   -2.054063    1.611580
     20          6           0       13.051511    0.051196    3.763058
     21          6           0       12.707287   -3.168972    3.070732
     22          8           0       12.427279   -4.329554    2.851600
     23          6           0       13.929764   -3.037611    4.068870
     24          7           0        8.426739   -2.457988   -0.443026
     25          6           0        9.177414   -3.425150    0.067821
     26          6           0        8.772023   -4.838865   -0.482798
     27          6           0        7.451446   -4.521872   -1.290153
     28          6           0        7.419782   -2.966030   -1.202754
     29          6           0        9.942431   -5.525738   -1.244243
     30          6           0        6.246567   -5.246545   -0.723541
     31          6           0        5.317496   -5.834840   -1.783947
     32          7           0        7.206433    0.009629   -1.320436
     33          6           0        6.352347   -0.830964   -2.008255
     34          6           0        5.573420   -0.017428   -2.890265
     35          6           0        5.802112    1.335522   -2.536783
     36          6           0        6.832579    1.329985   -1.555722
     37          6           0        4.624114   -0.507325   -3.917007
     38          6           0        5.359023    2.722386   -2.762570
     39          8           0        4.600340    3.232341   -3.581863
     40          6           0        6.297405    3.646163   -1.664512
     41          6           0        7.031280    4.643266   -2.379431
     42          8           0        8.218875    4.589368   -2.614979
     43          8           0        6.237889    5.735680   -2.648006
     44          6           0        6.942911    6.774253   -3.439845
     45          1           0       11.471116    2.069785    2.716533
     46          1           0       10.677691   -4.188789    1.266550
     47          1           0        5.817262   -2.892774   -2.455446
     48          1           0        8.976210    4.779372   -0.379430
     49          1           0        9.872412    4.102114    2.275167
     50          1           0       11.864504    4.692323    1.582335
     51          1           0       11.042185    5.343569    0.107448
     52          1           0       11.857730    3.786882    0.069081
     53          1           0        7.929562    5.154915    2.328525
     54          1           0        6.610032    4.545394    1.281706
     55          1           0        6.353588    6.417320    0.133666
     56          1           0        8.122976    6.665894    0.121207
     57          1           0       12.787349   -0.360905    4.736316
     58          1           0       12.825703    1.114154    3.851355
     59          1           0       14.106026   -0.158836    3.579948
     60          1           0       13.584554   -2.497595    4.951184
     61          1           0       14.848883   -2.723898    3.573107
     62          1           0       14.234208   -4.066527    4.258210
     63          1           0        8.470272   -5.538500    0.296405
     64          1           0        7.668296   -4.783067   -2.326128
     65          1           0        9.571045   -5.858311   -2.213973
     66          1           0       10.419263   -6.324482   -0.675578
     67          1           0       10.735034   -4.801476   -1.424913
     68          1           0        5.658528   -4.611581   -0.061680
     69          1           0        6.494046   -6.060353   -0.040179
     70          1           0        5.580725   -5.486051   -2.782577
     71          1           0        4.318488   -5.465374   -1.550780
     72          1           0        5.237885   -6.919732   -1.713089
     73          1           0        4.518679   -1.586432   -4.028442
     74          1           0        4.810834    0.090940   -4.809627
     75          1           0        3.655283   -0.321183   -3.452904
     76          1           0        5.631203    4.124664   -0.946094
     77          1           0        7.269890    6.354906   -4.391591
     78          1           0        7.739710    7.150936   -2.798553
     79          1           0        6.300808    7.612350   -3.707948
     80         12           0       -8.114764   -0.765096    0.243090
     81          6           0      -10.668664    1.402942    0.811160
     82          6           0       -5.690466    1.670244    0.551261
     83          6           0       -5.730591   -3.090894   -0.550478
     84          6           0      -10.570755   -3.305034   -0.536468
     85          7           0       -8.209791    1.318206    0.427673
     86          6           0       -9.376068    1.998694    0.914107
     87          6           0       -9.028726    3.336399    1.433377
     88          6           0       -7.520761    3.483253    0.936704
     89          6           0       -7.063887    2.081167    0.600532
     90          6           0       -7.365011    4.455643   -0.337026
     91          6           0       -9.341506    3.551693    2.946120
     92          6           0      -10.003786    4.848948    3.282251
     93          1           0       -9.486278    6.117438    2.496119
     94          7           0       -5.990809   -0.731124    0.100865
     95          6           0       -5.239917    0.395759    0.257902
     96          6           0       -3.874887    0.024793    0.105214
     97          6           0       -3.812313   -1.403155   -0.136175
     98          6           0       -5.240689   -1.865324   -0.138481
     99          6           0       -2.734391    1.066075    0.109031
    100          6           0       -2.677169   -2.362481   -0.313619
    101          8           0       -2.722862   -3.558672   -0.622001
    102          6           0       -1.247782   -1.769192   -0.018171
    103          7           0       -8.133447   -2.922902   -0.566776
    104          6           0       -7.040946   -3.633890   -0.695025
    105          6           0       -7.332077   -5.122389   -0.874610
    106          6           0       -8.886784   -5.169577   -0.867108
    107          6           0       -9.239894   -3.698041   -0.659974
    108          6           0       -6.699757   -5.747802   -2.219937
    109          6           0       -9.365138   -6.089462    0.341284
    110          6           0       -9.135962   -5.659891    1.811475
    111          7           0      -10.200548   -0.897778   -0.008116
    112          6           0      -11.015128   -1.984663   -0.263758
    113          6           0      -12.402740   -1.520898   -0.060667
    114          6           0      -12.381508   -0.228164    0.369366
    115          6           0      -10.979122    0.107744    0.380821
    116          6           0      -13.609774   -2.309644   -0.435808
    117          6           0      -13.166005    0.931235    0.793473
    118          8           0      -14.370488    1.091736    0.897836
    119          6           0      -12.051429    2.029900    1.083321
    120          6           0      -12.274476    3.137091    0.131460
    121          8           0      -12.322071    3.081779   -1.109767
    122          8           0      -12.428712    4.246269    0.938174
    123          6           0      -12.481519    5.522222    0.212637
    124          1           0       -4.890593    2.399798    0.693077
    125          1           0       -4.914339   -3.805966   -0.677636
    126          1           0      -11.324769   -4.078719   -0.691639
    127          1           0       -9.680847    4.015719    0.882949
    128          1           0       -6.930377    3.862243    1.770364
    129          1           0       -8.245247    5.069349   -0.528467
    130          1           0       -7.327967    3.803111   -1.209226
    131          1           0       -6.421429    4.966260   -0.149134
    132          1           0       -8.417062    3.506150    3.521891
    133          1           0      -10.017182    2.725874    3.168350
    134          1           0       -9.844804    5.153564    4.315929
    135          1           0      -11.086615    4.966013    3.236780
    136          1           0       -2.448385    1.453661    1.086754
    137          1           0       -3.113614    1.825521   -0.574531
    138          1           0       -1.778184    0.650764   -0.208500
    139          1           0       -0.965660   -1.105069   -0.835184
    140          1           0       -0.590894   -2.595851    0.251826
    141          1           0       -1.192350   -1.207592    0.914596
    142          1           0       -6.953398   -5.655431   -0.002829
    143          1           0       -9.315949   -5.577806   -1.782177
    144          1           0       -5.851994   -6.352647   -1.896134
    145          1           0       -6.336386   -4.951043   -2.869773
    146          1           0       -7.295361   -6.422037   -2.834052
    147          1           0       -9.025205   -7.123980    0.295937
    148          1           0      -10.446877   -6.055725    0.207628
    149          1           0      -10.153945   -5.527406    2.178151
    150          1           0       -8.521593   -4.764520    1.897450
    151          1           0       -8.626436   -6.409643    2.416703
    152          1           0      -14.340544   -1.990157    0.306524
    153          1           0      -13.439225   -3.386015   -0.407763
    154          1           0      -14.014466   -1.866398   -1.344737
    155          1           0      -12.368811    2.340110    2.078529
    156          1           0      -12.719374    6.226531    1.010331
    157          1           0      -13.345316    5.452267   -0.448476
    158          1           0      -11.622055    5.744121   -0.420299
 ---------------------------------------------------------------------

 SCF Done:  E(RPBE1PBE) =  -4067.37140672     A.U. after   16 cycles

 Excitation energies and oscillator strengths:

 Excited State   1:      Singlet-A      1.8198 eV  681.31 nm  f=0.0000  <S**2>=0.000
     312 -> 313        0.70705
 This state for optimization and/or second-order correction.
 Total Energy, E(TD-HF/TD-DFT) =  -4067.30453039
 Copying the excited state density for this state as the 1-particle RhoCI density.

 Excited State   2:      Singlet-A      1.8348 eV  675.75 nm  f=0.5425  <S**2>=0.000
     309 -> 315       -0.17223
     311 -> 313        0.18138
     312 -> 314        0.66796

 Excited State   3:      Singlet-A      1.8765 eV  660.72 nm  f=0.2297  <S**2>=0.000
     310 -> 316        0.16958
     311 -> 313        0.66641
     312 -> 314       -0.18026

 Excited State   4:      Singlet-A      1.9280 eV  643.09 nm  f=0.0000  <S**2>=0.000
     311 -> 314        0.70695

 Excited State   5:      Singlet-A      2.2444 eV  552.42 nm  f=0.0879  <S**2>=0.000
     310 -> 313        0.64775
     311 -> 316       -0.25837

 The electronic state is 1-A.
 Alpha  occ. eigenvalues --  -46.92588 -46.91738 -19.26304 -19.25133 -19.20501
 Alpha  occ. eigenvalues --  -19.20087 -19.19892 -19.19820 -19.19618 -19.19519
 Alpha  occ. eigenvalues --  -14.41915 -14.41885 -14.41529 -14.41300 -14.39956
 Alpha  occ. eigenvalues --  -14.39173 -14.39028 -14.38741 -10.36550 -10.35448
 Alpha  occ. eigenvalues --  -10.33569 -10.33310 -10.32664 -10.32635 -10.30040
 Alpha  occ. eigenvalues --  -10.29581 -10.29527 -10.29390 -10.29032 -10.28773
 Alpha  occ. eigenvalues --  -10.28642 -10.28466 -10.28403 -10.28280 -10.28063
 Alpha  occ. eigenvalues --  -10.27896 -10.27871 -10.27556 -10.27438 -10.27277
 Alpha  occ. eigenvalues --  -10.26871 -10.26813 -10.26668 -10.26597 -10.26536
 Alpha  occ. eigenvalues --  -10.26343 -10.26253 -10.26231 -10.26082 -10.25833
 Alpha  occ. eigenvalues --  -10.25829 -10.25787 -10.25687 -10.25578 -10.25548
 Alpha  occ. eigenvalues --  -10.25421 -10.25401 -10.25372 -10.25363 -10.25317
 Alpha  occ. eigenvalues --  -10.25293 -10.25197 -10.25169 -10.25159 -10.25128
 Alpha  occ. eigenvalues --  -10.25018 -10.24920 -10.24599 -10.24522 -10.24203
 Alpha  occ. eigenvalues --  -10.24157 -10.24095 -10.23985 -10.23813 -10.23723
 Alpha  occ. eigenvalues --  -10.23678 -10.23642 -10.23319 -10.23251 -10.23191
 Alpha  occ. eigenvalues --  -10.23084 -10.22978 -10.22954 -10.22930 -10.22700
 Alpha  occ. eigenvalues --  -10.22610  -3.14577  -3.13848  -1.87421  -1.86941
 Alpha  occ. eigenvalues --   -1.86800  -1.86696  -1.86214  -1.86079  -1.10779
 Alpha  occ. eigenvalues --   -1.10720  -1.06003  -1.05046  -1.04452  -1.04129
 Alpha  occ. eigenvalues --   -1.02417  -1.02274  -0.99724  -0.98759  -0.98544
 Alpha  occ. eigenvalues --   -0.97382  -0.97084  -0.96718  -0.96261  -0.95730
 Alpha  occ. eigenvalues --   -0.86774  -0.86469  -0.83458  -0.83354  -0.83050
 Alpha  occ. eigenvalues --   -0.82775  -0.82273  -0.82259  -0.81666  -0.81330
 Alpha  occ. eigenvalues --   -0.81260  -0.81203  -0.80333  -0.80325  -0.78890
 Alpha  occ. eigenvalues --   -0.78710  -0.78010  -0.77633  -0.76858  -0.76651
 Alpha  occ. eigenvalues --   -0.75833  -0.75435  -0.75422  -0.75088  -0.74234
 Alpha  occ. eigenvalues --   -0.74083  -0.72557  -0.72294  -0.71616  -0.71420
 Alpha  occ. eigenvalues --   -0.71333  -0.70901  -0.70185  -0.70103  -0.69261
 Alpha  occ. eigenvalues --   -0.69144  -0.66887  -0.66871  -0.66599  -0.65819
 Alpha  occ. eigenvalues --   -0.64153  -0.63604  -0.63381  -0.63268  -0.62794
 Alpha  occ. eigenvalues --   -0.62048  -0.61787  -0.61640  -0.60085  -0.59764
 Alpha  occ. eigenvalues --   -0.59437  -0.59422  -0.59177  -0.59141  -0.59042
 Alpha  occ. eigenvalues --   -0.58905  -0.57078  -0.55889  -0.54778  -0.54466
 Alpha  occ. eigenvalues --   -0.53949  -0.53876  -0.53449  -0.53394  -0.53330
 Alpha  occ. eigenvalues --   -0.52693  -0.52499  -0.52457  -0.52069  -0.51867
 Alpha  occ. eigenvalues --   -0.50570  -0.50505  -0.50359  -0.50051  -0.49480
 Alpha  occ. eigenvalues --   -0.49456  -0.49397  -0.48994  -0.48961  -0.48370
 Alpha  occ. eigenvalues --   -0.48066  -0.47881  -0.47803  -0.47708  -0.47626
 Alpha  occ. eigenvalues --   -0.47306  -0.47237  -0.46942  -0.46888  -0.46858
 Alpha  occ. eigenvalues --   -0.46403  -0.46396  -0.46270  -0.46171  -0.46065
 Alpha  occ. eigenvalues --   -0.45679  -0.45603  -0.45451  -0.45342  -0.45293
 Alpha  occ. eigenvalues --   -0.44868  -0.44483  -0.44335  -0.44219  -0.44206
 Alpha  occ. eigenvalues --   -0.44061  -0.43914  -0.43436  -0.43343  -0.43226
 Alpha  occ. eigenvalues --   -0.43151  -0.43075  -0.42990  -0.42801  -0.42716
 Alpha  occ. eigenvalues --   -0.42704  -0.42493  -0.42307  -0.42028  -0.42004
 Alpha  occ. eigenvalues --   -0.41947  -0.41562  -0.41511  -0.41271  -0.41215
 Alpha  occ. eigenvalues --   -0.41001  -0.40912  -0.40827  -0.40559  -0.40361
 Alpha  occ. eigenvalues --   -0.40270  -0.40004  -0.39902  -0.39740  -0.39459
 Alpha  occ. eigenvalues --   -0.39448  -0.39263  -0.39259  -0.38985  -0.38767
 Alpha  occ. eigenvalues --   -0.38693  -0.38541  -0.38202  -0.38183  -0.38016
 Alpha  occ. eigenvalues --   -0.37978  -0.37671  -0.37640  -0.37610  -0.37607
 Alpha  occ. eigenvalues --   -0.37466  -0.37200  -0.37046  -0.37028  -0.36974
 Alpha  occ. eigenvalues --   -0.36850  -0.36806  -0.36477  -0.36439  -0.36369
 Alpha  occ. eigenvalues --   -0.36161  -0.35611  -0.35528  -0.35327  -0.35229
 Alpha  occ. eigenvalues --   -0.35014  -0.34696  -0.34619  -0.34459  -0.34427
 Alpha  occ. eigenvalues --   -0.33669  -0.32822  -0.32736  -0.32473  -0.32315
 Alpha  occ. eigenvalues --   -0.32101  -0.32012  -0.31686  -0.31433  -0.31349
 Alpha  occ. eigenvalues --   -0.31332  -0.31076  -0.29581  -0.29390  -0.29333
 Alpha  occ. eigenvalues --   -0.29068  -0.28967  -0.28793  -0.27205  -0.26823
 Alpha  occ. eigenvalues --   -0.26288  -0.26267  -0.25985  -0.25900  -0.25690
 Alpha  occ. eigenvalues --   -0.25626  -0.25383  -0.24757  -0.21245  -0.21011
 Alpha  occ. eigenvalues --   -0.18952  -0.18612
 Alpha virt. eigenvalues --   -0.11160  -0.11012  -0.05741  -0.05393  -0.04403
 Alpha virt. eigenvalues --   -0.04211  -0.02436  -0.02227  -0.00828   0.00014
 Alpha virt. eigenvalues --    0.00121   0.00122   0.00857   0.00999   0.01096

 Mulliken charges:
               1
     1  Mg  12.000004
     2  C    5.999990
     3  C    6.000002
     4  C    6.000008
     5  C    5.999996
     6  N    6.999992
     7  C    6.000014
     8  C    5.999994
     9  C    6.000005
    10  C    5.999983
    11  C    6.000003
    12  C    5.999999
    13  C    5.999999
    14  H    1.000001
    15  N    7.000004
    16  C    5.999983
    17  C    5.999988
    18  C    5.999990
    19  C    5.999985
    20  C    6.000001
    21  C    5.999995
    22  O    7.999985
    23  C    6.000002
    24  N    7.000000
    25  C    5.999985
    26  C    6.000005
    27  C    5.999995
    28  C    6.000014
    29  C    6.000001
    30  C    5.999997
    31  C    5.999999
    32  N    6.999998
    33  C    6.000021
    34  C    6.000018
    35  C    6.000001
    36  C    6.000017
    37  C    5.999998
    38  C    6.000010
    39  O    8.000014
    40  C    6.000004
    41  C    6.000000
    42  O    8.000004
    43  O    8.000001
    44  C    5.999999
    45  H    0.999993
    46  H    0.999996
    47  H    1.000008
    48  H    1.000001
    49  H    0.999999
    50  H    0.999999
    51  H    0.999991
    52  H    0.999999
    53  H    1.000004
    54  H    1.000000
    55  H    0.999998
    56  H    1.000000
    57  H    0.999991
    58  H    0.999991
    59  H    0.999990
    60  H    0.999997
    61  H    0.999994
    62  H    0.999992
    63  H    1.000000
    64  H    1.000000
    65  H    0.999994
    66  H    1.000000
    67  H    1.000001
    68  H    1.000003
    69  H    1.000004
    70  H    0.999997
    71  H    1.000004
    72  H    1.000001
    73  H    1.000011
    74  H    1.000008
    75  H    1.000015
    76  H    1.000005
    77  H    1.000000
    78  H    1.000002
    79  H    1.000001
    80  Mg  11.999994
    81  C    5.999964
    82  C    6.000038
    83  C    6.000006
    84  C    5.999969
    85  N    6.999996
    86  C    6.000068
    87  C    5.999978
    88  C    6.000019
    89  C    5.999937
    90  C    6.000002
    91  C    5.999996
    92  C    5.999993
    93  H    1.000015
    94  N    7.000012
    95  C    5.999934
    96  C    5.999953
    97  C    5.999970
    98  C    5.999961
    99  C    6.000000
   100  C    5.999973
   101  O    7.999938
   102  C    6.000011
   103  N    6.999992
   104  C    5.999956
   105  C    6.000016
   106  C    5.999979
   107  C    6.000064
   108  C    6.000002
   109  C    5.999996
   110  C    5.999992
   111  N    6.999997
   112  C    6.000082
   113  C    6.000049
   114  C    6.000007
   115  C    6.000059
   116  C    5.999998
   117  C    6.000034
   118  O    8.000052
   119  C    6.000003
   120  C    6.000006
   121  O    8.000008
   122  O    8.000003
   123  C    5.999998
   124  H    0.999986
   125  H    0.999986
   126  H    1.000016
   127  H    1.000002
   128  H    0.999998
   129  H    0.999975
   130  H    0.999999
   131  H    1.000002
   132  H    1.000023
   133  H    0.999990
   134  H    1.000007
   135  H    0.999994
   136  H    0.999963
   137  H    0.999973
   138  H    0.999973
   139  H    0.999978
   140  H    0.999974
   141  H    0.999986
   142  H    1.000001
   143  H    1.000005
   144  H    1.000004
   145  H    1.000006
   146  H    0.999984
   147  H    1.000018
   148  H    0.999992
   149  H    0.999990
   150  H    1.000016
   151  H    1.000013
   152  H    1.000028
   153  H    1.000033
   154  H    1.000037
   155  H    1.000014
   156  H    1.000008
   157  H    1.000003
   158  H    1.000013
 Sum of Mulliken charges = 624.00000

 Dipole moment (field-independent basis, Debye):
    X=             -0.0256    Y=              0.0013    Z=             -0.0027  Tot=              0.0258
 Quadrupole moment (field-independent basis, Debye-Ang):
   XX=              0.2376   YY=              0.0042   ZZ=              0.0012
   XY=              0.0232   XZ=             -0.0404   YZ=              0.0021

 Normal termination of Gaussian 16 at Fri Oct 15 12:07:52 2021.
