 Gaussian 16, Revision A.03,
 Gaussian 16:  ES64L-G16RevA.03 25-Dec-2016

 --------------------------------------------------------
 #p PBE1PBE/Def2SVP td=(nstates=5) density=(transition=1)
 --------------------------------------------------------

 --------------------------------
 TDDFT excited states in gaussian
 --------------------------------
 Symbolic Z-matrix:
 Charge =  0 Multiplicity = 1

                         Standard orientation:
 ---------------------------------------------------------------------
 Center     Atomic      Atomic             Coordinates (Angstroms)
 Number     Number       Type             X           Y           Z
 ---------------------------------------------------------------------
      1         12           0      -10.338814   -0.012714    0.736388
      2          6           0       -9.590808   -1.196871   -2.409171
      3          6           0       -7.585934   -1.644692    1.929110
      4          6           0      -10.378410    2.087309    3.286104
      5          6           0      -13.103807    1.634044   -0.667353
      6          7           0       -8.539346   -0.886614   -0.294763
      7          6           0       -8.580482   -1.470786   -1.519941
      8          6           0       -7.402773   -2.363720   -1.777018
      9          6           0       -7.072553   -2.798396   -0.312416
     10          6           0       -7.832921   -1.766418    0.507314
     11          6           0       -7.437946   -4.281907   -0.019684
     12          6           0       -6.172172   -1.571006   -2.448710
     13          6           0       -5.307009   -2.410276   -3.499240
     14          1           0       -3.888326   -2.470267   -2.989555
     15          7           0       -9.254126    0.049557    2.472135
     16          6           0       -8.117114   -0.608920    2.787046
     17          6           0       -7.624500   -0.190511    4.093360
     18          6           0       -8.449684    0.873065    4.513007
     19          6           0       -9.416961    1.043489    3.392646
     20          6           0       -6.369419   -0.842160    4.722963
     21          6           0       -8.146353    1.713416    5.722009
     22          8           0       -7.207715    1.430895    6.420138
     23          6           0       -8.930197    2.975188    6.130807
     24          7           0      -11.650288    1.584175    1.348562
     25          6           0      -11.437594    2.263648    2.386295
     26          6           0      -12.339299    3.434500    2.521713
     27          6           0      -13.258311    3.304814    1.244001
     28          6           0      -12.665266    2.131112    0.594028
     29          6           0      -13.057018    3.456061    3.913558
     30          6           0      -13.198761    4.612057    0.325718
     31          6           0      -14.361828    4.824877   -0.707386
     32          7           0      -11.262950    0.150795   -1.101714
     33          6           0      -12.437139    0.771561   -1.487510
     34          6           0      -12.771723    0.424171   -2.840778
     35          6           0      -11.676111   -0.415651   -3.246570
     36          6           0      -10.765644   -0.452655   -2.208164
     37          6           0      -13.974220    0.841257   -3.624607
     38          6           0      -11.184042   -1.206054   -4.321647
     39          8           0      -11.573877   -1.466539   -5.467173
     40          6           0       -9.726346   -1.586125   -3.898932
     41          6           0       -9.549859   -3.030757   -4.229194
     42          8           0       -9.062356   -3.461012   -5.283913
     43          8           0      -10.058295   -3.801365   -3.220251
     44          6           0       -9.916823   -5.237736   -3.589968
     45          1           0       -6.817765   -2.228915    2.440784
     46          1           0      -10.329357    2.801424    4.110103
     47          1           0      -13.879151    2.247871   -1.132143
     48          1           0       -7.822947   -3.193709   -2.343654
     49          1           0       -5.994428   -2.743498   -0.160739
     50          1           0       -6.528151   -4.839451    0.200964
     51          1           0       -7.831275   -4.702656   -0.945662
     52          1           0       -8.190253   -4.283810    0.768448
     53          1           0       -5.493186   -1.064158   -1.763176
     54          1           0       -6.538074   -0.709459   -3.006311
     55          1           0       -5.309379   -1.791571   -4.396749
     56          1           0       -5.658704   -3.386385   -3.833536
     57          1           0       -5.555323   -0.151981    4.944017
     58          1           0       -5.966938   -1.677651    4.149119
     59          1           0       -6.696316   -1.324566    5.643515
     60          1           0       -9.966542    2.770583    6.397559
     61          1           0       -8.897434    3.771844    5.387168
     62          1           0       -8.335945    3.416262    6.931648
     63          1           0      -11.663777    4.282125    2.407144
     64          1           0      -14.301751    3.022355    1.381752
     65          1           0      -12.783598    4.395342    4.393779
     66          1           0      -12.775081    2.602619    4.530465
     67          1           0      -14.135879    3.599952    3.856877
     68          1           0      -12.269029    4.626185   -0.243444
     69          1           0      -13.171608    5.448041    1.023109
     70          1           0      -14.999578    5.707314   -0.663465
     71          1           0      -15.091650    4.020012   -0.631327
     72          1           0      -13.969240    4.808305   -1.724110
     73          1           0      -14.763273    1.353435   -3.074346
     74          1           0      -14.281478   -0.133673   -4.000880
     75          1           0      -13.488062    1.395188   -4.427775
     76          1           0       -8.949933   -0.989095   -4.378495
     77          1           0      -10.598122   -5.468110   -4.408409
     78          1           0      -10.295635   -5.910337   -2.820386
     79          1           0       -8.864155   -5.418737   -3.808293
     80         12           0       10.210130    0.713626   -0.089374
     81          6           0        9.090610   -2.301672    1.245611
     82          6           0        6.945523    1.732922   -0.461166
     83          6           0       11.447637    3.460373   -1.614598
     84          6           0       13.526345   -0.615996   -0.022074
     85          7           0        8.288300   -0.247295    0.249295
     86          6           0        8.048419   -1.458018    0.822038
     87          6           0        6.548409   -1.680109    1.055122
     88          6           0        5.923458   -0.399387    0.344121
     89          6           0        7.171870    0.432339    0.031737
     90          6           0        5.158763   -0.763051   -0.922905
     91          6           0        6.075896   -1.661093    2.552458
     92          6           0        4.846697   -2.459723    2.900570
     93          1           0        3.961513   -2.926651    1.833257
     94          7           0        9.332833    2.372164   -0.823486
     95          6           0        7.943671    2.599232   -0.891642
     96          6           0        7.780055    3.961829   -1.325925
     97          6           0        9.048672    4.521688   -1.621645
     98          6           0       10.027014    3.437617   -1.359106
     99          6           0        6.432165    4.573851   -1.642180
    100          6           0        9.436837    5.872541   -2.056396
    101          8           0       10.546040    6.148984   -2.460888
    102          6           0        8.359733    7.011453   -2.171448
    103          7           0       12.260243    1.461023   -0.604314
    104          6           0       12.459497    2.581844   -1.231022
    105          6           0       13.969576    2.794861   -1.551686
    106          6           0       14.653832    1.559989   -0.994143
    107          6           0       13.436804    0.676791   -0.538919
    108          6           0       14.171837    3.108128   -3.108661
    109          6           0       15.676824    1.882526    0.115516
    110          6           0       17.186755    2.009289   -0.312190
    111          7           0       11.171856   -0.892238    0.683995
    112          6           0       12.523277   -1.316303    0.641367
    113          6           0       12.692300   -2.555815    1.298904
    114          6           0       11.313991   -3.003057    1.473303
    115          6           0       10.478296   -1.910951    1.102683
    116          6           0       13.976720   -3.361549    1.367360
    117          6           0       10.585922   -4.142507    1.894927
    118          8           0       10.940147   -5.228723    2.335756
    119          6           0        8.992643   -3.653814    1.834945
    120          6           0        8.292994   -4.701821    1.020244
    121          8           0        8.586866   -4.995066   -0.143413
    122          8           0        7.327903   -5.431938    1.775485
    123          6           0        6.595959   -6.504464    1.031706
    124          1           0        5.887285    1.989478   -0.551766
    125          1           0       11.742081    4.279872   -2.272973
    126          1           0       14.524177   -1.049145    0.069899
    127          1           0        6.294265   -2.602129    0.531780
    128          1           0        5.217557    0.136386    0.978614
    129          1           0        4.956157   -1.832750   -0.968331
    130          1           0        5.642264   -0.394629   -1.828076
    131          1           0        4.129573   -0.404168   -0.934093
    132          1           0        5.930568   -0.619122    2.835409
    133          1           0        6.937641   -1.957204    3.151033
    134          1           0        4.200207   -1.804494    3.483959
    135          1           0        5.144201   -3.337317    3.474578
    136          1           0        6.297879    4.792567   -2.701480
    137          1           0        6.316918    5.468358   -1.028641
    138          1           0        5.561484    3.954829   -1.426382
    139          1           0        7.865663    6.854846   -3.130688
    140          1           0        8.848299    7.978540   -2.291159
    141          1           0        7.618520    6.928085   -1.377551
    142          1           0       14.211675    3.696058   -0.988053
    143          1           0       15.096300    0.952077   -1.781797
    144          1           0       14.861475    2.393207   -3.557212
    145          1           0       14.662718    4.062353   -3.300968
    146          1           0       13.175590    2.996739   -3.538643
    147          1           0       15.596104    1.072565    0.841319
    148          1           0       15.330880    2.795633    0.600161
    149          1           0       17.615681    1.006626   -0.306038
    150          1           0       17.830216    2.708513    0.222141
    151          1           0       17.069761    2.275618   -1.362115
    152          1           0       14.490736   -2.933035    2.227348
    153          1           0       14.584473   -3.218801    0.474633
    154          1           0       13.872938   -4.446189    1.316973
    155          1           0        8.613738   -3.569952    2.854275
    156          1           0        7.270782   -7.289285    0.691890
    157          1           0        5.997972   -6.219870    0.165548
    158          1           0        5.993055   -6.895462    1.851293
 ---------------------------------------------------------------------

 SCF Done:  E(RPBE1PBE) =  -4067.39440157     A.U. after   16 cycles

 Excitation energies and oscillator strengths:

 Excited State   1:      Singlet-A      1.7983 eV  689.46 nm  f=0.3497  <S**2>=0.000
     309 -> 315       -0.16149
     312 -> 314        0.69481
     312 <- 314       -0.10923
 This state for optimization and/or second-order correction.
 Total Energy, E(TD-HF/TD-DFT) =  -4067.32831620
 Copying the excited state density for this state as the 1-particle RhoCI density.

 Excited State   2:      Singlet-A      1.8293 eV  677.77 nm  f=0.0000  <S**2>=0.000
     312 -> 313        0.70709

 Excited State   3:      Singlet-A      1.8459 eV  671.67 nm  f=0.3567  <S**2>=0.000
     310 -> 316        0.17459
     311 -> 313        0.69230
     311 <- 313       -0.10444

 Excited State   4:      Singlet-A      1.9100 eV  649.15 nm  f=0.0000  <S**2>=0.000
     311 -> 314        0.70708

 Excited State   5:      Singlet-A      2.1989 eV  563.86 nm  f=0.1055  <S**2>=0.000
     309 -> 314        0.65192
     312 -> 315        0.25037

 The electronic state is 1-A.
 Alpha  occ. eigenvalues --  -46.92721 -46.91382 -19.26418 -19.24900 -19.19758
 Alpha  occ. eigenvalues --  -19.19565 -19.19557 -19.19153 -19.18862 -19.18593
 Alpha  occ. eigenvalues --  -14.42121 -14.41641 -14.41607 -14.41186 -14.39878
 Alpha  occ. eigenvalues --  -14.39713 -14.39194 -14.38580 -10.36180 -10.35957
 Alpha  occ. eigenvalues --  -10.32753 -10.32270 -10.31795 -10.31612 -10.29906
 Alpha  occ. eigenvalues --  -10.29146 -10.29123 -10.29068 -10.28986 -10.28785
 Alpha  occ. eigenvalues --  -10.28756 -10.28485 -10.28441 -10.28370 -10.28328
 Alpha  occ. eigenvalues --  -10.28301 -10.28241 -10.28024 -10.27092 -10.26871
 Alpha  occ. eigenvalues --  -10.26837 -10.26765 -10.26651 -10.26550 -10.26282
 Alpha  occ. eigenvalues --  -10.26279 -10.26217 -10.26058 -10.25992 -10.25970
 Alpha  occ. eigenvalues --  -10.25839 -10.25815 -10.25773 -10.25613 -10.25572
 Alpha  occ. eigenvalues --  -10.25477 -10.25473 -10.25469 -10.25425 -10.25390
 Alpha  occ. eigenvalues --  -10.25365 -10.25319 -10.25234 -10.25215 -10.25119
 Alpha  occ. eigenvalues --  -10.24864 -10.24763 -10.24756 -10.24588 -10.24539
 Alpha  occ. eigenvalues --  -10.24490 -10.24479 -10.24084 -10.24032 -10.23946
 Alpha  occ. eigenvalues --  -10.23924 -10.23911 -10.23900 -10.23759 -10.23578
 Alpha  occ. eigenvalues --  -10.23446 -10.23360 -10.23290 -10.23215 -10.22753
 Alpha  occ. eigenvalues --  -10.22686  -3.14873  -3.13654  -1.87700  -1.87261
 Alpha  occ. eigenvalues --   -1.87088  -1.86509  -1.86021  -1.85898  -1.10937
 Alpha  occ. eigenvalues --   -1.08259  -1.06557  -1.05544  -1.03728  -1.03247
 Alpha  occ. eigenvalues --   -1.01810  -1.01497  -1.00735  -0.99783  -0.99212
 Alpha  occ. eigenvalues --   -0.98722  -0.98674  -0.98146  -0.97833  -0.96829
 Alpha  occ. eigenvalues --   -0.87205  -0.86602  -0.84226  -0.83555  -0.83224
 Alpha  occ. eigenvalues --   -0.83065  -0.82680  -0.82635  -0.82011  -0.81779
 Alpha  occ. eigenvalues --   -0.81727  -0.81333  -0.80942  -0.80727  -0.78657
 Alpha  occ. eigenvalues --   -0.78538  -0.78323  -0.77365  -0.76671  -0.76459
 Alpha  occ. eigenvalues --   -0.76024  -0.75709  -0.75311  -0.74835  -0.74584
 Alpha  occ. eigenvalues --   -0.74284  -0.72952  -0.72826  -0.72101  -0.71643
 Alpha  occ. eigenvalues --   -0.71254  -0.71177  -0.70480  -0.70200  -0.69925
 Alpha  occ. eigenvalues --   -0.69398  -0.67636  -0.67351  -0.66762  -0.66039
 Alpha  occ. eigenvalues --   -0.65022  -0.63817  -0.63785  -0.63359  -0.62733
 Alpha  occ. eigenvalues --   -0.62579  -0.62202  -0.61652  -0.61475  -0.60179
 Alpha  occ. eigenvalues --   -0.59943  -0.59715  -0.59574  -0.59464  -0.59225
 Alpha  occ. eigenvalues --   -0.59191  -0.57198  -0.56061  -0.55072  -0.54778
 Alpha  occ. eigenvalues --   -0.54358  -0.54255  -0.53926  -0.53877  -0.53525
 Alpha  occ. eigenvalues --   -0.53223  -0.52719  -0.52408  -0.51867  -0.51575
 Alpha  occ. eigenvalues --   -0.51415  -0.50908  -0.50806  -0.50438  -0.49668
 Alpha  occ. eigenvalues --   -0.49525  -0.49203  -0.48958  -0.48606  -0.48417
 Alpha  occ. eigenvalues --   -0.47841  -0.47710  -0.47677  -0.47362  -0.47290
 Alpha  occ. eigenvalues --   -0.47040  -0.46943  -0.46827  -0.46734  -0.46651
 Alpha  occ. eigenvalues --   -0.46588  -0.46429  -0.46208  -0.46053  -0.45914
 Alpha  occ. eigenvalues --   -0.45751  -0.45503  -0.45274  -0.44957  -0.44917
 Alpha  occ. eigenvalues --   -0.44654  -0.44653  -0.44430  -0.44281  -0.44178
 Alpha  occ. eigenvalues --   -0.44012  -0.43864  -0.43822  -0.43769  -0.43618
 Alpha  occ. eigenvalues --   -0.43454  -0.43151  -0.43094  -0.43019  -0.42848
 Alpha  occ. eigenvalues --   -0.42569  -0.42508  -0.42358  -0.42230  -0.42161
 Alpha  occ. eigenvalues --   -0.41888  -0.41769  -0.41720  -0.41647  -0.41574
 Alpha  occ. eigenvalues --   -0.41552  -0.41185  -0.41163  -0.40802  -0.40675
 Alpha  occ. eigenvalues --   -0.40479  -0.40209  -0.39977  -0.39930  -0.39840
 Alpha  occ. eigenvalues --   -0.39627  -0.39494  -0.39348  -0.39270  -0.39251
 Alpha  occ. eigenvalues --   -0.39070  -0.38883  -0.38853  -0.38812  -0.38713
 Alpha  occ. eigenvalues --   -0.38455  -0.38263  -0.38178  -0.37926  -0.37766
 Alpha  occ. eigenvalues --   -0.37706  -0.37593  -0.37553  -0.37171  -0.37029
 Alpha  occ. eigenvalues --   -0.37017  -0.36949  -0.36842  -0.36732  -0.36480
 Alpha  occ. eigenvalues --   -0.36382  -0.36265  -0.36188  -0.35874  -0.35709
 Alpha  occ. eigenvalues --   -0.35127  -0.35081  -0.34728  -0.34719  -0.34413
 Alpha  occ. eigenvalues --   -0.33793  -0.33593  -0.33385  -0.32831  -0.32795
 Alpha  occ. eigenvalues --   -0.32282  -0.32056  -0.32041  -0.31934  -0.31672
 Alpha  occ. eigenvalues --   -0.31234  -0.30781  -0.30344  -0.29704  -0.29225
 Alpha  occ. eigenvalues --   -0.29176  -0.28571  -0.28512  -0.26989  -0.26988
 Alpha  occ. eigenvalues --   -0.26431  -0.26247  -0.26023  -0.25698  -0.25488
 Alpha  occ. eigenvalues --   -0.25475  -0.25078  -0.24880  -0.21181  -0.21098
 Alpha  occ. eigenvalues --   -0.19130  -0.18891
 Alpha virt. eigenvalues --   -0.11526  -0.11462  -0.05472  -0.05226  -0.04133
 Alpha virt. eigenvalues --   -0.03970  -0.02416  -0.02028  -0.00935   0.00004
 Alpha virt. eigenvalues --    0.00101   0.01055   0.01148   0.01331   0.02098

 Mulliken charges:
               1
     1  Mg  11.999365
     2  C    5.987013
     3  C    6.007469
     4  C    6.014997
     5  C    5.996791
     6  N    6.991698
     7  C    6.033801
     8  C    5.989638
     9  C    6.013732
    10  C    5.968200
    11  C    6.003035
    12  C    6.001025
    13  C    5.997859
    14  H    1.008878
    15  N    7.004712
    16  C    5.964403
    17  C    5.977670
    18  C    5.986385
    19  C    5.970778
    20  C    6.003779
    21  C    5.990779
    22  O    7.981065
    23  C    6.001631
    24  N    6.999364
    25  C    5.971127
    26  C    6.008350
    27  C    5.989830
    28  C    6.034150
    29  C    6.002656
    30  C    5.993662
    31  C    5.998644
    32  N    7.000428
    33  C    6.026893
    34  C    6.031493
    35  C    5.999845
    36  C    6.024565
    37  C    6.000858
    38  C    6.015805
    39  O    8.028825
    40  C    5.998684
    41  C    6.003816
    42  O    8.007024
    43  O    7.999005
    44  C    5.999191
    45  H    0.989720
    46  H    0.993755
    47  H    1.008360
    48  H    0.997189
    49  H    0.994818
    50  H    0.996571
    51  H    0.985022
    52  H    1.000405
    53  H    1.010642
    54  H    0.995079
    55  H    0.997934
    56  H    0.999535
    57  H    0.982679
    58  H    0.982771
    59  H    0.983088
    60  H    0.989417
    61  H    0.988967
    62  H    0.989225
    63  H    1.001965
    64  H    1.001686
    65  H    1.000011
    66  H    1.005832
    67  H    0.991224
    68  H    1.002824
    69  H    1.011886
    70  H    1.005747
    71  H    0.998501
    72  H    0.996504
    73  H    1.017201
    74  H    1.015059
    75  H    1.017066
    76  H    1.008322
    77  H    0.999966
    78  H    1.006267
    79  H    1.005845
    80  Mg  11.999939
    81  C    6.000292
    82  C    6.000496
    83  C    5.999539
    84  C    5.999612
    85  N    7.000200
    86  C    5.999916
    87  C    5.999975
    88  C    5.999966
    89  C    5.999908
    90  C    5.999804
    91  C    6.000071
    92  C    5.999628
    93  H    1.000352
    94  N    6.999900
    95  C    5.999890
    96  C    6.000326
    97  C    5.999893
    98  C    6.000118
    99  C    5.999900
   100  C    5.999975
   101  O    7.999942
   102  C    6.000037
   103  N    6.999850
   104  C    6.000080
   105  C    6.000029
   106  C    6.000020
   107  C    5.999930
   108  C    6.000036
   109  C    6.000085
   110  C    5.999973
   111  N    7.000043
   112  C    5.999979
   113  C    5.999774
   114  C    6.000015
   115  C    5.999883
   116  C    6.000010
   117  C    5.999905
   118  O    7.999819
   119  C    6.000140
   120  C    6.000009
   121  O    7.999671
   122  O    8.000266
   123  C    6.000023
   124  H    1.000516
   125  H    0.999654
   126  H    0.999666
   127  H    0.999924
   128  H    1.000910
   129  H    1.000116
   130  H    0.999418
   131  H    1.000541
   132  H    1.000277
   133  H    0.999849
   134  H    1.001254
   135  H    0.999982
   136  H    0.999668
   137  H    1.000309
   138  H    1.000338
   139  H    0.999708
   140  H    0.999824
   141  H    1.000234
   142  H    0.999891
   143  H    0.999773
   144  H    0.999771
   145  H    0.999775
   146  H    0.999894
   147  H    1.000068
   148  H    0.999979
   149  H    0.999904
   150  H    0.999854
   151  H    0.999847
   152  H    0.999902
   153  H    0.999721
   154  H    0.999808
   155  H    1.000387
   156  H    0.999667
   157  H    0.999903
   158  H    1.000445
 Sum of Mulliken charges = 624.00000

 Dipole moment (field-independent basis, Debye):
    X=             -5.2842    Y=              0.0599    Z=             -8.6390  Tot=             10.1271
 Quadrupole moment (field-independent basis, Debye-Ang):
   XX=            103.0697   YY=              0.3755   ZZ=             -9.7418
   XY=             -2.5800   XZ=             83.6882   YZ=             -0.6342

 Normal termination of Gaussian 16 at Fri Oct 15 09:00:46 2021.
