 Gaussian 16, Revision A.03,
 Gaussian 16:  ES64L-G16RevA.03 25-Dec-2016

 --------------------------------------------------------
 #p PBE1PBE/Def2SVP td=(nstates=5) density=(transition=1)
 --------------------------------------------------------

 --------------------------------
 TDDFT excited states in gaussian
 --------------------------------
 Symbolic Z-matrix:
 Charge =  0 Multiplicity = 1

                         Standard orientation:
 ---------------------------------------------------------------------
 Center     Atomic      Atomic             Coordinates (Angstroms)
 Number     Number       Type             X           Y           Z
 ---------------------------------------------------------------------
      1         12           0      -20.830874   -0.420733   -0.127942
      2          6           0      -18.434560    2.105677   -0.078323
      3          6           0      -23.216899    1.856873    0.848912
      4          6           0      -22.968575   -3.029060    0.042987
      5          6           0      -18.196585   -2.754207   -0.748530
      6          7           0      -20.763709    1.682158    0.424176
      7          6           0      -19.704193    2.532619    0.349554
      8          6           0      -20.124213    3.978118    0.645866
      9          6           0      -21.645115    3.784909    1.076984
     10          6           0      -21.887345    2.310379    0.737914
     11          6           0      -21.860520    4.063486    2.559671
     12          6           0      -20.106153    4.962903   -0.577048
     13          6           0      -19.879098    6.423637   -0.286150
     14          1           0      -20.023482    6.919250    1.082883
     15          7           0      -22.800059   -0.539631    0.281316
     16          6           0      -23.617895    0.536828    0.679258
     17          6           0      -24.965564    0.031446    0.699713
     18          6           0      -24.955593   -1.359206    0.423545
     19          6           0      -23.526857   -1.711603    0.234285
     20          6           0      -26.146161    0.841311    1.191349
     21          6           0      -26.052304   -2.330273    0.286654
     22          8           0      -25.878425   -3.529534    0.243023
     23          6           0      -27.548931   -1.854848    0.354386
     24          7           0      -20.681408   -2.627936   -0.492146
     25          6           0      -21.687729   -3.433806   -0.329055
     26          6           0      -21.269378   -4.919185   -0.546242
     27          6           0      -19.787903   -4.852781   -0.869959
     28          6           0      -19.463427   -3.330851   -0.653472
     29          6           0      -21.709094   -5.812968    0.707161
     30          6           0      -19.448763   -5.398810   -2.273072
     31          6           0      -18.971335   -6.896203   -2.366714
     32          7           0      -18.865188   -0.376551   -0.613681
     33          6           0      -17.907221   -1.396002   -0.839522
     34          6           0      -16.630243   -0.850153   -1.101610
     35          6           0      -16.807286    0.546954   -0.718300
     36          6           0      -18.198320    0.732625   -0.475419
     37          6           0      -15.345694   -1.636178   -1.290619
     38          6           0      -16.048096    1.728629   -0.535345
     39          8           0      -14.860951    1.978286   -0.702763
     40          6           0      -17.185273    2.891059   -0.165832
     41          6           0      -16.693610    3.530205    1.099604
     42          8           0      -16.493079    2.924105    2.157375
     43          8           0      -16.346519    4.902581    0.923614
     44          6           0      -15.835818    5.605645    2.141869
     45          1           0      -23.920136    2.632621    1.161275
     46          1           0      -23.671692   -3.823645    0.299881
     47          1           0      -17.363117   -3.416612   -0.989974
     48          1           0      -19.502922    4.308987    1.478403
     49          1           0      -22.325224    4.449093    0.543839
     50          1           0      -21.009089    4.589919    2.990139
     51          1           0      -22.121526    3.167700    3.123839
     52          1           0      -22.628909    4.810190    2.760084
     53          1           0      -21.046546    4.835689   -1.112178
     54          1           0      -19.371839    4.568042   -1.279505
     55          1           0      -20.647285    6.975619   -0.827278
     56          1           0      -18.879969    6.701451   -0.621897
     57          1           0      -26.568844    0.462671    2.121917
     58          1           0      -26.889671    0.869867    0.393708
     59          1           0      -25.943069    1.882421    1.441717
     60          1           0      -27.780110   -1.757440    1.415443
     61          1           0      -28.211376   -2.653959    0.021407
     62          1           0      -27.670607   -0.882633   -0.121651
     63          1           0      -21.871001   -5.216710   -1.405299
     64          1           0      -19.183457   -5.327971   -0.098874
     65          1           0      -20.847539   -6.327853    1.132047
     66          1           0      -22.370824   -6.638147    0.443182
     67          1           0      -22.114138   -5.095622    1.422111
     68          1           0      -18.650034   -4.762890   -2.656451
     69          1           0      -20.330094   -5.231115   -2.892311
     70          1           0      -17.895541   -6.910232   -2.188335
     71          1           0      -19.223813   -7.476613   -3.254320
     72          1           0      -19.427124   -7.302423   -1.464381
     73          1           0      -15.362532   -1.884152   -2.351582
     74          1           0      -15.350700   -2.554353   -0.704417
     75          1           0      -14.438735   -1.190606   -0.879956
     76          1           0      -17.260729    3.585519   -1.003487
     77          1           0      -14.901337    5.170462    2.494240
     78          1           0      -16.487969    5.674738    3.012923
     79          1           0      -15.620669    6.577215    1.697054
     80         12           0       20.303719   -0.749042    0.188508
     81          6           0       19.356500    2.267618   -1.176944
     82          6           0       21.767363    1.056433    2.902598
     83          6           0       21.551161   -3.543734    1.370140
     84          6           0       19.007330   -2.451545   -2.565472
     85          7           0       20.484304    1.418359    0.720821
     86          6           0       19.995985    2.456781    0.036131
     87          6           0       20.246689    3.765202    0.854577
     88          6           0       21.148764    3.309237    2.091350
     89          6           0       21.190062    1.784652    1.871447
     90          6           0       22.594239    3.768280    2.096287
     91          6           0       18.976831    4.541592    1.234490
     92          6           0       19.085897    6.006630    0.846597
     93          1           0       18.300996    7.087566    1.603977
     94          7           0       21.425790   -1.172929    1.944542
     95          6           0       21.879846   -0.352044    2.936273
     96          6           0       22.522554   -1.055186    3.954814
     97          6           0       22.600395   -2.417655    3.499893
     98          6           0       21.822746   -2.439295    2.212901
     99          6           0       23.062811   -0.414577    5.225095
    100          6           0       23.333510   -3.593960    4.123751
    101          8           0       23.414552   -4.654393    3.473934
    102          6           0       24.045871   -3.478038    5.409228
    103          7           0       20.236574   -2.662767   -0.496449
    104          6           0       20.782679   -3.723859    0.196106
    105          6           0       20.624391   -5.119907   -0.513112
    106          6           0       19.558144   -4.723168   -1.621443
    107          6           0       19.608740   -3.184824   -1.583251
    108          6           0       21.863767   -5.873947   -1.138252
    109          6           0       18.119680   -5.413276   -1.577588
    110          6           0       17.167982   -4.865422   -0.547135
    111          7           0       19.505903   -0.270288   -1.571681
    112          6           0       19.013455   -1.021375   -2.621920
    113          6           0       18.470559   -0.221173   -3.642174
    114          6           0       18.559101    1.059364   -3.084149
    115          6           0       19.195081    1.003338   -1.809755
    116          6           0       17.855065   -0.795650   -4.846372
    117          6           0       18.322098    2.401096   -3.455678
    118          8           0       17.920215    2.822405   -4.542147
    119          6           0       18.806501    3.308126   -2.207629
    120          6           0       19.809758    4.251904   -2.668038
    121          8           0       20.962007    4.008559   -2.944987
    122          8           0       19.265032    5.446348   -2.863979
    123          6           0       20.061693    6.489092   -3.436540
    124          1           0       22.255855    1.619265    3.700218
    125          1           0       21.902816   -4.542833    1.634622
    126          1           0       18.616771   -3.023370   -3.409882
    127          1           0       20.871009    4.312352    0.148931
    128          1           0       20.698873    3.785791    2.963042
    129          1           0       22.852258    4.462588    1.296061
    130          1           0       23.259347    2.917642    1.949911
    131          1           0       22.867816    4.116498    3.092737
    132          1           0       18.695041    4.477427    2.285624
    133          1           0       18.140623    4.078314    0.711347
    134          1           0       18.668326    6.078789   -0.158312
    135          1           0       20.147241    6.249551    0.894387
    136          1           0       22.703592    0.607549    5.345205
    137          1           0       24.140802   -0.288734    5.121727
    138          1           0       22.909876   -1.062505    6.087364
    139          1           0       24.800183   -4.259669    5.506390
    140          1           0       23.310687   -3.657778    6.194250
    141          1           0       24.524124   -2.502289    5.491123
    142          1           0       20.066152   -5.832342    0.095101
    143          1           0       19.908028   -5.095547   -2.583452
    144          1           0       22.748294   -5.265982   -0.952413
    145          1           0       21.802177   -5.808906   -2.225293
    146          1           0       22.043495   -6.908215   -0.843421
    147          1           0       18.294373   -6.446846   -1.279730
    148          1           0       17.627677   -5.477287   -2.547373
    149          1           0       16.164458   -4.975763   -0.956583
    150          1           0       17.286068   -3.857350   -0.151686
    151          1           0       17.289443   -5.485570    0.341002
    152          1           0       17.370165   -1.768765   -4.773058
    153          1           0       18.445548   -0.738332   -5.759987
    154          1           0       17.081720   -0.055663   -5.050853
    155          1           0       17.937208    3.850134   -1.835763
    156          1           0       20.593432    7.067693   -2.680309
    157          1           0       19.372717    7.182494   -3.918482
    158          1           0       20.793228    6.061906   -4.122615
 ---------------------------------------------------------------------

 SCF Done:  E(RPBE1PBE) =  -4067.42135276     A.U. after   16 cycles

 Excitation energies and oscillator strengths:

 Excited State   1:      Singlet-A      1.8459 eV  671.69 nm  f=0.3660  <S**2>=0.000
     309 -> 315        0.17460
     311 -> 313        0.69211
     311 <- 313       -0.10443
 This state for optimization and/or second-order correction.
 Total Energy, E(TD-HF/TD-DFT) =  -4067.35351864
 Copying the excited state density for this state as the 1-particle RhoCI density.

 Excited State   2:      Singlet-A      1.8680 eV  663.71 nm  f=0.3929  <S**2>=0.000
     310 -> 316       -0.16546
     312 -> 314        0.69309
     312 <- 314       -0.11111

 Excited State   3:      Singlet-A      1.9577 eV  633.32 nm  f=0.0000  <S**2>=0.000
     312 -> 313        0.70710

 Excited State   4:      Singlet-A      2.0029 eV  619.04 nm  f=0.0000  <S**2>=0.000
     311 -> 314        0.70711

 Excited State   5:      Singlet-A      2.2119 eV  560.54 nm  f=0.1389  <S**2>=0.000
     309 -> 313        0.66068
     311 -> 315       -0.23959

 The electronic state is 1-A.
 Alpha  occ. eigenvalues --  -46.91407 -46.91073 -19.25383 -19.24914 -19.19776
 Alpha  occ. eigenvalues --  -19.19180 -19.18883 -19.18880 -19.18771 -19.18391
 Alpha  occ. eigenvalues --  -14.42145 -14.41809 -14.41647 -14.41211 -14.39739
 Alpha  occ. eigenvalues --  -14.39303 -14.39218 -14.38641 -10.36197 -10.35190
 Alpha  occ. eigenvalues --  -10.32297 -10.31913 -10.31816 -10.31666 -10.29191
 Alpha  occ. eigenvalues --  -10.29093 -10.29010 -10.28890 -10.28871 -10.28810
 Alpha  occ. eigenvalues --  -10.28779 -10.28493 -10.28395 -10.28378 -10.28355
 Alpha  occ. eigenvalues --  -10.28326 -10.27911 -10.27117 -10.26958 -10.26897
 Alpha  occ. eigenvalues --  -10.26860 -10.26768 -10.26761 -10.26363 -10.26103
 Alpha  occ. eigenvalues --  -10.26015 -10.25974 -10.25953 -10.25870 -10.25858
 Alpha  occ. eigenvalues --  -10.25849 -10.25792 -10.25763 -10.25637 -10.25491
 Alpha  occ. eigenvalues --  -10.25469 -10.25450 -10.25448 -10.25416 -10.25259
 Alpha  occ. eigenvalues --  -10.25169 -10.25145 -10.25029 -10.24962 -10.24894
 Alpha  occ. eigenvalues --  -10.24798 -10.24613 -10.24505 -10.24419 -10.24130
 Alpha  occ. eigenvalues --  -10.24107 -10.23937 -10.23888 -10.23797 -10.23631
 Alpha  occ. eigenvalues --  -10.23600 -10.23496 -10.23474 -10.23387 -10.23312
 Alpha  occ. eigenvalues --  -10.23239 -10.23192 -10.23019 -10.22776 -10.22420
 Alpha  occ. eigenvalues --  -10.22350  -3.13679  -3.13431  -1.86533  -1.86272
 Alpha  occ. eigenvalues --   -1.86046  -1.85923  -1.85824  -1.85659  -1.12661
 Alpha  occ. eigenvalues --   -1.08274  -1.05570  -1.03749  -1.03619  -1.03135
 Alpha  occ. eigenvalues --   -1.02539  -1.00750  -0.99806  -0.99256  -0.98746
 Alpha  occ. eigenvalues --   -0.98338  -0.98171  -0.97904  -0.97180  -0.96854
 Alpha  occ. eigenvalues --   -0.86624  -0.86415  -0.83635  -0.83579  -0.83245
 Alpha  occ. eigenvalues --   -0.82995  -0.82659  -0.82587  -0.82036  -0.81915
 Alpha  occ. eigenvalues --   -0.81860  -0.81753  -0.81039  -0.80751  -0.78834
 Alpha  occ. eigenvalues --   -0.78558  -0.78098  -0.77389  -0.77199  -0.76494
 Alpha  occ. eigenvalues --   -0.76480  -0.75733  -0.75526  -0.74944  -0.74605
 Alpha  occ. eigenvalues --   -0.74307  -0.72852  -0.72573  -0.71666  -0.71633
 Alpha  occ. eigenvalues --   -0.71197  -0.71192  -0.70242  -0.70218  -0.69599
 Alpha  occ. eigenvalues --   -0.69421  -0.67892  -0.67660  -0.66063  -0.65857
 Alpha  occ. eigenvalues --   -0.63971  -0.63842  -0.63382  -0.63276  -0.62599
 Alpha  occ. eigenvalues --   -0.62139  -0.61673  -0.61440  -0.60198  -0.59823
 Alpha  occ. eigenvalues --   -0.59739  -0.59488  -0.59400  -0.59248  -0.59115
 Alpha  occ. eigenvalues --   -0.58864  -0.56869  -0.56079  -0.54915  -0.54803
 Alpha  occ. eigenvalues --   -0.54561  -0.54279  -0.53950  -0.53552  -0.53246
 Alpha  occ. eigenvalues --   -0.53131  -0.52803  -0.52430  -0.52179  -0.51888
 Alpha  occ. eigenvalues --   -0.51102  -0.50831  -0.50579  -0.49636  -0.49548
 Alpha  occ. eigenvalues --   -0.49225  -0.49135  -0.48893  -0.48628  -0.48089
 Alpha  occ. eigenvalues --   -0.47862  -0.47769  -0.47732  -0.47384  -0.47279
 Alpha  occ. eigenvalues --   -0.47060  -0.46889  -0.46845  -0.46769  -0.46760
 Alpha  occ. eigenvalues --   -0.46674  -0.46612  -0.46356  -0.46227  -0.45845
 Alpha  occ. eigenvalues --   -0.45773  -0.45296  -0.44898  -0.44763  -0.44678
 Alpha  occ. eigenvalues --   -0.44489  -0.44454  -0.44259  -0.44201  -0.44047
 Alpha  occ. eigenvalues --   -0.43889  -0.43872  -0.43849  -0.43717  -0.43641
 Alpha  occ. eigenvalues --   -0.43517  -0.43174  -0.43050  -0.43040  -0.42871
 Alpha  occ. eigenvalues --   -0.42793  -0.42416  -0.42381  -0.42254  -0.41976
 Alpha  occ. eigenvalues --   -0.41907  -0.41792  -0.41671  -0.41603  -0.41576
 Alpha  occ. eigenvalues --   -0.41213  -0.41090  -0.40773  -0.40505  -0.40206
 Alpha  occ. eigenvalues --   -0.40179  -0.39997  -0.39862  -0.39847  -0.39673
 Alpha  occ. eigenvalues --   -0.39515  -0.39292  -0.39286  -0.39183  -0.38907
 Alpha  occ. eigenvalues --   -0.38837  -0.38737  -0.38642  -0.38379  -0.38285
 Alpha  occ. eigenvalues --   -0.38257  -0.38040  -0.37948  -0.37783  -0.37576
 Alpha  occ. eigenvalues --   -0.37498  -0.37353  -0.37041  -0.36860  -0.36839
 Alpha  occ. eigenvalues --   -0.36751  -0.36503  -0.36310  -0.36291  -0.36211
 Alpha  occ. eigenvalues --   -0.36079  -0.35914  -0.35831  -0.35732  -0.35366
 Alpha  occ. eigenvalues --   -0.35103  -0.34733  -0.34437  -0.34104  -0.33783
 Alpha  occ. eigenvalues --   -0.33616  -0.33091  -0.32818  -0.32711  -0.32303
 Alpha  occ. eigenvalues --   -0.32175  -0.32059  -0.31594  -0.31315  -0.31255
 Alpha  occ. eigenvalues --   -0.31136  -0.30795  -0.29728  -0.29412  -0.29201
 Alpha  occ. eigenvalues --   -0.28840  -0.28590  -0.28437  -0.27078  -0.27014
 Alpha  occ. eigenvalues --   -0.26048  -0.25832  -0.25724  -0.25511  -0.25469
 Alpha  occ. eigenvalues --   -0.25403  -0.25240  -0.25099  -0.21122  -0.21065
 Alpha  occ. eigenvalues --   -0.19155  -0.19064
 Alpha virt. eigenvalues --   -0.11551  -0.11469  -0.05250  -0.05006  -0.03994
 Alpha virt. eigenvalues --   -0.03684  -0.02052  -0.01877  -0.00014   0.00281
 Alpha virt. eigenvalues --    0.01124   0.01271   0.01305   0.01800   0.02222

 Mulliken charges:
               1
     1  Mg  11.999346
     2  C    6.027818
     3  C    5.998962
     4  C    5.979809
     5  C    5.998479
     6  N    7.015903
     7  C    5.964900
     8  C    6.011687
     9  C    5.987897
    10  C    6.025851
    11  C    5.995968
    12  C    6.002196
    13  C    6.000326
    14  H    0.995826
    15  N    6.991174
    16  C    6.034104
    17  C    6.020458
    18  C    6.017351
    19  C    6.027450
    20  C    5.995677
    21  C    6.009595
    22  O    8.030391
    23  C    5.998072
    24  N    6.992549
    25  C    6.027342
    26  C    5.998363
    27  C    6.003827
    28  C    5.976652
    29  C    5.997499
    30  C    6.003867
    31  C    5.998754
    32  N    7.000224
    33  C    5.968646
    34  C    5.974251
    35  C    5.993900
    36  C    5.971512
    37  C    6.000195
    38  C    5.985956
    39  O    7.969152
    40  C    5.992005
    41  C    5.995704
    42  O    7.996565
    43  O    7.997817
    44  C    6.001510
    45  H    1.013558
    46  H    1.002117
    47  H    0.988022
    48  H    1.002490
    49  H    1.002775
    50  H    1.014420
    51  H    0.997960
    52  H    1.003307
    53  H    0.990488
    54  H    1.007329
    55  H    0.996790
    56  H    1.004151
    57  H    1.017816
    58  H    1.016365
    59  H    1.015837
    60  H    1.008169
    61  H    1.013671
    62  H    1.004598
    63  H    0.996238
    64  H    1.000236
    65  H    1.007468
    66  H    0.999123
    67  H    0.994205
    68  H    1.005596
    69  H    0.990130
    70  H    1.001821
    71  H    0.995247
    72  H    0.994279
    73  H    0.985273
    74  H    0.983778
    75  H    0.987223
    76  H    0.994268
    77  H    0.999618
    78  H    0.993910
    79  H    0.996192
    80  Mg  12.000088
    81  C    5.999616
    82  C    6.000292
    83  C    6.000509
    84  C    5.999877
    85  N    6.999843
    86  C    6.000659
    87  C    5.999847
    88  C    6.000372
    89  C    5.999255
    90  C    6.000107
    91  C    5.999960
    92  C    5.999964
    93  H    1.000137
    94  N    7.000019
    95  C    5.999111
    96  C    5.999696
    97  C    5.999608
    98  C    5.999221
    99  C    6.000118
   100  C    5.999647
   101  O    7.999227
   102  C    6.000155
   103  N    7.000038
   104  C    5.999115
   105  C    6.000343
   106  C    5.999764
   107  C    6.000709
   108  C    6.000001
   109  C    5.999894
   110  C    5.999894
   111  N    7.000077
   112  C    6.000793
   113  C    6.000540
   114  C    6.000002
   115  C    6.000835
   116  C    5.999811
   117  C    6.000534
   118  O    8.000714
   119  C    6.000030
   120  C    6.000105
   121  O    8.000125
   122  O    8.000057
   123  C    5.999955
   124  H    0.999710
   125  H    0.999835
   126  H    1.000304
   127  H    0.999911
   128  H    0.999809
   129  H    0.999627
   130  H    1.000042
   131  H    0.999906
   132  H    1.000213
   133  H    0.999912
   134  H    0.999880
   135  H    1.000052
   136  H    0.999601
   137  H    0.999492
   138  H    0.999615
   139  H    0.999583
   140  H    0.999742
   141  H    0.999838
   142  H    0.999937
   143  H    1.000037
   144  H    1.000040
   145  H    0.999736
   146  H    0.999949
   147  H    1.000236
   148  H    0.999997
   149  H    1.000107
   150  H    1.000006
   151  H    1.000245
   152  H    1.000526
   153  H    1.000512
   154  H    1.000414
   155  H    1.000280
   156  H    1.000136
   157  H    1.000104
   158  H    1.000000
 Sum of Mulliken charges = 624.00000

 Dipole moment (field-independent basis, Debye):
    X=            -10.0704    Y=              0.4506    Z=              1.7237  Tot=             10.2268
 Quadrupole moment (field-independent basis, Debye-Ang):
   XX=            408.8236   YY=             -3.4178   ZZ=             -0.7187
   XY=             -2.7819   XZ=            -44.5157   YZ=             -1.4351

 Normal termination of Gaussian 16 at Fri Oct 15 11:12:35 2021.
