 Gaussian 16, Revision A.03,
 Gaussian 16:  ES64L-G16RevA.03 25-Dec-2016

 --------------------------------------------------------
 #p PBE1PBE/Def2SVP td=(nstates=5) density=(transition=1)
 --------------------------------------------------------

 --------------------------------
 TDDFT excited states in gaussian
 --------------------------------
 Symbolic Z-matrix:
 Charge =  0 Multiplicity = 1

                         Standard orientation:
 ---------------------------------------------------------------------
 Center     Atomic      Atomic             Coordinates (Angstroms)
 Number     Number       Type             X           Y           Z
 ---------------------------------------------------------------------
      1         12           0       20.506040   -0.803832    0.122752
      2          6           0       19.677280    2.159532   -1.599397
      3          6           0       21.935407    1.122387    2.584053
      4          6           0       21.400965   -3.580499    1.787009
      5          6           0       19.565270   -2.710504   -2.656230
      6          7           0       20.607720    1.358550    0.431053
      7          6           0       20.245925    2.407071   -0.302771
      8          6           0       20.526724    3.799796    0.298926
      9          6           0       21.501206    3.308147    1.475735
     10          6           0       21.376173    1.804152    1.471444
     11          6           0       22.933280    3.753212    1.304221
     12          6           0       19.204369    4.568901    0.855183
     13          6           0       19.348438    6.093576    0.847475
     14          1           0       18.316697    6.823557   -0.050582
     15          7           0       21.397459   -1.211455    2.044507
     16          6           0       21.968960   -0.225393    2.886326
     17          6           0       22.266515   -0.874391    4.143303
     18          6           0       22.099727   -2.243287    3.953825
     19          6           0       21.592429   -2.422708    2.557311
     20          6           0       22.883847   -0.167018    5.334926
     21          6           0       22.276642   -3.414940    4.892276
     22          8           0       21.992596   -4.517744    4.525578
     23          6           0       22.729317   -3.238797    6.307408
     24          7           0       20.680176   -2.830151   -0.414639
     25          6           0       21.007612   -3.810890    0.475675
     26          6           0       20.803243   -5.160568   -0.266861
     27          6           0       19.758449   -4.899339   -1.336950
     28          6           0       19.995118   -3.384390   -1.541126
     29          6           0       22.114927   -5.575368   -0.931894
     30          6           0       18.371335   -5.259645   -0.952109
     31          6           0       17.847733   -4.826830    0.394962
     32          7           0       19.738042   -0.423582   -1.750299
     33          6           0       19.407010   -1.271213   -2.790693
     34          6           0       18.882271   -0.469073   -3.906639
     35          6           0       18.953936    0.861086   -3.457620
     36          6           0       19.461612    0.834156   -2.187377
     37          6           0       18.441780   -0.974561   -5.212163
     38          6           0       18.578683    2.221208   -3.737174
     39          8           0       17.981943    2.728172   -4.732090
     40          6           0       19.029355    3.105741   -2.480374
     41          6           0       20.026062    4.108045   -3.002182
     42          8           0       20.940531    3.806254   -3.710256
     43          8           0       19.847948    5.443004   -2.548213
     44          6           0       21.004099    6.357276   -2.795682
     45          1           0       22.439911    1.713794    3.350217
     46          1           0       21.768685   -4.499380    2.249200
     47          1           0       19.094128   -3.246585   -3.483048
     48          1           0       20.954818    4.455108   -0.460652
     49          1           0       21.073153    3.758922    2.371948
     50          1           0       23.048951    4.642883    1.923048
     51          1           0       23.215394    3.880107    0.258821
     52          1           0       23.506545    2.991157    1.832078
     53          1           0       19.005334    4.265349    1.883435
     54          1           0       18.320274    4.267216    0.293159
     55          1           0       20.384286    6.210054    0.528135
     56          1           0       19.331399    6.512862    1.853280
     57          1           0       22.678995    0.887504    5.154133
     58          1           0       23.950574   -0.329717    5.183561
     59          1           0       22.441309   -0.480109    6.280786
     60          1           0       21.830977   -2.783506    6.724649
     61          1           0       23.565018   -2.551288    6.435097
     62          1           0       22.956738   -4.206414    6.756045
     63          1           0       20.531600   -6.003755    0.367290
     64          1           0       19.895346   -5.450292   -2.266847
     65          1           0       22.249749   -5.425624   -2.003157
     66          1           0       22.261752   -6.635171   -0.723914
     67          1           0       22.927084   -5.054148   -0.423831
     68          1           0       18.186457   -6.329477   -1.051810
     69          1           0       17.757484   -4.774222   -1.710598
     70          1           0       17.081535   -4.079869    0.185402
     71          1           0       18.472039   -4.389815    1.174860
     72          1           0       17.328072   -5.674039    0.842220
     73          1           0       19.321891   -1.315433   -5.757323
     74          1           0       17.927714   -0.123077   -5.657905
     75          1           0       17.799032   -1.849469   -5.105768
     76          1           0       18.097732    3.513007   -2.087111
     77          1           0       21.016013    6.678143   -3.837269
     78          1           0       21.967893    5.906086   -2.555456
     79          1           0       20.976584    7.313380   -2.273772
     80         12           0      -20.823190   -0.628993   -0.356021
     81          6           0      -18.927628    2.344267    0.069165
     82          6           0      -23.558775    1.226458    0.903304
     83          6           0      -22.594269   -3.368990   -0.350201
     84          6           0      -17.911656   -2.288606   -1.286205
     85          7           0      -21.205657    1.581813    0.424755
     86          6           0      -20.261628    2.578077    0.376188
     87          6           0      -20.815710    3.945292    0.739571
     88          6           0      -22.294234    3.513526    1.129173
     89          6           0      -22.389500    2.023460    0.766818
     90          6           0      -22.618835    3.909759    2.566479
     91          6           0      -20.752121    4.901208   -0.471918
     92          6           0      -20.442211    6.425064   -0.214347
     93          1           0      -20.683051    6.987522    1.206374
     94          7           0      -22.833270   -1.017946    0.125721
     95          6           0      -23.752399   -0.138124    0.698102
     96          6           0      -25.022186   -0.859363    0.879123
     97          6           0      -24.771583   -2.192202    0.416047
     98          6           0      -23.355109   -2.194830    0.002995
     99          6           0      -26.181433   -0.273674    1.488715
    100          6           0      -25.730730   -3.377350    0.368949
    101          8           0      -25.338220   -4.504965    0.029582
    102          6           0      -27.184135   -3.181134    0.554506
    103          7           0      -20.298125   -2.580878   -0.662252
    104          6           0      -21.241508   -3.525376   -0.705211
    105          6           0      -20.618216   -4.929588   -0.994302
    106          6           0      -19.185215   -4.537948   -1.476027
    107          6           0      -19.080139   -3.086593   -1.126408
    108          6           0      -20.692278   -5.931584    0.213579
    109          6           0      -19.202826   -4.751118   -3.037905
    110          6           0      -19.539070   -3.556659   -3.995808
    111          7           0      -18.849867   -0.112836   -0.677093
    112          6           0      -17.764617   -0.927697   -1.047146
    113          6           0      -16.536374   -0.094761   -1.044311
    114          6           0      -16.957864    1.139961   -0.564907
    115          6           0      -18.323970    1.146310   -0.378065
    116          6           0      -15.230167   -0.713155   -1.192084
    117          6           0      -16.425051    2.420360   -0.105849
    118          8           0      -15.252222    2.773178   -0.053977
    119          6           0      -17.694873    3.275127    0.361856
    120          6           0      -17.570761    3.688320    1.780869
    121          8           0      -18.029285    3.093235    2.751822
    122          8           0      -16.851895    4.896967    1.844796
    123          6           0      -16.522835    5.514815    3.109432
    124          1           0      -24.495380    1.770769    1.043806
    125          1           0      -23.133709   -4.318009   -0.389905
    126          1           0      -17.080596   -2.905826   -1.632973
    127          1           0      -20.293317    4.400198    1.581554
    128          1           0      -22.953779    4.153718    0.543930
    129          1           0      -23.507783    4.528657    2.683118
    130          1           0      -21.825930    4.417225    3.115968
    131          1           0      -22.880373    2.987495    3.086955
    132          1           0      -21.676915    4.859601   -1.047227
    133          1           0      -19.969416    4.419892   -1.059298
    134          1           0      -21.095214    7.051358   -0.821247
    135          1           0      -19.473456    6.598335   -0.682928
    136          1           0      -27.005876   -0.439451    0.794935
    137          1           0      -25.961655    0.724537    1.866132
    138          1           0      -26.236227   -0.867853    2.401428
    139          1           0      -27.466469   -2.964462    1.585212
    140          1           0      -27.708468   -4.099905    0.292453
    141          1           0      -27.466501   -2.280702    0.009748
    142          1           0      -21.311916   -5.244988   -1.773699
    143          1           0      -18.421748   -5.192287   -1.054492
    144          1           0      -21.558209   -6.584564    0.103775
    145          1           0      -20.667366   -5.328624    1.120704
    146          1           0      -19.777162   -6.521595    0.165908
    147          1           0      -19.735037   -5.674367   -3.267835
    148          1           0      -18.142959   -4.829063   -3.282021
    149          1           0      -20.214112   -4.004647   -4.724427
    150          1           0      -18.666572   -3.180018   -4.531205
    151          1           0      -20.066891   -2.715356   -3.547987
    152          1           0      -15.173505   -1.566760   -0.517827
    153          1           0      -14.500307    0.027488   -0.863627
    154          1           0      -14.987349   -0.868750   -2.242891
    155          1           0      -17.646872    4.159001   -0.274951
    156          1           0      -15.520839    5.271663    3.462120
    157          1           0      -17.349258    5.438682    3.816226
    158          1           0      -16.602437    6.569126    2.842956
 ---------------------------------------------------------------------

 SCF Done:  E(RPBE1PBE) =  -4067.37008206     A.U. after   16 cycles

 Excitation energies and oscillator strengths:

 Excited State   1:      Singlet-A      1.8210 eV  680.84 nm  f=0.0000  <S**2>=0.000
     312 -> 313        0.70711
 This state for optimization and/or second-order correction.
 Total Energy, E(TD-HF/TD-DFT) =  -4067.30315972
 Copying the excited state density for this state as the 1-particle RhoCI density.

 Excited State   2:      Singlet-A      1.8249 eV  679.41 nm  f=0.3585  <S**2>=0.000
     309 -> 315       -0.17191
     311 -> 313        0.69447
     311 <- 313       -0.10918

 Excited State   3:      Singlet-A      1.8853 eV  657.64 nm  f=0.3625  <S**2>=0.000
     310 -> 316       -0.18508
     312 -> 314        0.68867
     312 <- 314       -0.10057

 Excited State   4:      Singlet-A      2.1641 eV  572.92 nm  f=0.0000  <S**2>=0.000
     311 -> 314        0.70710

 Excited State   5:      Singlet-A      2.1781 eV  569.24 nm  f=0.1115  <S**2>=0.000
     309 -> 313        0.65714
     311 -> 315        0.25113

 The electronic state is 1-A.
 Alpha  occ. eigenvalues --  -46.92011 -46.91899 -19.25160 -19.24639 -19.20236
 Alpha  occ. eigenvalues --  -19.20068 -19.19641 -19.19025 -19.18801 -19.18711
 Alpha  occ. eigenvalues --  -14.42698 -14.41427 -14.41050 -14.40968 -14.39223
 Alpha  occ. eigenvalues --  -14.39191 -14.38872 -14.38704 -10.36444 -10.36441
 Alpha  occ. eigenvalues --  -10.32621 -10.32243 -10.32096 -10.32045 -10.29325
 Alpha  occ. eigenvalues --  -10.29013 -10.28926 -10.28804 -10.28673 -10.28536
 Alpha  occ. eigenvalues --  -10.28493 -10.28389 -10.28249 -10.28096 -10.28014
 Alpha  occ. eigenvalues --  -10.27930 -10.27850 -10.27759 -10.27478 -10.27124
 Alpha  occ. eigenvalues --  -10.26736 -10.26704 -10.26661 -10.26524 -10.26363
 Alpha  occ. eigenvalues --  -10.26341 -10.26302 -10.26157 -10.26102 -10.25942
 Alpha  occ. eigenvalues --  -10.25809 -10.25789 -10.25557 -10.25463 -10.25385
 Alpha  occ. eigenvalues --  -10.25229 -10.25111 -10.25096 -10.25007 -10.25000
 Alpha  occ. eigenvalues --  -10.24965 -10.24895 -10.24883 -10.24856 -10.24761
 Alpha  occ. eigenvalues --  -10.24653 -10.24563 -10.24505 -10.24422 -10.24242
 Alpha  occ. eigenvalues --  -10.24113 -10.23765 -10.23652 -10.23639 -10.23334
 Alpha  occ. eigenvalues --  -10.23241 -10.23123 -10.23054 -10.22795 -10.22758
 Alpha  occ. eigenvalues --  -10.22719 -10.22681 -10.22560 -10.22554 -10.22391
 Alpha  occ. eigenvalues --  -10.21885  -3.14089  -3.14024  -1.86953  -1.86873
 Alpha  occ. eigenvalues --   -1.86440  -1.86412  -1.86328  -1.86234  -1.10350
 Alpha  occ. eigenvalues --   -1.09376  -1.06615  -1.04492  -1.03757  -1.02222
 Alpha  occ. eigenvalues --   -1.02042  -1.01549  -0.99813  -0.99268  -0.98583
 Alpha  occ. eigenvalues --   -0.97956  -0.97821  -0.97754  -0.96398  -0.96172
 Alpha  occ. eigenvalues --   -0.87399  -0.86365  -0.84244  -0.83944  -0.83701
 Alpha  occ. eigenvalues --   -0.82974  -0.82904  -0.82721  -0.81976  -0.81580
 Alpha  occ. eigenvalues --   -0.81279  -0.81106  -0.80780  -0.80621  -0.78874
 Alpha  occ. eigenvalues --   -0.78324  -0.77884  -0.77605  -0.76807  -0.76671
 Alpha  occ. eigenvalues --   -0.76546  -0.76242  -0.75482  -0.75179  -0.74804
 Alpha  occ. eigenvalues --   -0.74208  -0.73077  -0.72967  -0.71656  -0.71485
 Alpha  occ. eigenvalues --   -0.71455  -0.71188  -0.70561  -0.70077  -0.69319
 Alpha  occ. eigenvalues --   -0.69120  -0.66990  -0.66620  -0.65751  -0.65736
 Alpha  occ. eigenvalues --   -0.64036  -0.63640  -0.63277  -0.63193  -0.62345
 Alpha  occ. eigenvalues --   -0.62286  -0.61382  -0.61029  -0.60184  -0.59424
 Alpha  occ. eigenvalues --   -0.59334  -0.59180  -0.58989  -0.58815  -0.58759
 Alpha  occ. eigenvalues --   -0.57877  -0.56373  -0.56108  -0.54754  -0.54752
 Alpha  occ. eigenvalues --   -0.54440  -0.53916  -0.53740  -0.53599  -0.53565
 Alpha  occ. eigenvalues --   -0.53053  -0.52566  -0.52443  -0.52269  -0.51741
 Alpha  occ. eigenvalues --   -0.50898  -0.50811  -0.50311  -0.50059  -0.49777
 Alpha  occ. eigenvalues --   -0.49225  -0.49050  -0.48797  -0.48633  -0.48479
 Alpha  occ. eigenvalues --   -0.48415  -0.48179  -0.48092  -0.47917  -0.47797
 Alpha  occ. eigenvalues --   -0.47696  -0.47680  -0.47342  -0.47104  -0.46884
 Alpha  occ. eigenvalues --   -0.46502  -0.46313  -0.46152  -0.46024  -0.45960
 Alpha  occ. eigenvalues --   -0.45931  -0.45457  -0.45338  -0.45317  -0.45139
 Alpha  occ. eigenvalues --   -0.44719  -0.44588  -0.44449  -0.44301  -0.44283
 Alpha  occ. eigenvalues --   -0.44072  -0.43945  -0.43825  -0.43702  -0.43650
 Alpha  occ. eigenvalues --   -0.43444  -0.43103  -0.43005  -0.42966  -0.42814
 Alpha  occ. eigenvalues --   -0.42674  -0.42374  -0.42217  -0.42169  -0.42049
 Alpha  occ. eigenvalues --   -0.41909  -0.41623  -0.41424  -0.41264  -0.41043
 Alpha  occ. eigenvalues --   -0.40894  -0.40740  -0.40738  -0.40407  -0.40187
 Alpha  occ. eigenvalues --   -0.40126  -0.39988  -0.39715  -0.39592  -0.39386
 Alpha  occ. eigenvalues --   -0.39105  -0.39050  -0.38957  -0.38850  -0.38793
 Alpha  occ. eigenvalues --   -0.38745  -0.38552  -0.38466  -0.38375  -0.38216
 Alpha  occ. eigenvalues --   -0.38143  -0.38002  -0.37819  -0.37740  -0.37627
 Alpha  occ. eigenvalues --   -0.37497  -0.37304  -0.37266  -0.36796  -0.36669
 Alpha  occ. eigenvalues --   -0.36643  -0.36385  -0.36041  -0.35901  -0.35864
 Alpha  occ. eigenvalues --   -0.35810  -0.35402  -0.35249  -0.35194  -0.35181
 Alpha  occ. eigenvalues --   -0.34800  -0.34689  -0.34430  -0.34208  -0.33439
 Alpha  occ. eigenvalues --   -0.33271  -0.32699  -0.32682  -0.32407  -0.32324
 Alpha  occ. eigenvalues --   -0.32134  -0.32088  -0.31694  -0.31431  -0.31198
 Alpha  occ. eigenvalues --   -0.31025  -0.30721  -0.29794  -0.29515  -0.29274
 Alpha  occ. eigenvalues --   -0.29059  -0.28792  -0.28677  -0.27108  -0.26595
 Alpha  occ. eigenvalues --   -0.25965  -0.25839  -0.25764  -0.25660  -0.25564
 Alpha  occ. eigenvalues --   -0.25277  -0.25238  -0.25100  -0.21010  -0.20759
 Alpha  occ. eigenvalues --   -0.18940  -0.18431
 Alpha virt. eigenvalues --   -0.11416  -0.10668  -0.05230  -0.05154  -0.03969
 Alpha virt. eigenvalues --   -0.03797  -0.02213  -0.02175   0.00059   0.00268
 Alpha virt. eigenvalues --    0.00549   0.00756   0.00957   0.01094   0.01370

 Mulliken charges:
               1
     1  Mg  12.000000
     2  C    6.000000
     3  C    6.000000
     4  C    6.000000
     5  C    6.000000
     6  N    7.000000
     7  C    6.000000
     8  C    6.000000
     9  C    6.000000
    10  C    6.000000
    11  C    6.000000
    12  C    6.000000
    13  C    6.000000
    14  H    1.000000
    15  N    7.000000
    16  C    6.000000
    17  C    6.000000
    18  C    6.000000
    19  C    6.000000
    20  C    6.000000
    21  C    6.000000
    22  O    8.000000
    23  C    6.000000
    24  N    7.000000
    25  C    6.000000
    26  C    6.000000
    27  C    6.000000
    28  C    6.000000
    29  C    6.000000
    30  C    6.000000
    31  C    6.000000
    32  N    7.000000
    33  C    6.000000
    34  C    6.000000
    35  C    6.000000
    36  C    6.000000
    37  C    6.000000
    38  C    6.000000
    39  O    8.000000
    40  C    6.000000
    41  C    6.000000
    42  O    8.000000
    43  O    8.000000
    44  C    6.000000
    45  H    1.000000
    46  H    1.000000
    47  H    1.000000
    48  H    1.000000
    49  H    1.000000
    50  H    1.000000
    51  H    1.000000
    52  H    1.000000
    53  H    1.000000
    54  H    1.000000
    55  H    1.000000
    56  H    1.000000
    57  H    1.000000
    58  H    1.000000
    59  H    1.000000
    60  H    1.000000
    61  H    1.000000
    62  H    1.000000
    63  H    1.000000
    64  H    1.000000
    65  H    1.000000
    66  H    1.000000
    67  H    1.000000
    68  H    1.000000
    69  H    1.000000
    70  H    1.000000
    71  H    1.000000
    72  H    1.000000
    73  H    1.000000
    74  H    1.000000
    75  H    1.000000
    76  H    1.000000
    77  H    1.000000
    78  H    1.000000
    79  H    1.000000
    80  Mg  12.000000
    81  C    6.000000
    82  C    6.000000
    83  C    6.000000
    84  C    6.000000
    85  N    7.000000
    86  C    6.000000
    87  C    6.000000
    88  C    6.000000
    89  C    6.000000
    90  C    6.000000
    91  C    6.000000
    92  C    6.000000
    93  H    1.000000
    94  N    7.000000
    95  C    6.000000
    96  C    6.000000
    97  C    6.000000
    98  C    6.000000
    99  C    6.000000
   100  C    6.000000
   101  O    8.000000
   102  C    6.000000
   103  N    7.000000
   104  C    6.000000
   105  C    6.000000
   106  C    6.000000
   107  C    6.000000
   108  C    6.000000
   109  C    6.000000
   110  C    6.000000
   111  N    7.000000
   112  C    6.000000
   113  C    6.000000
   114  C    6.000000
   115  C    6.000000
   116  C    6.000000
   117  C    6.000000
   118  O    8.000000
   119  C    6.000000
   120  C    6.000000
   121  O    8.000000
   122  O    8.000000
   123  C    6.000000
   124  H    1.000000
   125  H    1.000000
   126  H    1.000000
   127  H    1.000000
   128  H    1.000000
   129  H    1.000000
   130  H    1.000000
   131  H    1.000000
   132  H    1.000000
   133  H    1.000000
   134  H    1.000000
   135  H    1.000000
   136  H    1.000000
   137  H    1.000000
   138  H    1.000000
   139  H    1.000000
   140  H    1.000000
   141  H    1.000000
   142  H    1.000000
   143  H    1.000000
   144  H    1.000000
   145  H    1.000000
   146  H    1.000000
   147  H    1.000000
   148  H    1.000000
   149  H    1.000000
   150  H    1.000000
   151  H    1.000000
   152  H    1.000000
   153  H    1.000000
   154  H    1.000000
   155  H    1.000000
   156  H    1.000000
   157  H    1.000000
   158  H    1.000000
 Sum of Mulliken charges = 624.00000

 Dipole moment (field-independent basis, Debye):
    X=             -0.0000    Y=              0.0000    Z=              0.0000  Tot=              0.0000
 Quadrupole moment (field-independent basis, Debye-Ang):
   XX=              0.0000   YY=             -0.0000   ZZ=             -0.0000
   XY=              0.0000   XZ=             -0.0000   YZ=             -0.0000

 Normal termination of Gaussian 16 at Wed Oct 13 21:24:13 2021.
