 Gaussian 16, Revision A.03,
 Gaussian 16:  ES64L-G16RevA.03 25-Dec-2016

 --------------------------------------------------------
 #p PBE1PBE/Def2SVP td=(nstates=5) density=(transition=1)
 --------------------------------------------------------

 --------------------------------
 TDDFT excited states in gaussian
 --------------------------------
 Symbolic Z-matrix:
 Charge =  0 Multiplicity = 1

                         Standard orientation:
 ---------------------------------------------------------------------
 Center     Atomic      Atomic             Coordinates (Angstroms)
 Number     Number       Type             X           Y           Z
 ---------------------------------------------------------------------
      1         12           0       24.681928   -0.647640    0.494519
      2          6           0       25.190904    2.069425   -1.779401
      3          6           0       25.401932    1.528356    3.022305
      4          6           0       24.684543   -3.122181    2.477764
      5          6           0       25.121175   -2.800306   -2.210800
      6          7           0       25.211782    1.501755    0.494938
      7          6           0       25.314766    2.442056   -0.439084
      8          6           0       25.491815    3.875757    0.144465
      9          6           0       26.103016    3.494863    1.566910
     10          6           0       25.509353    2.105856    1.722310
     11          6           0       27.624093    3.381621    1.565909
     12          6           0       24.127891    4.630804    0.290568
     13          6           0       24.238743    6.137470    0.541611
     14          1           0       23.243091    7.020565   -0.046750
     15          7           0       24.516790   -0.712767    2.462091
     16          6           0       24.840930    0.271229    3.335001
     17          6           0       24.537032   -0.261266    4.680651
     18          6           0       24.188953   -1.701702    4.532062
     19          6           0       24.478678   -1.912417    3.136699
     20          6           0       24.545986    0.580194    5.919851
     21          6           0       23.686498   -2.728394    5.497243
     22          8           0       23.669974   -3.975535    5.216281
     23          6           0       23.291585   -2.238989    6.830497
     24          7           0       25.091396   -2.677644    0.231734
     25          6           0       24.962027   -3.544160    1.242376
     26          6           0       25.029795   -4.962131    0.757913
     27          6           0       24.989586   -4.886901   -0.836602
     28          6           0       24.987851   -3.346935   -1.000226
     29          6           0       26.262784   -5.762251    1.200133
     30          6           0       23.885714   -5.705841   -1.551600
     31          6           0       22.526994   -5.122788   -1.233753
     32          7           0       24.908814   -0.437531   -1.653834
     33          6           0       25.101059   -1.467402   -2.586080
     34          6           0       25.309680   -0.828654   -3.898538
     35          6           0       25.240349    0.537761   -3.634060
     36          6           0       25.029598    0.740298   -2.240197
     37          6           0       25.585967   -1.504463   -5.119759
     38          6           0       25.319854    1.874281   -4.200848
     39          8           0       25.392180    2.328709   -5.343546
     40          6           0       25.412680    2.921172   -3.004508
     41          6           0       24.424665    4.020507   -3.284864
     42          8           0       23.197063    3.796634   -3.269382
     43          8           0       25.062907    5.200823   -3.291365
     44          6           0       24.134685    6.337172   -3.534817
     45          1           0       25.838443    2.056582    3.872232
     46          1           0       24.583089   -4.007665    3.108687
     47          1           0       25.180255   -3.409964   -3.114282
     48          1           0       26.191193    4.506683   -0.404378
     49          1           0       25.739012    4.152954    2.355669
     50          1           0       28.028386    3.454887    0.556404
     51          1           0       27.843394    2.403174    1.993743
     52          1           0       28.067291    4.111331    2.244051
     53          1           0       23.644371    4.323306    1.217776
     54          1           0       23.494947    4.455996   -0.580151
     55          1           0       25.244560    6.503310    0.333282
     56          1           0       24.100569    6.317140    1.607832
     57          1           0       24.999284    1.554100    5.739364
     58          1           0       25.216816    0.095567    6.628957
     59          1           0       23.552723    0.674564    6.359004
     60          1           0       24.145291   -1.752345    7.302634
     61          1           0       22.874570   -3.098088    7.354804
     62          1           0       22.527277   -1.470338    6.712349
     63          1           0       24.174270   -5.537008    1.110076
     64          1           0       25.917255   -5.241653   -1.286329
     65          1           0       26.020033   -6.679428    1.737312
     66          1           0       26.889344   -5.108343    1.806036
     67          1           0       26.945762   -6.031675    0.394920
     68          1           0       23.884949   -6.734781   -1.193511
     69          1           0       24.002728   -5.731830   -2.635059
     70          1           0       22.284557   -5.579171   -0.274706
     71          1           0       21.802286   -5.409076   -1.996674
     72          1           0       22.582894   -4.045380   -1.077058
     73          1           0       24.971434   -1.023210   -5.880492
     74          1           0       25.361094   -2.568044   -5.043402
     75          1           0       26.653473   -1.309610   -5.221341
     76          1           0       26.438686    3.287421   -2.987366
     77          1           0       24.515384    6.883344   -4.397950
     78          1           0       24.051187    6.876701   -2.591238
     79          1           0       23.134008    6.076469   -3.881254
     80         12           0      -24.266343   -0.689523   -0.170178
     81          6           0      -25.721415    1.928202    1.618231
     82          6           0      -22.780097    1.505984   -2.182067
     83          6           0      -24.058638   -3.168246   -2.514936
     84          6           0      -25.883897   -2.948748    1.931178
     85          7           0      -24.121902    1.503997   -0.164733
     86          6           0      -24.772756    2.325066    0.650391
     87          6           0      -24.286465    3.796185    0.387567
     88          6           0      -23.440050    3.634261   -0.897768
     89          6           0      -23.449731    2.127003   -1.134350
     90          6           0      -24.095996    4.308581   -2.202974
     91          6           0      -23.444483    4.456395    1.571847
     92          6           0      -23.814665    5.881277    1.803331
     93          1           0      -22.723841    6.939842    1.856082
     94          7           0      -23.496935   -0.801302   -2.070890
     95          6           0      -22.889881    0.229333   -2.738327
     96          6           0      -22.185597   -0.318943   -3.905768
     97          6           0      -22.568717   -1.686565   -3.991492
     98          6           0      -23.459597   -1.911352   -2.841012
     99          6           0      -21.324982    0.555590   -4.872500
    100          6           0      -22.212998   -2.730433   -5.092676
    101          8           0      -22.587232   -3.897766   -5.081138
    102          6           0      -21.345736   -2.291628   -6.211408
    103          7           0      -24.884137   -2.687086   -0.301717
    104          6           0      -24.759138   -3.542015   -1.400898
    105          6           0      -25.564920   -4.841749   -1.141422
    106          6           0      -25.554339   -4.953466    0.446103
    107          6           0      -25.416078   -3.423278    0.685943
    108          6           0      -26.953276   -4.842808   -1.816560
    109          6           0      -24.418087   -5.709269    1.074342
    110          6           0      -23.063659   -5.083930    1.229547
    111          7           0      -25.380564   -0.623232    1.567565
    112          6           0      -26.010857   -1.602561    2.299885
    113          6           0      -26.744098   -1.048613    3.440433
    114          6           0      -26.751761    0.392705    3.165783
    115          6           0      -25.906715    0.564029    2.000952
    116          6           0      -27.499150   -1.790411    4.420064
    117          6           0      -27.260900    1.691341    3.589617
    118          8           0      -28.024302    2.011172    4.421818
    119          6           0      -26.528199    2.760525    2.623115
    120          6           0      -27.452750    3.785633    2.016554
    121          8           0      -28.008610    3.681445    0.927132
    122          8           0      -27.488087    4.900902    2.852961
    123          6           0      -28.314881    6.045477    2.429334
    124          1           0      -22.083075    2.053433   -2.820531
    125          1           0      -23.970539   -3.905237   -3.316368
    126          1           0      -26.282272   -3.710985    2.603498
    127          1           0      -25.111558    4.463116    0.136274
    128          1           0      -22.432667    4.049475   -0.868727
    129          1           0      -23.692391    5.319093   -2.269915
    130          1           0      -25.176890    4.441768   -2.166008
    131          1           0      -23.775106    3.733247   -3.072166
    132          1           0      -22.373894    4.432122    1.367820
    133          1           0      -23.510349    3.949605    2.534721
    134          1           0      -24.217114    5.867327    2.815850
    135          1           0      -24.585469    6.318695    1.169421
    136          1           0      -22.011810    0.902427   -5.644048
    137          1           0      -20.464791    0.005210   -5.254385
    138          1           0      -21.049364    1.528772   -4.464843
    139          1           0      -21.465224   -1.314385   -6.678926
    140          1           0      -21.415159   -3.007208   -7.030317
    141          1           0      -20.305997   -2.504913   -5.961668
    142          1           0      -24.925385   -5.620231   -1.556437
    143          1           0      -26.478755   -5.377752    0.837536
    144          1           0      -27.809512   -5.043231   -1.172488
    145          1           0      -26.986998   -5.412028   -2.745783
    146          1           0      -27.174973   -3.849644   -2.206769
    147          1           0      -24.184889   -6.654498    0.585667
    148          1           0      -24.729408   -5.995725    2.078996
    149          1           0      -23.102972   -4.702436    2.249693
    150          1           0      -22.855122   -4.231305    0.582922
    151          1           0      -22.298261   -5.852456    1.116939
    152          1           0      -27.373284   -1.251382    5.359231
    153          1           0      -27.033746   -2.771953    4.506429
    154          1           0      -28.552556   -1.816354    4.142955
    155          1           0      -25.810887    3.303044    3.238954
    156          1           0      -29.310596    5.655080    2.217269
    157          1           0      -27.932424    6.479663    1.505960
    158          1           0      -28.431526    6.901188    3.094562
 ---------------------------------------------------------------------

 SCF Done:  E(RPBE1PBE) =  -4067.38999396     A.U. after   16 cycles

 Excitation energies and oscillator strengths:

 Excited State   1:      Singlet-A      1.8399 eV  673.86 nm  f=0.2692  <S**2>=0.000
     310 -> 316        0.16922
     311 -> 313       -0.10174
     312 -> 314        0.68700
     312 <- 314       -0.11205
 This state for optimization and/or second-order correction.
 Total Energy, E(TD-HF/TD-DFT) =  -4067.32237861
 Copying the excited state density for this state as the 1-particle RhoCI density.

 Excited State   2:      Singlet-A      1.8414 eV  673.30 nm  f=0.4705  <S**2>=0.000
     309 -> 315       -0.16028
     311 -> 313        0.68573
     312 -> 314        0.10190
     311 <- 313       -0.10986

 Excited State   3:      Singlet-A      1.8878 eV  656.75 nm  f=0.0000  <S**2>=0.000
     312 -> 313        0.70711

 Excited State   4:      Singlet-A      2.0586 eV  602.28 nm  f=0.0000  <S**2>=0.000
     311 -> 314        0.70711

 Excited State   5:      Singlet-A      2.1929 eV  565.38 nm  f=0.0921  <S**2>=0.000
     309 -> 313        0.65167
     311 -> 315        0.24158

 The electronic state is 1-A.
 Alpha  occ. eigenvalues --  -46.91333 -46.91197 -19.26931 -19.25616 -19.20228
 Alpha  occ. eigenvalues --  -19.19760 -19.19457 -19.19311 -19.19017 -19.18422
 Alpha  occ. eigenvalues --  -14.41952 -14.41626 -14.41021 -14.40965 -14.39057
 Alpha  occ. eigenvalues --  -14.38925 -14.38907 -14.38261 -10.36612 -10.36114
 Alpha  occ. eigenvalues --  -10.32830 -10.32530 -10.32499 -10.31578 -10.29152
 Alpha  occ. eigenvalues --  -10.29010 -10.28963 -10.28913 -10.28641 -10.28390
 Alpha  occ. eigenvalues --  -10.28291 -10.28225 -10.28142 -10.28008 -10.27824
 Alpha  occ. eigenvalues --  -10.27650 -10.27551 -10.27353 -10.27265 -10.27222
 Alpha  occ. eigenvalues --  -10.27126 -10.27042 -10.26577 -10.26574 -10.26233
 Alpha  occ. eigenvalues --  -10.26088 -10.26068 -10.26025 -10.25964 -10.25941
 Alpha  occ. eigenvalues --  -10.25906 -10.25743 -10.25737 -10.25515 -10.25459
 Alpha  occ. eigenvalues --  -10.25386 -10.25382 -10.25355 -10.25279 -10.25260
 Alpha  occ. eigenvalues --  -10.25217 -10.25036 -10.24912 -10.24858 -10.24782
 Alpha  occ. eigenvalues --  -10.24459 -10.24312 -10.24289 -10.23800 -10.23789
 Alpha  occ. eigenvalues --  -10.23724 -10.23693 -10.23621 -10.23620 -10.23460
 Alpha  occ. eigenvalues --  -10.23434 -10.23281 -10.23165 -10.23141 -10.23101
 Alpha  occ. eigenvalues --  -10.23028 -10.22919 -10.22600 -10.22408 -10.22098
 Alpha  occ. eigenvalues --  -10.21951  -3.13611  -3.13514  -1.86456  -1.86336
 Alpha  occ. eigenvalues --   -1.85962  -1.85902  -1.85862  -1.85748  -1.11428
 Alpha  occ. eigenvalues --   -1.09825  -1.07623  -1.04940  -1.03373  -1.02197
 Alpha  occ. eigenvalues --   -1.01844  -1.01457  -0.99792  -0.99178  -0.98374
 Alpha  occ. eigenvalues --   -0.98213  -0.97905  -0.97573  -0.97094  -0.96796
 Alpha  occ. eigenvalues --   -0.86336  -0.86135  -0.83839  -0.83459  -0.83317
 Alpha  occ. eigenvalues --   -0.82850  -0.82597  -0.82366  -0.82209  -0.81980
 Alpha  occ. eigenvalues --   -0.81444  -0.81432  -0.81239  -0.80602  -0.79239
 Alpha  occ. eigenvalues --   -0.78453  -0.78230  -0.77853  -0.77163  -0.76879
 Alpha  occ. eigenvalues --   -0.76816  -0.76066  -0.75900  -0.75280  -0.74948
 Alpha  occ. eigenvalues --   -0.74715  -0.73110  -0.72572  -0.71555  -0.71551
 Alpha  occ. eigenvalues --   -0.71237  -0.71038  -0.70247  -0.70098  -0.69232
 Alpha  occ. eigenvalues --   -0.69226  -0.67247  -0.66684  -0.66094  -0.65918
 Alpha  occ. eigenvalues --   -0.64225  -0.63592  -0.63238  -0.62934  -0.62125
 Alpha  occ. eigenvalues --   -0.62099  -0.61560  -0.61145  -0.60125  -0.59712
 Alpha  occ. eigenvalues --   -0.59425  -0.59175  -0.59102  -0.58797  -0.58773
 Alpha  occ. eigenvalues --   -0.58551  -0.56881  -0.56360  -0.54951  -0.54749
 Alpha  occ. eigenvalues --   -0.54312  -0.54095  -0.53628  -0.53444  -0.53124
 Alpha  occ. eigenvalues --   -0.52755  -0.52304  -0.52111  -0.51808  -0.51621
 Alpha  occ. eigenvalues --   -0.50878  -0.50437  -0.50380  -0.50067  -0.50060
 Alpha  occ. eigenvalues --   -0.49841  -0.49819  -0.49323  -0.49085  -0.48597
 Alpha  occ. eigenvalues --   -0.48465  -0.48176  -0.47959  -0.47919  -0.47759
 Alpha  occ. eigenvalues --   -0.47560  -0.47473  -0.47108  -0.47055  -0.46984
 Alpha  occ. eigenvalues --   -0.46724  -0.46422  -0.46231  -0.46191  -0.46159
 Alpha  occ. eigenvalues --   -0.45881  -0.45865  -0.45749  -0.45089  -0.44983
 Alpha  occ. eigenvalues --   -0.44746  -0.44639  -0.44622  -0.44489  -0.44161
 Alpha  occ. eigenvalues --   -0.44135  -0.44135  -0.43869  -0.43826  -0.43714
 Alpha  occ. eigenvalues --   -0.43272  -0.43226  -0.43122  -0.43017  -0.42978
 Alpha  occ. eigenvalues --   -0.42653  -0.42443  -0.42342  -0.41956  -0.41650
 Alpha  occ. eigenvalues --   -0.41571  -0.41401  -0.41323  -0.41251  -0.41077
 Alpha  occ. eigenvalues --   -0.40999  -0.40880  -0.40792  -0.40560  -0.40437
 Alpha  occ. eigenvalues --   -0.40222  -0.39947  -0.39802  -0.39690  -0.39467
 Alpha  occ. eigenvalues --   -0.39309  -0.39229  -0.39151  -0.38952  -0.38906
 Alpha  occ. eigenvalues --   -0.38844  -0.38750  -0.38575  -0.38288  -0.38245
 Alpha  occ. eigenvalues --   -0.38179  -0.38088  -0.37865  -0.37694  -0.37508
 Alpha  occ. eigenvalues --   -0.37497  -0.37452  -0.36865  -0.36746  -0.36570
 Alpha  occ. eigenvalues --   -0.36407  -0.36375  -0.36315  -0.36178  -0.36013
 Alpha  occ. eigenvalues --   -0.35968  -0.35784  -0.35599  -0.35487  -0.35397
 Alpha  occ. eigenvalues --   -0.35167  -0.35017  -0.34341  -0.34039  -0.33617
 Alpha  occ. eigenvalues --   -0.33423  -0.32994  -0.32731  -0.32688  -0.32388
 Alpha  occ. eigenvalues --   -0.32262  -0.31929  -0.31713  -0.31621  -0.31438
 Alpha  occ. eigenvalues --   -0.31263  -0.30937  -0.29521  -0.29515  -0.29242
 Alpha  occ. eigenvalues --   -0.28924  -0.28421  -0.28360  -0.26796  -0.26727
 Alpha  occ. eigenvalues --   -0.26213  -0.26023  -0.26009  -0.25667  -0.25148
 Alpha  occ. eigenvalues --   -0.25121  -0.24959  -0.24835  -0.20983  -0.20905
 Alpha  occ. eigenvalues --   -0.18766  -0.18434
 Alpha virt. eigenvalues --   -0.11230  -0.10936  -0.05351  -0.04904  -0.04161
 Alpha virt. eigenvalues --   -0.03833  -0.02182  -0.01930  -0.00158   0.00156
 Alpha virt. eigenvalues --    0.00346   0.00416   0.00442   0.01413   0.02101

 Mulliken charges:
               1
     1  Mg  12.000129
     2  C    5.997857
     3  C    6.001792
     4  C    6.001691
     5  C    5.997865
     6  N    6.998846
     7  C    6.004685
     8  C    5.998755
     9  C    6.001253
    10  C    5.996054
    11  C    6.000124
    12  C    5.999472
    13  C    5.999845
    14  H    0.999983
    15  N    7.000412
    16  C    5.994614
    17  C    5.995803
    18  C    5.997782
    19  C    5.997014
    20  C    6.000804
    21  C    5.997919
    22  O    7.995456
    23  C    6.000737
    24  N    7.000128
    25  C    5.996150
    26  C    6.001659
    27  C    5.998259
    28  C    6.004559
    29  C    5.999919
    30  C    5.999461
    31  C    5.999832
    32  N    6.999532
    33  C    6.006441
    34  C    6.003279
    35  C    6.000873
    36  C    6.004169
    37  C    5.999501
    38  C    6.002279
    39  O    8.004435
    40  C    6.000237
    41  C    6.000501
    42  O    8.000646
    43  O    8.000263
    44  C    5.999810
    45  H    0.998831
    46  H    0.999135
    47  H    1.001319
    48  H    0.999890
    49  H    1.000052
    50  H    0.997731
    51  H    1.000640
    52  H    0.999500
    53  H    1.001939
    54  H    0.999201
    55  H    1.000097
    56  H    1.000950
    57  H    0.997144
    58  H    0.997055
    59  H    0.996966
    60  H    0.999217
    61  H    0.997866
    62  H    0.998957
    63  H    1.000146
    64  H    1.000588
    65  H    0.999996
    66  H    1.000758
    67  H    0.998613
    68  H    1.001312
    69  H    0.999601
    70  H    1.001645
    71  H    1.000240
    72  H    0.999611
    73  H    1.002320
    74  H    1.002438
    75  H    1.002674
    76  H    1.001118
    77  H    1.000426
    78  H    1.000854
    79  H    1.000348
    80  Mg  12.001611
    81  C    5.976552
    82  C    5.995585
    83  C    6.028200
    84  C    6.007045
    85  N    6.988384
    86  C    6.032858
    87  C    5.990469
    88  C    6.007918
    89  C    5.974290
    90  C    6.006236
    91  C    5.998381
    92  C    6.000040
    93  H    1.005125
    94  N    7.004457
    95  C    5.967405
    96  C    5.977907
    97  C    5.988912
    98  C    5.961120
    99  C    6.001322
   100  C    5.986230
   101  O    7.972694
   102  C    6.009427
   103  N    7.017818
   104  C    5.964337
   105  C    6.003969
   106  C    5.991991
   107  C    6.020380
   108  C    5.998892
   109  C    5.994556
   110  C    5.996864
   111  N    6.998293
   112  C    6.023284
   113  C    6.035520
   114  C    6.003460
   115  C    6.026808
   116  C    5.995379
   117  C    6.014751
   118  O    8.023630
   119  C    6.004145
   120  C    6.002654
   121  O    8.008696
   122  O    8.000111
   123  C    5.997998
   124  H    0.988681
   125  H    0.996212
   126  H    1.014099
   127  H    1.000216
   128  H    0.995700
   129  H    0.990329
   130  H    0.988212
   131  H    1.006914
   132  H    1.006981
   133  H    0.993321
   134  H    0.995498
   135  H    1.000999
   136  H    0.982914
   137  H    0.985360
   138  H    0.984025
   139  H    0.994443
   140  H    0.986195
   141  H    0.989356
   142  H    1.003588
   143  H    1.001900
   144  H    0.989547
   145  H    1.002964
   146  H    1.001541
   147  H    1.011426
   148  H    0.998633
   149  H    0.993658
   150  H    1.011831
   151  H    1.007167
   152  H    1.017771
   153  H    1.015317
   154  H    1.023186
   155  H    1.006155
   156  H    1.000793
   157  H    1.006031
   158  H    1.003332
 Sum of Mulliken charges = 624.00000

 Dipole moment (field-independent basis, Debye):
    X=             -5.0748    Y=             -0.1594    Z=              7.1678  Tot=              8.7839
 Quadrupole moment (field-independent basis, Debye-Ang):
   XX=            259.0720   YY=              3.2278   ZZ=             -8.8937
   XY=             12.1960   XZ=           -249.2179   YZ=             -5.8094

 Normal termination of Gaussian 16 at Thu Oct 14 14:05:38 2021.
