 Gaussian 16, Revision A.03,
 Gaussian 16:  ES64L-G16RevA.03 25-Dec-2016

 --------------------------------------------------------
 #p PBE1PBE/Def2SVP td=(nstates=5) density=(transition=1)
 --------------------------------------------------------

 --------------------------------
 TDDFT excited states in gaussian
 --------------------------------
 Symbolic Z-matrix:
 Charge =  0 Multiplicity = 1

                         Standard orientation:
 ---------------------------------------------------------------------
 Center     Atomic      Atomic             Coordinates (Angstroms)
 Number     Number       Type             X           Y           Z
 ---------------------------------------------------------------------
      1         12           0       -0.735716   -0.057329   -0.226342
      2          6           0        2.757139   -0.009276    0.125706
      3          6           0       -0.642444   -3.425182    0.210915
      4          6           0       -4.000645    0.109830   -0.133139
      5          6           0       -0.539237    3.512707    0.201030
      6          7           0        0.875068   -1.506200    0.053885
      7          6           0        2.215139   -1.276128    0.188460
      8          6           0        2.873960   -2.564787    0.702910
      9          6           0        1.922876   -3.633872    0.176423
     10          6           0        0.618864   -2.815934    0.243281
     11          6           0        2.250816   -4.071940   -1.269671
     12          6           0        2.973258   -2.572075    2.273248
     13          6           0        4.431335   -2.514939    2.946999
     14          1           0        4.787316   -1.328174    3.858555
     15          7           0       -2.131658   -1.452313    0.063757
     16          6           0       -1.901649   -2.801663    0.203991
     17          6           0       -3.164034   -3.472214    0.190464
     18          6           0       -4.205480   -2.511193   -0.030013
     19          6           0       -3.487502   -1.203711   -0.038721
     20          6           0       -3.316140   -5.023639    0.351243
     21          6           0       -5.724712   -2.861311   -0.229869
     22          8           0       -6.071456   -4.000218   -0.298840
     23          6           0       -6.636746   -1.788018   -0.606094
     24          7           0       -2.085312    1.562723    0.320576
     25          6           0       -3.353570    1.359803   -0.108764
     26          6           0       -4.062987    2.642573   -0.508958
     27          6           0       -3.100741    3.727958   -0.051092
     28          6           0       -1.797235    2.889344    0.187739
     29          6           0       -4.360331    2.723893   -2.051956
     30          6           0       -3.478903    4.638600    1.210208
     31          6           0       -3.873530    6.083446    1.060999
     32          7           0        0.744636    1.469430   -0.110275
     33          6           0        0.685370    2.858775    0.058452
     34          6           0        2.005156    3.438040    0.185877
     35          6           0        2.838552    2.346607    0.187744
     36          6           0        2.064027    1.150014    0.032583
     37          6           0        2.297873    4.869922    0.361792
     38          6           0        4.232385    1.940842    0.284091
     39          8           0        5.254247    2.636536    0.334532
     40          6           0        4.245936    0.433603    0.139658
     41          6           0        5.044148    0.106974   -1.117806
     42          8           0        4.705703    0.550969   -2.212568
     43          8           0        6.212852   -0.609602   -0.816813
     44          6           0        7.033146   -0.922405   -1.956369
     45          1           0       -0.563214   -4.513920    0.196776
     46          1           0       -5.052389    0.099767   -0.423330
     47          1           0       -0.484012    4.603361    0.217998
     48          1           0        3.905981   -2.549841    0.351575
     49          1           0        1.960182   -4.483111    0.857561
     50          1           0        2.250017   -5.150431   -1.115598
     51          1           0        3.238473   -3.653961   -1.466441
     52          1           0        1.553959   -3.762026   -2.048509
     53          1           0        2.539600   -3.510531    2.618488
     54          1           0        2.319633   -1.784985    2.648397
     55          1           0        5.127861   -2.429733    2.112573
     56          1           0        4.720382   -3.418453    3.482528
     57          1           0       -4.033196   -5.394274    1.083093
     58          1           0       -2.326613   -5.386186    0.631523
     59          1           0       -3.577993   -5.519559   -0.583593
     60          1           0       -6.678710   -0.962854    0.105184
     61          1           0       -7.635723   -2.209922   -0.715959
     62          1           0       -6.453847   -1.484469   -1.635961
     63          1           0       -5.050464    2.734425   -0.055451
     64          1           0       -2.865963    4.397804   -0.878325
     65          1           0       -5.381942    2.445184   -2.309716
     66          1           0       -3.587721    2.185125   -2.600482
     67          1           0       -4.249358    3.769698   -2.342024
     68          1           0       -2.850238    4.571750    2.097481
     69          1           0       -4.382485    4.084304    1.465365
     70          1           0       -4.912690    6.279619    1.323230
     71          1           0       -3.740757    6.392348    0.023871
     72          1           0       -3.189006    6.618123    1.719119
     73          1           0        1.421893    5.333769    0.816045
     74          1           0        2.402237    5.271049   -0.646727
     75          1           0        3.229012    5.022786    0.905502
     76          1           0        4.800608    0.119371    1.022759
     77          1           0        6.665314   -1.746588   -2.568118
     78          1           0        8.048198   -1.184543   -1.659278
     79          1           0        7.179793   -0.091791   -2.646255
 ---------------------------------------------------------------------

 SCF Done:  E(RPBE1PBE) =  -2033.69306825     A.U. after   16 cycles

 Excitation energies and oscillator strengths:

 Excited State   1:      Singlet-A      1.8786 eV  660.00 nm  f=0.3542  <S**2>=0.000
     155 ->158         0.18340
     156 ->157         0.69007
     156 <-157        -0.10096
 This state for optimization and/or second-order correction.
 Total Energy, E(TD-HF/TD-DFT) =  -2033.62403273
 Copying the excited state density for this state as the 1-particle RhoCI density.

 Excited State   2:      Singlet-A      2.2920 eV  540.95 nm  f=0.0587  <S**2>=0.000
     155 ->157         0.62319
     156 ->158        -0.32267

 Excited State   3:      Singlet-A      3.0414 eV  407.66 nm  f=0.0010  <S**2>=0.000
     152 ->157         0.33914
     152 ->159        -0.11971
     153 ->157         0.56324
     153 ->159        -0.15760
     154 ->157        -0.10983

 Excited State   4:      Singlet-A      3.1173 eV  397.73 nm  f=0.0005  <S**2>=0.000
     152 ->157         0.10212
     154 ->157         0.68944

 Excited State   5:      Singlet-A      3.2222 eV  384.78 nm  f=0.1136  <S**2>=0.000
     152 ->157         0.44557
     153 ->157        -0.31279
     155 ->157        -0.14375
     156 ->158        -0.40844

 The electronic state is 1-A.
 Alpha  occ. eigenvalues --  -46.92077 -19.26663 -19.20773 -19.19312 -19.18921
 Alpha  occ. eigenvalues --  -14.41640 -14.41593 -14.39076 -14.38997 -10.37260
 Alpha  occ. eigenvalues --  -10.32217 -10.31646 -10.28878 -10.28866 -10.28712
 Alpha  occ. eigenvalues --  -10.28530 -10.28398 -10.28337 -10.27438 -10.27287
 Alpha  occ. eigenvalues --  -10.26812 -10.26228 -10.25989 -10.25981 -10.25938
 Alpha  occ. eigenvalues --  -10.25714 -10.25687 -10.25596 -10.25379 -10.25284
 Alpha  occ. eigenvalues --  -10.24883 -10.24748 -10.24551 -10.24520 -10.24507
 Alpha  occ. eigenvalues --  -10.24378 -10.24081 -10.23738 -10.23611 -10.23350
 Alpha  occ. eigenvalues --  -10.23119 -10.23003 -10.22774  -3.14266  -1.87080
 Alpha  occ. eigenvalues --   -1.86656  -1.86489  -1.10704  -1.06704  -1.03781
 Alpha  occ. eigenvalues --   -1.02995  -0.99377  -0.98889  -0.97490  -0.96780
 Alpha  occ. eigenvalues --   -0.87374  -0.83448  -0.83265  -0.82860  -0.81918
 Alpha  occ. eigenvalues --   -0.81451  -0.79325  -0.78851  -0.78516  -0.76816
 Alpha  occ. eigenvalues --   -0.76758  -0.75376  -0.75182  -0.72342  -0.71527
 Alpha  occ. eigenvalues --   -0.70707  -0.70584  -0.69450  -0.67311  -0.66596
 Alpha  occ. eigenvalues --   -0.63407  -0.63027  -0.62493  -0.61229  -0.60260
 Alpha  occ. eigenvalues --   -0.60083  -0.59406  -0.59027  -0.57274  -0.54755
 Alpha  occ. eigenvalues --   -0.54611  -0.53736  -0.53481  -0.52958  -0.52285
 Alpha  occ. eigenvalues --   -0.50847  -0.50674  -0.49799  -0.49390  -0.48577
 Alpha  occ. eigenvalues --   -0.48137  -0.47689  -0.47609  -0.47439  -0.47167
 Alpha  occ. eigenvalues --   -0.46746  -0.46314  -0.45609  -0.45491  -0.45122
 Alpha  occ. eigenvalues --   -0.44746  -0.44459  -0.44152  -0.43898  -0.43670
 Alpha  occ. eigenvalues --   -0.43300  -0.43003  -0.42742  -0.42238  -0.41841
 Alpha  occ. eigenvalues --   -0.41301  -0.41026  -0.41001  -0.40854  -0.40710
 Alpha  occ. eigenvalues --   -0.40127  -0.40005  -0.39215  -0.39070  -0.38997
 Alpha  occ. eigenvalues --   -0.38640  -0.38380  -0.38136  -0.37898  -0.37391
 Alpha  occ. eigenvalues --   -0.37235  -0.37027  -0.36831  -0.36552  -0.36448
 Alpha  occ. eigenvalues --   -0.36010  -0.35804  -0.35592  -0.35279  -0.34934
 Alpha  occ. eigenvalues --   -0.33894  -0.32981  -0.32469  -0.32063  -0.31714
 Alpha  occ. eigenvalues --   -0.31595  -0.29911  -0.29703  -0.29010  -0.26956
 Alpha  occ. eigenvalues --   -0.26115  -0.25850  -0.25579  -0.25263  -0.21284
 Alpha  occ. eigenvalues --   -0.18669
 Alpha virt. eigenvalues --   -0.10879  -0.05643  -0.03703  -0.01878  -0.00870
 Alpha virt. eigenvalues --   -0.00351   0.00756   0.01772   0.03142   0.03952
 Alpha virt. eigenvalues --    0.04689   0.05256   0.06175   0.06473   0.06831

 Mulliken charges:
               1
     1  Mg  11.999600
     2  C    5.978666
     3  C    6.014574
     4  C    6.017292
     5  C    5.988077
     6  N    6.995061
     7  C    6.030161
     8  C    5.999978
     9  C    6.007514
    10  C    5.968248
    11  C    6.001386
    12  C    5.999270
    13  C    6.000378
    14  H    0.994436
    15  N    7.006152
    16  C    5.961269
    17  C    5.981683
    18  C    5.989004
    19  C    5.962917
    20  C    6.002656
    21  C    5.985830
    22  O    7.983129
    23  C    6.006774
    24  N    6.998545
    25  C    5.968577
    26  C    6.008360
    27  C    5.994589
    28  C    6.033458
    29  C    6.004064
    30  C    5.990891
    31  C    6.000748
    32  N    6.999033
    33  C    6.034674
    34  C    6.028979
    35  C    5.998747
    36  C    6.032438
    37  C    5.997890
    38  C    6.020640
    39  O    8.030220
    40  C    5.996989
    41  C    6.006798
    42  O    8.002269
    43  O    8.002473
    44  C    5.997043
    45  H    0.989203
    46  H    0.991996
    47  H    1.009374
    48  H    0.995534
    49  H    0.997796
    50  H    0.999081
    51  H    0.984591
    52  H    1.001036
    53  H    1.012304
    54  H    0.999585
    55  H    0.997848
    56  H    1.004100
    57  H    0.983295
    58  H    0.984554
    59  H    0.982281
    60  H    0.990243
    61  H    0.987504
    62  H    0.990715
    63  H    1.000552
    64  H    0.999380
    65  H    1.002276
    66  H    0.997008
    67  H    0.988692
    68  H    0.999577
    69  H    1.013270
    70  H    1.005566
    71  H    1.001625
    72  H    0.998205
    73  H    1.016544
    74  H    1.018549
    75  H    1.013747
    76  H    1.009865
    77  H    1.007022
    78  H    1.004460
    79  H    1.001138
 Sum of Mulliken charges = 312.00000

 Dipole moment (field-independent basis, Debye):
    X=              7.0772    Y=              7.0186    Z=              0.3250  Tot=              9.9727
 Quadrupole moment (field-independent basis, Debye-Ang):
   XX=             -6.0486   YY=             -0.0616   ZZ=              0.1480
   XY=             -5.7977   XZ=             -1.0618   YZ=              1.2871

 Normal termination of Gaussian 16 at Wed Oct 13 20:01:06 2021.
