 Gaussian 16, Revision A.03,
 Gaussian 16:  ES64L-G16RevA.03 25-Dec-2016

 --------------------------------------------------------
 #p PBE1PBE/Def2SVP td=(nstates=5) density=(transition=1)
 --------------------------------------------------------

 --------------------------------
 TDDFT excited states in gaussian
 --------------------------------
 Symbolic Z-matrix:
 Charge =  0 Multiplicity = 1

                         Standard orientation:
 ---------------------------------------------------------------------
 Center     Atomic      Atomic             Coordinates (Angstroms)
 Number     Number       Type             X           Y           Z
 ---------------------------------------------------------------------
      1         12           0       30.443664   -0.176388   -0.163900
      2          6           0       27.316943    0.377841    1.333675
      3          6           0       29.285222   -3.176162   -1.260121
      4          6           0       33.231481   -0.355896   -1.864560
      5          6           0       31.017949    3.331765    0.410086
      6          7           0       28.563466   -1.259853    0.087774
      7          6           0       27.419495   -0.849114    0.711840
      8          6           0       26.287981   -1.811905    0.321897
      9          6           0       27.057062   -3.094749    0.026068
     10          6           0       28.353813   -2.452908   -0.503476
     11          6           0       27.314528   -3.947290    1.289999
     12          6           0       25.493325   -1.287409   -0.930820
     13          6           0       23.960284   -0.846819   -0.733695
     14          1           0       23.556218    0.606933   -1.032701
     15          7           0       31.138866   -1.544058   -1.438641
     16          6           0       30.526105   -2.735861   -1.750801
     17          6           0       31.433890   -3.510424   -2.537830
     18          6           0       32.673593   -2.800205   -2.662351
     19          6           0       32.407143   -1.497504   -1.986294
     20          6           0       31.085034   -4.927681   -3.108434
     21          6           0       33.968454   -3.365168   -3.351367
     22          8           0       33.997274   -4.493947   -3.734935
     23          6           0       35.197339   -2.586813   -3.254866
     24          7           0       31.772864    1.370787   -0.928474
     25          6           0       32.995563    0.895918   -1.265363
     26          6           0       34.117196    1.885351   -0.997246
     27          6           0       33.373796    3.161991   -0.635077
     28          6           0       31.934239    2.601980   -0.363957
     29          6           0       35.087905    1.417006    0.149159
     30          6           0       33.366222    4.390396   -1.661780
     31          6           0       34.148506    5.650185   -1.403833
     32          7           0       29.527803    1.458760    0.847731
     33          6           0       29.866034    2.809563    1.000014
     34          6           0       28.834015    3.542788    1.700684
     35          6           0       27.836270    2.614597    1.870227
     36          6           0       28.253888    1.355143    1.326930
     37          6           0       28.879782    4.975385    2.036071
     38          6           0       26.497196    2.423046    2.405844
     39          8           0       25.784596    3.206357    3.045658
     40          6           0       26.156156    0.964705    2.182803
     41          6           0       25.956451    0.331905    3.555656
     42          8           0       26.855088    0.347178    4.393749
     43          8           0       24.635848   -0.108338    3.734935
     44          6           0       24.367759   -0.686648    5.024509
     45          1           0       28.938956   -4.191898   -1.460634
     46          1           0       34.257173   -0.579664   -2.161815
     47          1           0       31.248707    4.365348    0.677152
     48          1           0       25.569640   -1.798280    1.141975
     49          1           0       26.495794   -3.660525   -0.716512
     50          1           0       26.963395   -4.906704    0.911696
     51          1           0       26.669871   -3.509882    2.052875
     52          1           0       28.341468   -3.993266    1.652663
     53          1           0       25.462035   -2.100965   -1.655457
     54          1           0       26.088004   -0.499245   -1.391935
     55          1           0       23.764436   -0.965103    0.332291
     56          1           0       23.235638   -1.483376   -1.240015
     57          1           0       31.269924   -5.113079   -4.166068
     58          1           0       30.019352   -5.063261   -2.921079
     59          1           0       31.600137   -5.731362   -2.581948
     60          1           0       35.128486   -1.582888   -3.674351
     61          1           0       35.988881   -3.130742   -3.770260
     62          1           0       35.585067   -2.623018   -2.237724
     63          1           0       34.779420    2.010628   -1.854557
     64          1           0       33.721789    3.541895    0.325497
     65          1           0       36.002931    0.955693   -0.221957
     66          1           0       34.534874    0.817420    0.872160
     67          1           0       35.397783    2.313135    0.688688
     68          1           0       32.412218    4.692333   -2.092651
     69          1           0       33.877124    3.854071   -2.461871
     70          1           0       34.968384    5.804025   -2.104715
     71          1           0       34.583683    5.610956   -0.404951
     72          1           0       33.407632    6.446023   -1.476789
     73          1           0       29.543914    5.461936    1.321203
     74          1           0       29.350447    5.028838    3.018172
     75          1           0       27.880088    5.403352    2.094924
     76          1           0       25.202409    1.025190    1.660331
     77          1           0       24.741688   -1.702747    5.153098
     78          1           0       23.299004   -0.719725    5.234219
     79          1           0       24.771122   -0.120543    5.863670
     80         12           0      -29.646669    0.555283   -0.699700
     81          6           0      -28.693847   -2.234714    1.252990
     82          6           0      -29.141934    2.531000    2.051820
     83          6           0      -31.145701    3.026158   -2.316952
     84          6           0      -30.567619   -1.664418   -3.244545
     85          7           0      -29.145699    0.157040    1.463303
     86          6           0      -28.690779   -1.061954    1.973051
     87          6           0      -28.037088   -0.842540    3.359697
     88          6           0      -28.213741    0.701175    3.600894
     89          6           0      -28.844592    1.223544    2.280423
     90          6           0      -28.836851    1.130132    4.917798
     91          6           0      -26.581998   -1.311675    3.514210
     92          6           0      -26.358867   -2.294168    4.696583
     93          1           0      -25.312264   -1.872499    5.703952
     94          7           0      -29.995949    2.539000   -0.202620
     95          6           0      -29.759327    3.182975    0.976247
     96          6           0      -30.029394    4.586104    0.771131
     97          6           0      -30.768837    4.727005   -0.480275
     98          6           0      -30.660293    3.378845   -1.016294
     99          6           0      -29.807499    5.691146    1.928790
    100          6           0      -31.663685    5.780295   -0.975304
    101          8           0      -32.231498    5.818774   -2.029515
    102          6           0      -31.903743    6.950584   -0.026190
    103          7           0      -30.901568    0.596679   -2.458976
    104          6           0      -31.343920    1.773068   -2.944397
    105          6           0      -31.872702    1.605603   -4.370815
    106          6           0      -31.353119    0.213540   -4.764418
    107          6           0      -30.869905   -0.332315   -3.439309
    108          6           0      -33.467063    1.692765   -4.416019
    109          6           0      -30.112103    0.398957   -5.777843
    110          6           0      -28.794140    0.918706   -5.141399
    111          7           0      -29.560186   -1.525015   -1.080371
    112          6           0      -29.953625   -2.247864   -2.141455
    113          6           0      -29.660755   -3.630668   -1.875735
    114          6           0      -29.130159   -3.659033   -0.599689
    115          6           0      -29.136516   -2.354610   -0.098062
    116          6           0      -29.892507   -4.844595   -2.755197
    117          6           0      -28.648873   -4.616427    0.399840
    118          8           0      -28.569899   -5.804249    0.540580
    119          6           0      -28.270765   -3.729322    1.615353
    120          6           0      -29.088836   -4.234247    2.745918
    121          8           0      -30.288569   -4.318722    2.665556
    122          8           0      -28.334344   -4.665271    3.825216
    123          6           0      -29.061493   -5.457748    4.872585
    124          1           0      -28.781390    3.170825    2.860109
    125          1           0      -31.544524    3.827868   -2.942600
    126          1           0      -30.622701   -2.397713   -4.051861
    127          1           0      -28.656086   -1.325119    4.116329
    128          1           0      -27.220836    1.137077    3.713197
    129          1           0      -29.343448    0.297480    5.403558
    130          1           0      -29.525809    1.970046    4.824964
    131          1           0      -28.002234    1.380779    5.572058
    132          1           0      -25.818729   -0.557756    3.706969
    133          1           0      -26.234984   -1.797676    2.602633
    134          1           0      -26.209750   -3.315016    4.344977
    135          1           0      -27.280989   -2.322395    5.275699
    136          1           0      -29.266249    6.528738    1.488941
    137          1           0      -29.198213    5.384324    2.778086
    138          1           0      -30.678011    6.073735    2.461593
    139          1           0      -30.909881    7.382565    0.093304
    140          1           0      -32.271689    6.491285    0.890741
    141          1           0      -32.546769    7.736158   -0.424251
    142          1           0      -31.438980    2.309345   -5.082055
    143          1           0      -32.036644   -0.538474   -5.159213
    144          1           0      -33.733396    2.078047   -5.400610
    145          1           0      -33.975402    2.337624   -3.698388
    146          1           0      -33.789129    0.655232   -4.328497
    147          1           0      -30.353374    1.035998   -6.628540
    148          1           0      -29.773728   -0.579092   -6.120205
    149          1           0      -28.014864    1.205607   -5.846662
    150          1           0      -28.389227    0.114553   -4.526794
    151          1           0      -29.051622    1.758251   -4.494844
    152          1           0      -29.329122   -4.838105   -3.688010
    153          1           0      -30.954761   -4.788296   -2.991559
    154          1           0      -29.756010   -5.784402   -2.220221
    155          1           0      -27.223157   -3.976704    1.785940
    156          1           0      -28.642430   -4.981132    5.758769
    157          1           0      -28.799780   -6.515682    4.866221
    158          1           0      -30.150671   -5.455246    4.906673
 ---------------------------------------------------------------------

 SCF Done:  E(RPBE1PBE) =  -4067.38931982     A.U. after   16 cycles

 Excitation energies and oscillator strengths:

 Excited State   1:      Singlet-A      1.8678 eV  663.79 nm  f=0.0000  <S**2>=0.000
     312 -> 313        0.70711
 This state for optimization and/or second-order correction.
 Total Energy, E(TD-HF/TD-DFT) =  -4067.32067830
 Copying the excited state density for this state as the 1-particle RhoCI density.

 Excited State   2:      Singlet-A      1.8679 eV  663.76 nm  f=0.3793  <S**2>=0.000
     310 -> 316        0.16810
     311 -> 313        0.69459
     311 <- 313       -0.11167

 Excited State   3:      Singlet-A      1.8785 eV  660.01 nm  f=0.3602  <S**2>=0.000
     309 -> 315        0.18355
     312 -> 314        0.68998
     312 <- 314       -0.10093

 Excited State   4:      Singlet-A      2.2015 eV  563.18 nm  f=0.0000  <S**2>=0.000
     311 -> 314        0.70711

 Excited State   5:      Singlet-A      2.2023 eV  562.97 nm  f=0.1276  <S**2>=0.000
     310 -> 313        0.66413
     311 -> 316       -0.22444

 The electronic state is 1-A.
 Alpha  occ. eigenvalues --  -46.92936 -46.92084 -19.26670 -19.25771 -19.20780
 Alpha  occ. eigenvalues --  -19.19783 -19.19463 -19.19318 -19.18928 -19.18639
 Alpha  occ. eigenvalues --  -14.41696 -14.41647 -14.41599 -14.41388 -14.39440
 Alpha  occ. eigenvalues --  -14.39082 -14.39003 -14.38871 -10.37267 -10.35780
 Alpha  occ. eigenvalues --  -10.32277 -10.32223 -10.31653 -10.31501 -10.29236
 Alpha  occ. eigenvalues --  -10.29024 -10.28885 -10.28873 -10.28720 -10.28542
 Alpha  occ. eigenvalues --  -10.28537 -10.28514 -10.28466 -10.28405 -10.28344
 Alpha  occ. eigenvalues --  -10.27971 -10.27712 -10.27444 -10.27426 -10.27294
 Alpha  occ. eigenvalues --  -10.27005 -10.26819 -10.26807 -10.26533 -10.26235
 Alpha  occ. eigenvalues --  -10.25995 -10.25988 -10.25944 -10.25851 -10.25847
 Alpha  occ. eigenvalues --  -10.25827 -10.25744 -10.25721 -10.25694 -10.25603
 Alpha  occ. eigenvalues --  -10.25553 -10.25387 -10.25386 -10.25336 -10.25291
 Alpha  occ. eigenvalues --  -10.24891 -10.24890 -10.24761 -10.24754 -10.24717
 Alpha  occ. eigenvalues --  -10.24558 -10.24527 -10.24514 -10.24384 -10.24221
 Alpha  occ. eigenvalues --  -10.24207 -10.24114 -10.24088 -10.23944 -10.23744
 Alpha  occ. eigenvalues --  -10.23618 -10.23569 -10.23494 -10.23440 -10.23356
 Alpha  occ. eigenvalues --  -10.23126 -10.23041 -10.23009 -10.22781 -10.22710
 Alpha  occ. eigenvalues --  -10.22368  -3.14924  -3.14273  -1.87746  -1.87311
 Alpha  occ. eigenvalues --   -1.87139  -1.87087  -1.86662  -1.86496  -1.10711
 Alpha  occ. eigenvalues --   -1.10401  -1.06710  -1.06403  -1.05848  -1.03788
 Alpha  occ. eigenvalues --   -1.03003  -1.02423  -0.99821  -0.99384  -0.98971
 Alpha  occ. eigenvalues --   -0.98896  -0.98540  -0.97497  -0.96787  -0.96615
 Alpha  occ. eigenvalues --   -0.87381  -0.86697  -0.83455  -0.83272  -0.83188
 Alpha  occ. eigenvalues --   -0.83077  -0.82867  -0.82583  -0.82086  -0.81924
 Alpha  occ. eigenvalues --   -0.81458  -0.80863  -0.80613  -0.79332  -0.78858
 Alpha  occ. eigenvalues --   -0.78717  -0.78523  -0.77763  -0.76823  -0.76765
 Alpha  occ. eigenvalues --   -0.76764  -0.75490  -0.75383  -0.75190  -0.75189
 Alpha  occ. eigenvalues --   -0.74429  -0.72677  -0.72349  -0.71704  -0.71534
 Alpha  occ. eigenvalues --   -0.71048  -0.70713  -0.70591  -0.70453  -0.69592
 Alpha  occ. eigenvalues --   -0.69457  -0.67556  -0.67317  -0.66602  -0.66235
 Alpha  occ. eigenvalues --   -0.63696  -0.63637  -0.63413  -0.63034  -0.62515
 Alpha  occ. eigenvalues --   -0.62500  -0.61635  -0.61236  -0.60267  -0.60090
 Alpha  occ. eigenvalues --   -0.59913  -0.59842  -0.59651  -0.59412  -0.59061
 Alpha  occ. eigenvalues --   -0.59034  -0.57281  -0.56841  -0.55022  -0.54762
 Alpha  occ. eigenvalues --   -0.54618  -0.54275  -0.53858  -0.53742  -0.53488
 Alpha  occ. eigenvalues --   -0.53360  -0.52965  -0.52618  -0.52291  -0.52161
 Alpha  occ. eigenvalues --   -0.50853  -0.50680  -0.50619  -0.49901  -0.49806
 Alpha  occ. eigenvalues --   -0.49712  -0.49398  -0.49225  -0.48667  -0.48584
 Alpha  occ. eigenvalues --   -0.48144  -0.48019  -0.47696  -0.47616  -0.47564
 Alpha  occ. eigenvalues --   -0.47446  -0.47174  -0.47093  -0.46940  -0.46753
 Alpha  occ. eigenvalues --   -0.46702  -0.46547  -0.46321  -0.46128  -0.45723
 Alpha  occ. eigenvalues --   -0.45616  -0.45498  -0.45332  -0.45129  -0.44752
 Alpha  occ. eigenvalues --   -0.44648  -0.44465  -0.44392  -0.44159  -0.44070
 Alpha  occ. eigenvalues --   -0.44035  -0.43922  -0.43905  -0.43677  -0.43656
 Alpha  occ. eigenvalues --   -0.43307  -0.43069  -0.43010  -0.42939  -0.42749
 Alpha  occ. eigenvalues --   -0.42563  -0.42265  -0.42245  -0.42042  -0.41847
 Alpha  occ. eigenvalues --   -0.41667  -0.41308  -0.41103  -0.41033  -0.41008
 Alpha  occ. eigenvalues --   -0.40901  -0.40861  -0.40781  -0.40716  -0.40601
 Alpha  occ. eigenvalues --   -0.40315  -0.40134  -0.40092  -0.40012  -0.39812
 Alpha  occ. eigenvalues --   -0.39320  -0.39222  -0.39077  -0.39004  -0.38918
 Alpha  occ. eigenvalues --   -0.38647  -0.38505  -0.38387  -0.38162  -0.38142
 Alpha  occ. eigenvalues --   -0.38104  -0.37905  -0.37811  -0.37717  -0.37398
 Alpha  occ. eigenvalues --   -0.37342  -0.37242  -0.37145  -0.37033  -0.36983
 Alpha  occ. eigenvalues --   -0.36871  -0.36838  -0.36559  -0.36455  -0.36320
 Alpha  occ. eigenvalues --   -0.36301  -0.36017  -0.35810  -0.35740  -0.35599
 Alpha  occ. eigenvalues --   -0.35285  -0.35243  -0.34941  -0.34678  -0.33998
 Alpha  occ. eigenvalues --   -0.33900  -0.33303  -0.33055  -0.32988  -0.32825
 Alpha  occ. eigenvalues --   -0.32476  -0.32105  -0.32071  -0.31721  -0.31602
 Alpha  occ. eigenvalues --   -0.31362  -0.31197  -0.29917  -0.29710  -0.29601
 Alpha  occ. eigenvalues --   -0.29121  -0.29017  -0.28749  -0.27244  -0.26963
 Alpha  occ. eigenvalues --   -0.26154  -0.26121  -0.26000  -0.25857  -0.25755
 Alpha  occ. eigenvalues --   -0.25586  -0.25269  -0.25120  -0.21291  -0.21134
 Alpha  occ. eigenvalues --   -0.19196  -0.18676
 Alpha virt. eigenvalues --   -0.11593  -0.10886  -0.05650  -0.05004  -0.03710
 Alpha virt. eigenvalues --   -0.03692  -0.01937  -0.01884  -0.01129  -0.00878
 Alpha virt. eigenvalues --   -0.00358   0.00749   0.00809   0.01151   0.01764

 Mulliken charges:
               1
     1  Mg  12.000000
     2  C    6.000000
     3  C    6.000000
     4  C    6.000000
     5  C    6.000000
     6  N    7.000000
     7  C    6.000000
     8  C    6.000000
     9  C    6.000000
    10  C    6.000000
    11  C    6.000000
    12  C    6.000000
    13  C    6.000000
    14  H    1.000000
    15  N    7.000000
    16  C    6.000000
    17  C    6.000000
    18  C    6.000000
    19  C    6.000000
    20  C    6.000000
    21  C    6.000000
    22  O    8.000000
    23  C    6.000000
    24  N    7.000000
    25  C    6.000000
    26  C    6.000000
    27  C    6.000000
    28  C    6.000000
    29  C    6.000000
    30  C    6.000000
    31  C    6.000000
    32  N    7.000000
    33  C    6.000000
    34  C    6.000000
    35  C    6.000000
    36  C    6.000000
    37  C    6.000000
    38  C    6.000000
    39  O    8.000000
    40  C    6.000000
    41  C    6.000000
    42  O    8.000000
    43  O    8.000000
    44  C    6.000000
    45  H    1.000000
    46  H    1.000000
    47  H    1.000000
    48  H    1.000000
    49  H    1.000000
    50  H    1.000000
    51  H    1.000000
    52  H    1.000000
    53  H    1.000000
    54  H    1.000000
    55  H    1.000000
    56  H    1.000000
    57  H    1.000000
    58  H    1.000000
    59  H    1.000000
    60  H    1.000000
    61  H    1.000000
    62  H    1.000000
    63  H    1.000000
    64  H    1.000000
    65  H    1.000000
    66  H    1.000000
    67  H    1.000000
    68  H    1.000000
    69  H    1.000000
    70  H    1.000000
    71  H    1.000000
    72  H    1.000000
    73  H    1.000000
    74  H    1.000000
    75  H    1.000000
    76  H    1.000000
    77  H    1.000000
    78  H    1.000000
    79  H    1.000000
    80  Mg  12.000000
    81  C    6.000000
    82  C    6.000000
    83  C    6.000000
    84  C    6.000000
    85  N    7.000000
    86  C    6.000000
    87  C    6.000000
    88  C    6.000000
    89  C    6.000000
    90  C    6.000000
    91  C    6.000000
    92  C    6.000000
    93  H    1.000000
    94  N    7.000000
    95  C    6.000000
    96  C    6.000000
    97  C    6.000000
    98  C    6.000000
    99  C    6.000000
   100  C    6.000000
   101  O    8.000000
   102  C    6.000000
   103  N    7.000000
   104  C    6.000000
   105  C    6.000000
   106  C    6.000000
   107  C    6.000000
   108  C    6.000000
   109  C    6.000000
   110  C    6.000000
   111  N    7.000000
   112  C    6.000000
   113  C    6.000000
   114  C    6.000000
   115  C    6.000000
   116  C    6.000000
   117  C    6.000000
   118  O    8.000000
   119  C    6.000000
   120  C    6.000000
   121  O    8.000000
   122  O    8.000000
   123  C    6.000000
   124  H    1.000000
   125  H    1.000000
   126  H    1.000000
   127  H    1.000000
   128  H    1.000000
   129  H    1.000000
   130  H    1.000000
   131  H    1.000000
   132  H    1.000000
   133  H    1.000000
   134  H    1.000000
   135  H    1.000000
   136  H    1.000000
   137  H    1.000000
   138  H    1.000000
   139  H    1.000000
   140  H    1.000000
   141  H    1.000000
   142  H    1.000000
   143  H    1.000000
   144  H    1.000000
   145  H    1.000000
   146  H    1.000000
   147  H    1.000000
   148  H    1.000000
   149  H    1.000000
   150  H    1.000000
   151  H    1.000000
   152  H    1.000000
   153  H    1.000000
   154  H    1.000000
   155  H    1.000000
   156  H    1.000000
   157  H    1.000000
   158  H    1.000000
 Sum of Mulliken charges = 624.00000

 Dipole moment (field-independent basis, Debye):
    X=              0.0000    Y=             -0.0000    Z=             -0.0000  Tot=              0.0000
 Quadrupole moment (field-independent basis, Debye-Ang):
   XX=             -0.0000   YY=             -0.0000   ZZ=              0.0000
   XY=              0.0000   XZ=              0.0000   YZ=              0.0000

 Normal termination of Gaussian 16 at Fri Oct 15 16:33:58 2021.
