 Gaussian 16, Revision A.03,
 Gaussian 16:  ES64L-G16RevA.03 25-Dec-2016

 --------------------------------------------------------
 #p PBE1PBE/Def2SVP td=(nstates=5) density=(transition=1)
 --------------------------------------------------------

 --------------------------------
 TDDFT excited states in gaussian
 --------------------------------
 Symbolic Z-matrix:
 Charge =  0 Multiplicity = 1

                         Standard orientation:
 ---------------------------------------------------------------------
 Center     Atomic      Atomic             Coordinates (Angstroms)
 Number     Number       Type             X           Y           Z
 ---------------------------------------------------------------------
      1         12           0       31.384913    0.457412   -0.704835
      2          6           0       28.825789   -2.014246   -0.567257
      3          6           0       29.016288    2.896911   -0.291064
      4          6           0       33.917447    2.692415    0.210639
      5          6           0       33.779200   -2.109027   -0.533824
      6          7           0       29.110535    0.320497   -0.194605
      7          6           0       28.284449   -0.712446   -0.427751
      8          6           0       26.876757   -0.189982   -0.649110
      9          6           0       26.904646    1.406190   -0.492934
     10          6           0       28.510578    1.542995   -0.464005
     11          6           0       26.246947    2.039760   -1.739448
     12          6           0       25.899192   -0.842092    0.315361
     13          6           0       26.405371   -1.101089    1.754282
     14          1           0       25.838622   -0.184064    2.872379
     15          7           0       31.476629    2.575258   -0.194771
     16          6           0       30.343391    3.350133   -0.076317
     17          6           0       30.807102    4.691745    0.091091
     18          6           0       32.232071    4.698459    0.342195
     19          6           0       32.643698    3.295645    0.082474
     20          6           0       29.867164    5.864175    0.251188
     21          6           0       33.083318    5.842365    0.895595
     22          8           0       32.559145    6.892883    1.212083
     23          6           0       34.499799    5.751131    1.087016
     24          7           0       33.520766    0.311071   -0.127186
     25          6           0       34.314527    1.358417    0.040778
     26          6           0       35.759707    0.980799    0.322527
     27          6           0       35.603187   -0.596366    0.439396
     28          6           0       34.265537   -0.846746   -0.157845
     29          6           0       36.785984    1.433043   -0.827472
     30          6           0       35.797405   -1.066940    1.954008
     31          6           0       36.997625   -1.877979    2.353012
     32          7           0       31.368311   -1.548996   -0.820865
     33          6           0       32.437593   -2.466647   -0.866107
     34          6           0       31.940204   -3.833003   -1.112506
     35          6           0       30.560976   -3.647512   -1.019335
     36          6           0       30.213393   -2.284212   -0.718686
     37          6           0       32.731175   -5.130366   -1.498739
     38          6           0       29.299063   -4.392348   -1.075650
     39          8           0       29.025831   -5.585907   -1.284617
     40          6           0       28.130147   -3.387784   -0.807887
     41          6           0       27.586072   -3.966738    0.452360
     42          8           0       28.208844   -4.125905    1.470798
     43          8           0       26.345614   -4.403775    0.254924
     44          6           0       25.562542   -4.952379    1.416717
     45          1           0       28.275523    3.680851   -0.460954
     46          1           0       34.810813    3.283748    0.421096
     47          1           0       34.586214   -2.824807   -0.360893
     48          1           0       26.730241   -0.561449   -1.663359
     49          1           0       26.429073    1.745044    0.427837
     50          1           0       25.392524    2.629754   -1.408439
     51          1           0       25.855053    1.320864   -2.459430
     52          1           0       26.997563    2.705941   -2.163900
     53          1           0       25.580693   -1.804690   -0.084814
     54          1           0       25.022083   -0.209833    0.456349
     55          1           0       27.460563   -0.922494    1.960639
     56          1           0       26.146273   -2.142070    1.947828
     57          1           0       28.823435    5.549072    0.260894
     58          1           0       30.119749    6.595220   -0.517611
     59          1           0       30.147254    6.378717    1.169703
     60          1           0       34.826073    5.019194    1.826189
     61          1           0       34.881349    6.718279    1.413789
     62          1           0       34.853519    5.439612    0.103598
     63          1           0       36.120967    1.303491    1.298653
     64          1           0       36.508512   -0.933286   -0.065872
     65          1           0       36.251390    2.003147   -1.587831
     66          1           0       37.160703    0.524025   -1.298358
     67          1           0       37.670392    1.977491   -0.492988
     68          1           0       35.013173   -1.761689    2.254901
     69          1           0       35.775748   -0.215744    2.633138
     70          1           0       36.794251   -2.943277    2.462294
     71          1           0       37.200255   -1.428984    3.325910
     72          1           0       37.912450   -1.641610    1.809322
     73          1           0       33.221576   -5.497945   -0.597769
     74          1           0       33.408582   -4.861593   -2.309449
     75          1           0       32.012071   -5.896208   -1.788823
     76          1           0       27.486283   -3.437405   -1.686765
     77          1           0       25.763682   -6.007850    1.601494
     78          1           0       24.489383   -4.843343    1.254855
     79          1           0       25.856676   -4.332994    2.264016
     80         12           0      -31.530412   -0.024802   -0.290336
     81          6           0      -28.168195    0.771982    0.102150
     82          6           0      -30.676160   -3.358881    0.131386
     83          6           0      -34.719035   -0.873094   -0.094656
     84          6           0      -32.312957    3.345242   -0.195688
     85          7           0      -29.684435   -1.146901    0.232696
     86          6           0      -28.406352   -0.627629    0.205241
     87          6           0      -27.346087   -1.685006    0.295221
     88          6           0      -28.168538   -2.995467   -0.081023
     89          6           0      -29.597667   -2.516735    0.137295
     90          6           0      -27.870272   -3.833396   -1.413692
     91          6           0      -26.542212   -1.733385    1.676328
     92          6           0      -27.305543   -1.332015    2.973505
     93          1           0      -27.008048   -2.209444    4.165652
     94          7           0      -32.573167   -1.850331    0.099061
     95          6           0      -32.024000   -3.131845    0.230797
     96          6           0      -33.036588   -4.113869    0.506362
     97          6           0      -34.259148   -3.401786    0.469404
     98          6           0      -33.917718   -1.977206    0.179657
     99          6           0      -32.689661   -5.603475    0.493985
    100          6           0      -35.619015   -4.108320    0.671149
    101          8           0      -35.698519   -5.304501    0.968796
    102          6           0      -36.813918   -3.284791    0.432112
    103          7           0      -33.225438    1.132260   -0.042295
    104          6           0      -34.448358    0.524293   -0.271038
    105          6           0      -35.606082    1.536058   -0.418405
    106          6           0      -34.774740    2.866541   -0.201915
    107          6           0      -33.377159    2.445398   -0.090477
    108          6           0      -36.415890    1.549000   -1.676374
    109          6           0      -35.198816    3.661584    1.134683
    110          6           0      -35.370730    5.132681    0.859364
    111          7           0      -30.475573    1.772291   -0.284534
    112          6           0      -30.937990    3.074692   -0.246813
    113          6           0      -29.794491    4.014176   -0.195897
    114          6           0      -28.664313    3.135086   -0.059143
    115          6           0      -29.149537    1.823333   -0.115364
    116          6           0      -29.764430    5.475981   -0.003351
    117          6           0      -27.208822    3.015415    0.171053
    118          8           0      -26.391844    3.882608    0.378200
    119          6           0      -26.832908    1.500321    0.241857
    120          6           0      -25.806954    1.184414   -0.752695
    121          8           0      -24.659205    0.765329   -0.600858
    122          8           0      -26.253765    1.723781   -1.987466
    123          6           0      -25.377310    1.460805   -3.148923
    124          1           0      -30.344419   -4.392989    0.012845
    125          1           0      -35.788090   -1.042788   -0.237985
    126          1           0      -32.661843    4.378044   -0.249197
    127          1           0      -26.566063   -1.500644   -0.443394
    128          1           0      -27.908193   -3.636257    0.761796
    129          1           0      -27.009948   -3.506327   -1.997347
    130          1           0      -28.675917   -3.794368   -2.146730
    131          1           0      -27.555342   -4.840757   -1.140015
    132          1           0      -25.612468   -1.170836    1.598003
    133          1           0      -26.191726   -2.759977    1.782685
    134          1           0      -28.381062   -1.307376    2.795500
    135          1           0      -27.020537   -0.323348    3.271338
    136          1           0      -33.304480   -6.204307    1.164878
    137          1           0      -31.682276   -5.738350    0.886921
    138          1           0      -32.848562   -5.934540   -0.532565
    139          1           0      -36.885534   -3.081705   -0.635990
    140          1           0      -36.758180   -2.373397    1.028217
    141          1           0      -37.650955   -3.907080    0.748569
    142          1           0      -36.215041    1.465452    0.483165
    143          1           0      -34.852412    3.349572   -1.175932
    144          1           0      -37.011730    2.460937   -1.634935
    145          1           0      -37.135694    0.734074   -1.599460
    146          1           0      -35.767633    1.464084   -2.549334
    147          1           0      -34.426357    3.450567    1.874083
    148          1           0      -36.073028    3.295109    1.674268
    149          1           0      -34.559983    5.661842    1.359566
    150          1           0      -36.218214    5.559450    1.396808
    151          1           0      -35.247735    5.325691   -0.206142
    152          1           0      -30.736382    5.965822    0.071999
    153          1           0      -29.294612    5.883419   -0.897868
    154          1           0      -29.332799    5.530478    0.995860
    155          1           0      -26.459759    1.360577    1.256147
    156          1           0      -26.098436    1.160096   -3.909821
    157          1           0      -24.595587    0.702482   -3.103837
    158          1           0      -25.070355    2.451909   -3.483493
 ---------------------------------------------------------------------

 SCF Done:  E(RPBE1PBE) =  -4067.33822593     A.U. after   16 cycles

 Excitation energies and oscillator strengths:

 Excited State   1:      Singlet-A      1.8532 eV  669.02 nm  f=0.3406  <S**2>=0.000
     309 -> 315        0.19395
     311 -> 313        0.68724
 This state for optimization and/or second-order correction.
 Total Energy, E(TD-HF/TD-DFT) =  -4067.27012129
 Copying the excited state density for this state as the 1-particle RhoCI density.

 Excited State   2:      Singlet-A      1.8711 eV  662.63 nm  f=0.3617  <S**2>=0.000
     310 -> 316        0.17707
     312 -> 314        0.68993
     312 <- 314       -0.10399

 Excited State   3:      Singlet-A      2.0117 eV  616.30 nm  f=0.0000  <S**2>=0.000
     312 -> 313        0.70711

 Excited State   4:      Singlet-A      2.0706 eV  598.78 nm  f=0.0000  <S**2>=0.000
     311 -> 314        0.70711

 Excited State   5:      Singlet-A      2.2140 eV  560.01 nm  f=0.0934  <S**2>=0.000
     310 -> 314        0.64328
     312 -> 316       -0.27373

 The electronic state is 1-A.
 Alpha  occ. eigenvalues --  -46.93577 -46.92495 -19.25696 -19.25015 -19.20758
 Alpha  occ. eigenvalues --  -19.19174 -19.19125 -19.19107 -19.19069 -19.18251
 Alpha  occ. eigenvalues --  -14.41920 -14.41751 -14.41681 -14.41454 -14.39838
 Alpha  occ. eigenvalues --  -14.39243 -14.39188 -14.38885 -10.36737 -10.35727
 Alpha  occ. eigenvalues --  -10.32350 -10.32179 -10.32171 -10.31403 -10.29765
 Alpha  occ. eigenvalues --  -10.29660 -10.29328 -10.29135 -10.28962 -10.28792
 Alpha  occ. eigenvalues --  -10.28545 -10.28525 -10.28500 -10.28349 -10.28265
 Alpha  occ. eigenvalues --  -10.28251 -10.27953 -10.27900 -10.27704 -10.27465
 Alpha  occ. eigenvalues --  -10.26923 -10.26716 -10.26707 -10.26567 -10.26532
 Alpha  occ. eigenvalues --  -10.26467 -10.26343 -10.26292 -10.26034 -10.26028
 Alpha  occ. eigenvalues --  -10.26012 -10.25982 -10.25920 -10.25878 -10.25876
 Alpha  occ. eigenvalues --  -10.25752 -10.25734 -10.25677 -10.25651 -10.25568
 Alpha  occ. eigenvalues --  -10.25550 -10.25082 -10.24949 -10.24850 -10.24761
 Alpha  occ. eigenvalues --  -10.24719 -10.24600 -10.24556 -10.24543 -10.24433
 Alpha  occ. eigenvalues --  -10.24422 -10.24360 -10.24309 -10.24159 -10.24087
 Alpha  occ. eigenvalues --  -10.23694 -10.23647 -10.23621 -10.23552 -10.23343
 Alpha  occ. eigenvalues --  -10.23272 -10.23217 -10.23209 -10.22965 -10.22918
 Alpha  occ. eigenvalues --  -10.22461  -3.15471  -3.14600  -1.88272  -1.87875
 Alpha  occ. eigenvalues --   -1.87670  -1.87425  -1.86990  -1.86816  -1.11818
 Alpha  occ. eigenvalues --   -1.09539  -1.05185  -1.04923  -1.04026  -1.03567
 Alpha  occ. eigenvalues --   -1.02510  -1.01723  -0.99687  -0.99209  -0.98357
 Alpha  occ. eigenvalues --   -0.98269  -0.97843  -0.97080  -0.96964  -0.96218
 Alpha  occ. eigenvalues --   -0.86823  -0.86300  -0.83955  -0.83518  -0.83246
 Alpha  occ. eigenvalues --   -0.83044  -0.82555  -0.82280  -0.81950  -0.81397
 Alpha  occ. eigenvalues --   -0.81248  -0.80475  -0.80433  -0.79606  -0.79037
 Alpha  occ. eigenvalues --   -0.78905  -0.78765  -0.78330  -0.77076  -0.76952
 Alpha  occ. eigenvalues --   -0.76828  -0.76577  -0.75424  -0.75192  -0.74597
 Alpha  occ. eigenvalues --   -0.74498  -0.72689  -0.72234  -0.71780  -0.71632
 Alpha  occ. eigenvalues --   -0.71095  -0.70689  -0.70553  -0.70510  -0.70095
 Alpha  occ. eigenvalues --   -0.69296  -0.67298  -0.67113  -0.66580  -0.66178
 Alpha  occ. eigenvalues --   -0.63747  -0.63664  -0.63222  -0.62925  -0.62584
 Alpha  occ. eigenvalues --   -0.62529  -0.61247  -0.61133  -0.60865  -0.60005
 Alpha  occ. eigenvalues --   -0.59615  -0.59369  -0.59332  -0.59076  -0.58564
 Alpha  occ. eigenvalues --   -0.58547  -0.57073  -0.57000  -0.54843  -0.54794
 Alpha  occ. eigenvalues --   -0.53980  -0.53848  -0.53589  -0.53542  -0.53074
 Alpha  occ. eigenvalues --   -0.52893  -0.52395  -0.52115  -0.51830  -0.51773
 Alpha  occ. eigenvalues --   -0.50891  -0.50741  -0.50362  -0.50355  -0.49905
 Alpha  occ. eigenvalues --   -0.49639  -0.49592  -0.49474  -0.49113  -0.49104
 Alpha  occ. eigenvalues --   -0.48455  -0.48380  -0.48079  -0.47686  -0.47607
 Alpha  occ. eigenvalues --   -0.47259  -0.47199  -0.47026  -0.46923  -0.46721
 Alpha  occ. eigenvalues --   -0.46659  -0.46491  -0.46407  -0.46258  -0.46075
 Alpha  occ. eigenvalues --   -0.45719  -0.45389  -0.45209  -0.45060  -0.44803
 Alpha  occ. eigenvalues --   -0.44786  -0.44356  -0.44298  -0.44275  -0.44208
 Alpha  occ. eigenvalues --   -0.44030  -0.43880  -0.43802  -0.43519  -0.43487
 Alpha  occ. eigenvalues --   -0.43185  -0.43117  -0.42941  -0.42914  -0.42789
 Alpha  occ. eigenvalues --   -0.42444  -0.42403  -0.41956  -0.41897  -0.41645
 Alpha  occ. eigenvalues --   -0.41631  -0.41606  -0.41325  -0.41244  -0.41031
 Alpha  occ. eigenvalues --   -0.40978  -0.40926  -0.40525  -0.40462  -0.40283
 Alpha  occ. eigenvalues --   -0.40148  -0.40083  -0.39921  -0.39889  -0.39808
 Alpha  occ. eigenvalues --   -0.39804  -0.39705  -0.39560  -0.39514  -0.39409
 Alpha  occ. eigenvalues --   -0.39134  -0.38757  -0.38734  -0.38568  -0.38346
 Alpha  occ. eigenvalues --   -0.38275  -0.37979  -0.37951  -0.37835  -0.37743
 Alpha  occ. eigenvalues --   -0.37687  -0.37328  -0.37252  -0.36999  -0.36875
 Alpha  occ. eigenvalues --   -0.36778  -0.36598  -0.36521  -0.36337  -0.36210
 Alpha  occ. eigenvalues --   -0.36115  -0.36094  -0.35712  -0.35330  -0.35005
 Alpha  occ. eigenvalues --   -0.34956  -0.34867  -0.34728  -0.34057  -0.33649
 Alpha  occ. eigenvalues --   -0.33516  -0.32962  -0.32925  -0.32440  -0.32403
 Alpha  occ. eigenvalues --   -0.32094  -0.31953  -0.31768  -0.31601  -0.31411
 Alpha  occ. eigenvalues --   -0.30706  -0.30564  -0.30305  -0.29710  -0.29273
 Alpha  occ. eigenvalues --   -0.29124  -0.28888  -0.28828  -0.27013  -0.26914
 Alpha  occ. eigenvalues --   -0.26016  -0.25887  -0.25749  -0.25531  -0.25528
 Alpha  occ. eigenvalues --   -0.25366  -0.25342  -0.24483  -0.21223  -0.21002
 Alpha  occ. eigenvalues --   -0.18983  -0.18869
 Alpha virt. eigenvalues --   -0.11265  -0.11163  -0.05926  -0.05714  -0.03964
 Alpha virt. eigenvalues --   -0.03533  -0.02065  -0.01957  -0.01664  -0.01112
 Alpha virt. eigenvalues --   -0.00504   0.00417   0.00797   0.00967   0.02018

 Mulliken charges:
               1
     1  Mg  12.005393
     2  C    6.011284
     3  C    5.976141
     4  C    5.987067
     5  C    6.018403
     6  N    7.006207
     7  C    5.973190
     8  C    6.001059
     9  C    5.986432
    10  C    6.040371
    11  C    5.999137
    12  C    6.002678
    13  C    6.007111
    14  H    0.987057
    15  N    6.991847
    16  C    6.040969
    17  C    6.017928
    18  C    6.010495
    19  C    6.035020
    20  C    5.996979
    21  C    6.011570
    22  O    8.017044
    23  C    5.996316
    24  N    7.003597
    25  C    6.026196
    26  C    5.987822
    27  C    6.014216
    28  C    5.963101
    29  C    5.997399
    30  C    6.000672
    31  C    6.001598
    32  N    7.003302
    33  C    5.960348
    34  C    5.973555
    35  C    5.998424
    36  C    5.970217
    37  C    5.995817
    38  C    5.984010
    39  O    7.967925
    40  C    6.000210
    41  C    5.993560
    42  O    7.997593
    43  O    7.998627
    44  C    6.001640
    45  H    1.006482
    46  H    1.009558
    47  H    0.991137
    48  H    1.005502
    49  H    1.005398
    50  H    1.004076
    51  H    1.010070
    52  H    0.996019
    53  H    1.004879
    54  H    0.992702
    55  H    1.000041
    56  H    1.003844
    57  H    1.017790
    58  H    1.018011
    59  H    1.015500
    60  H    1.010538
    61  H    1.011608
    62  H    1.006391
    63  H    1.001580
    64  H    0.995657
    65  H    0.996740
    66  H    1.011547
    67  H    1.001395
    68  H    1.003492
    69  H    0.987479
    70  H    1.002439
    71  H    0.995183
    72  H    0.995610
    73  H    0.984504
    74  H    0.986056
    75  H    0.990212
    76  H    0.990617
    77  H    0.998207
    78  H    0.994399
    79  H    0.995810
    80  Mg  11.999971
    81  C    6.000092
    82  C    5.999875
    83  C    5.999833
    84  C    6.000069
    85  N    7.000067
    86  C    5.999868
    87  C    6.000064
    88  C    5.999936
    89  C    6.000208
    90  C    5.999950
    91  C    6.000010
    92  C    6.000024
    93  H    0.999966
    94  N    7.000023
    95  C    6.000281
    96  C    6.000059
    97  C    6.000010
    98  C    6.000241
    99  C    5.999961
   100  C    6.000106
   101  O    8.000096
   102  C    5.999972
   103  N    6.999975
   104  C    6.000260
   105  C    5.999911
   106  C    6.000051
   107  C    5.999835
   108  C    5.999988
   109  C    6.000045
   110  C    6.000000
   111  N    6.999999
   112  C    5.999782
   113  C    5.999843
   114  C    5.999930
   115  C    5.999801
   116  C    6.000056
   117  C    5.999867
   118  O    7.999867
   119  C    6.000005
   120  C    5.999929
   121  O    7.999982
   122  O    8.000008
   123  C    6.000011
   124  H    1.000095
   125  H    1.000033
   126  H    0.999917
   127  H    1.000000
   128  H    1.000038
   129  H    1.000088
   130  H    1.000003
   131  H    1.000036
   132  H    1.000022
   133  H    0.999965
   134  H    0.999954
   135  H    1.000029
   136  H    1.000100
   137  H    1.000100
   138  H    1.000114
   139  H    1.000059
   140  H    1.000060
   141  H    1.000077
   142  H    1.000006
   143  H    0.999984
   144  H    1.000037
   145  H    0.999972
   146  H    1.000025
   147  H    0.999996
   148  H    0.999919
   149  H    1.000013
   150  H    0.999958
   151  H    0.999995
   152  H    0.999881
   153  H    0.999888
   154  H    0.999899
   155  H    0.999967
   156  H    0.999978
   157  H    0.999975
   158  H    0.999989
 Sum of Mulliken charges = 624.00000

 Dipole moment (field-independent basis, Debye):
    X=              0.3224    Y=              9.7942    Z=              0.9535  Tot=              9.8458
 Quadrupole moment (field-independent basis, Debye-Ang):
   XX=             21.5457   YY=              8.2281   ZZ=             -1.6111
   XY=            309.3400   XZ=             31.0066   YZ=             -2.8859

 Normal termination of Gaussian 16 at Thu Oct 14 00:32:41 2021.
