 Gaussian 16, Revision A.03,
 Gaussian 16:  ES64L-G16RevA.03 25-Dec-2016

 --------------------------------------------------------
 #p PBE1PBE/Def2SVP td=(nstates=5) density=(transition=1)
 --------------------------------------------------------

 --------------------------------
 TDDFT excited states in gaussian
 --------------------------------
 Symbolic Z-matrix:
 Charge =  0 Multiplicity = 1

                         Standard orientation:
 ---------------------------------------------------------------------
 Center     Atomic      Atomic             Coordinates (Angstroms)
 Number     Number       Type             X           Y           Z
 ---------------------------------------------------------------------
      1         12           0        5.060064   -0.613991   -0.397808
      2          6           0        3.136474    2.276022   -1.328490
      3          6           0        7.856830    1.561950   -0.278391
      4          6           0        7.141179   -3.307263    0.384212
      5          6           0        2.447162   -2.627910   -0.924287
      6          7           0        5.438009    1.702475   -0.990711
      7          6           0        4.485099    2.633898   -1.209155
      8          6           0        5.152549    4.033916   -1.459443
      9          6           0        6.670079    3.656493   -1.313505
     10          6           0        6.685766    2.219848   -0.742766
     11          6           0        7.454379    3.806179   -2.663704
     12          6           0        4.709792    5.104196   -0.462078
     13          6           0        4.391498    6.447193   -1.032736
     14          1           0        3.845703    7.536757   -0.098468
     15          7           0        7.105860   -0.840207    0.191849
     16          6           0        8.058872    0.172332    0.157672
     17          6           0        9.316374   -0.377788    0.623551
     18          6           0        9.137770   -1.719584    0.916901
     19          6           0        7.757122   -2.041121    0.421107
     20          6           0       10.623326    0.361768    0.630224
     21          6           0       10.153803   -2.818101    1.434926
     22          8           0        9.927313   -3.980101    1.668530
     23          6           0       11.539815   -2.379428    1.855377
     24          7           0        4.910228   -2.633131   -0.424143
     25          6           0        5.834521   -3.584553   -0.079369
     26          6           0        5.339392   -5.017795   -0.383529
     27          6           0        3.774727   -4.812479   -0.559712
     28          6           0        3.702512   -3.238616   -0.608660
     29          6           0        6.072757   -5.672878   -1.597449
     30          6           0        2.908899   -5.421382    0.584930
     31          6           0        3.043256   -4.745624    1.947688
     32          7           0        3.205994   -0.333731   -1.014913
     33          6           0        2.147786   -1.277070   -1.135755
     34          6           0        0.920278   -0.618102   -1.576444
     35          6           0        1.256413    0.747278   -1.605645
     36          6           0        2.624755    0.889987   -1.253797
     37          6           0       -0.357805   -1.268500   -1.840072
     38          6           0        0.675737    2.054241   -1.896094
     39          8           0       -0.475426    2.347699   -2.172117
     40          6           0        1.899324    3.116872   -1.817344
     41          6           0        1.300790    4.122063   -0.830409
     42          8           0        1.120600    3.989973    0.393605
     43          8           0        0.917258    5.196241   -1.498123
     44          6           0        0.554424    6.457020   -0.732153
     45          1           0        8.694376    2.254184   -0.172681
     46          1           0        7.714264   -4.209647    0.611111
     47          1           0        1.618089   -3.333535   -1.005485
     48          1           0        4.778196    4.335764   -2.437052
     49          1           0        7.167009    4.269756   -0.560596
     50          1           0        8.334768    4.448247   -2.636108
     51          1           0        6.820081    4.016147   -3.525120
     52          1           0        7.982103    2.918474   -3.013121
     53          1           0        5.665567    5.374698   -0.012928
     54          1           0        4.009592    4.731377    0.286284
     55          1           0        3.755336    6.527233   -1.915697
     56          1           0        5.366986    6.809325   -1.357551
     57          1           0       10.482025    1.420148    0.412724
     58          1           0       11.372541   -0.013304   -0.068720
     59          1           0       11.150817    0.377857    1.584091
     60          1           0       11.517031   -1.652838    2.667491
     61          1           0       11.940915   -2.003168    0.914235
     62          1           0       12.051967   -3.323762    2.039952
     63          1           0        5.672792   -5.592504    0.481280
     64          1           0        3.353826   -4.989578   -1.549696
     65          1           0        6.720471   -6.498108   -1.301653
     66          1           0        6.615552   -5.022905   -2.282855
     67          1           0        5.223604   -6.031773   -2.179310
     68          1           0        2.998784   -6.505775    0.519284
     69          1           0        1.864197   -5.268592    0.314625
     70          1           0        3.810082   -3.975609    2.024060
     71          1           0        3.322738   -5.540369    2.638884
     72          1           0        2.184779   -4.158854    2.272489
     73          1           0       -1.155347   -0.602032   -2.169096
     74          1           0       -0.629068   -1.746221   -0.898719
     75          1           0       -0.179579   -2.054008   -2.575821
     76          1           0        2.014354    3.685260   -2.740259
     77          1           0        0.592535    7.265358   -1.462718
     78          1           0        1.289785    6.717779    0.028392
     79          1           0       -0.404783    6.392125   -0.217214
     80         12           0       -4.996707   -0.711372    0.251630
     81          6           0       -2.972021    1.890226    1.019126
     82          6           0       -7.665311    1.478593   -0.132232
     83          6           0       -7.022961   -3.314413   -0.509911
     84          6           0       -2.477904   -2.926197    1.107916
     85          7           0       -5.184851    1.384374    0.329108
     86          6           0       -4.250691    2.298355    0.694311
     87          6           0       -4.713648    3.714629    0.472413
     88          6           0       -6.279798    3.568990    0.375079
     89          6           0       -6.384346    2.025786    0.144104
     90          6           0       -7.211046    4.142325    1.523480
     91          6           0       -4.135797    4.320153   -0.885227
     92          6           0       -4.074320    5.876005   -0.865720
     93          1           0       -5.032542    6.716056   -0.004750
     94          7           0       -7.104339   -0.946659   -0.185299
     95          6           0       -8.016451    0.134918   -0.301223
     96          6           0       -9.309223   -0.368253   -0.655985
     97          6           0       -9.158578   -1.797008   -0.760482
     98          6           0       -7.697532   -2.046497   -0.490288
     99          6           0      -10.499671    0.478216   -0.942432
    100          6           0      -10.200659   -2.855983   -1.102563
    101          8           0      -10.020886   -4.108551   -1.063356
    102          6           0      -11.597552   -2.421081   -1.512139
    103          7           0       -4.816712   -2.808065    0.354481
    104          6           0       -5.737262   -3.698753   -0.199987
    105          6           0       -5.194390   -5.140736   -0.417347
    106          6           0       -3.664977   -4.912127    0.098805
    107          6           0       -3.609858   -3.489459    0.520321
    108          6           0       -6.013578   -6.118075    0.435404
    109          6           0       -2.611515   -5.307809   -0.893454
    110          6           0       -1.630232   -6.310842   -0.357760
    111          7           0       -3.193578   -0.667645    1.011366
    112          6           0       -2.223961   -1.619568    1.301117
    113          6           0       -1.051071   -0.990536    1.784435
    114          6           0       -1.273273    0.412358    1.750310
    115          6           0       -2.549955    0.579734    1.173591
    116          6           0        0.226386   -1.602005    2.215858
    117          6           0       -0.739357    1.702289    2.129052
    118          8           0        0.267382    2.085161    2.692385
    119          6           0       -1.850819    2.711997    1.570775
    120          6           0       -2.098378    3.848908    2.495621
    121          8           0       -2.214783    3.790030    3.693034
    122          8           0       -2.152607    5.037154    1.874057
    123          6           0       -2.414941    6.193631    2.777249
    124          1           0       -8.461239    2.222516   -0.056178
    125          1           0       -7.717177   -4.149133   -0.626496
    126          1           0       -1.598492   -3.547379    1.289781
    127          1           0       -4.558813    4.345289    1.347692
    128          1           0       -6.604849    4.010405   -0.566497
    129          1           0       -6.569021    4.681892    2.219834
    130          1           0       -7.821395    3.433472    2.080787
    131          1           0       -7.935082    4.795411    1.035926
    132          1           0       -4.795689    3.922359   -1.656401
    133          1           0       -3.131032    3.917639   -1.014379
    134          1           0       -4.211151    6.123557   -1.918541
    135          1           0       -3.035065    6.134351   -0.664202
    136          1           0      -10.552024    0.899655   -1.946348
    137          1           0      -10.488821    1.254962   -0.178837
    138          1           0      -11.441195   -0.001780   -0.677185
    139          1           0      -12.138375   -2.244810   -0.582457
    140          1           0      -12.021690   -3.288009   -2.018144
    141          1           0      -11.621848   -1.512684   -2.114333
    142          1           0       -5.372557   -5.372485   -1.467486
    143          1           0       -3.502208   -5.536700    0.977814
    144          1           0       -6.712998   -5.665947    1.138916
    145          1           0       -5.337226   -6.843295    0.887225
    146          1           0       -6.663881   -6.645020   -0.263432
    147          1           0       -1.979755   -4.475919   -1.205083
    148          1           0       -2.996790   -5.708004   -1.831360
    149          1           0       -1.471036   -7.154551   -1.028651
    150          1           0       -1.964575   -6.724736    0.593188
    151          1           0       -0.745982   -5.717101   -0.124226
    152          1           0        0.156141   -2.595006    2.660831
    153          1           0        0.483319   -1.031467    3.108832
    154          1           0        0.944039   -1.583974    1.395574
    155          1           0       -1.263243    3.094425    0.735641
    156          1           0       -1.523936    6.491421    3.331823
    157          1           0       -3.303864    6.039736    3.389224
    158          1           0       -2.673213    7.053595    2.158817
 ---------------------------------------------------------------------

 SCF Done:  E(RPBE1PBE) =  -4067.36950468     A.U. after   16 cycles

 Excitation energies and oscillator strengths:

 Excited State   1:      Singlet-A      1.4469 eV  856.89 nm  f=0.0012  <S**2>=0.000
     312 -> 313        0.70571
 This state for optimization and/or second-order correction.
 Total Energy, E(TD-HF/TD-DFT) =  -4067.31633192
 Copying the excited state density for this state as the 1-particle RhoCI density.

 Excited State   2:      Singlet-A      1.7619 eV  703.69 nm  f=0.8426  <S**2>=0.000
     310 -> 316       -0.11261
     311 -> 313       -0.43578
     311 -> 314       -0.11428
     312 -> 314        0.53296

 Excited State   3:      Singlet-A      1.8066 eV  686.30 nm  f=0.0373  <S**2>=0.000
     311 -> 313       -0.23626
     311 -> 314        0.66144

 Excited State   4:      Singlet-A      1.8384 eV  674.42 nm  f=0.0017  <S**2>=0.000
     309 -> 315       -0.12878
     310 -> 316       -0.11606
     311 -> 313        0.48334
     311 -> 314        0.21939
     312 -> 314        0.44507

 Excited State   5:      Singlet-A      2.1001 eV  590.36 nm  f=0.0004  <S**2>=0.000
     310 -> 313        0.70337

 The electronic state is 1-A.
 Alpha  occ. eigenvalues --  -46.91791 -46.89876 -19.25920 -19.24915 -19.20164
 Alpha  occ. eigenvalues --  -19.19723 -19.18599 -19.18191 -19.18070 -19.17953
 Alpha  occ. eigenvalues --  -14.42073 -14.41574 -14.41195 -14.40682 -14.39820
 Alpha  occ. eigenvalues --  -14.39538 -14.38497 -14.37749 -10.35794 -10.34521
 Alpha  occ. eigenvalues --  -10.33045 -10.32752 -10.31815 -10.30878 -10.29668
 Alpha  occ. eigenvalues --  -10.29367 -10.29201 -10.29077 -10.28956 -10.28808
 Alpha  occ. eigenvalues --  -10.28670 -10.28411 -10.28367 -10.27982 -10.27937
 Alpha  occ. eigenvalues --  -10.27814 -10.27812 -10.27656 -10.27100 -10.26874
 Alpha  occ. eigenvalues --  -10.26841 -10.26790 -10.26477 -10.26431 -10.26317
 Alpha  occ. eigenvalues --  -10.26297 -10.26262 -10.26163 -10.26144 -10.26062
 Alpha  occ. eigenvalues --  -10.25942 -10.25919 -10.25800 -10.25708 -10.25625
 Alpha  occ. eigenvalues --  -10.25318 -10.25278 -10.25091 -10.25070 -10.24984
 Alpha  occ. eigenvalues --  -10.24748 -10.24662 -10.24591 -10.24487 -10.24422
 Alpha  occ. eigenvalues --  -10.24349 -10.24327 -10.24326 -10.24051 -10.23824
 Alpha  occ. eigenvalues --  -10.23770 -10.23678 -10.23665 -10.23643 -10.23368
 Alpha  occ. eigenvalues --  -10.23355 -10.23186 -10.23128 -10.23002 -10.22932
 Alpha  occ. eigenvalues --  -10.22728 -10.22675 -10.22658 -10.22562 -10.22350
 Alpha  occ. eigenvalues --  -10.22275  -3.14054  -3.12307  -1.86878  -1.86447
 Alpha  occ. eigenvalues --   -1.86284  -1.85141  -1.84662  -1.84577  -1.11115
 Alpha  occ. eigenvalues --   -1.11074  -1.06210  -1.05345  -1.03394  -1.01566
 Alpha  occ. eigenvalues --   -1.01090  -1.00430  -0.98502  -0.98347  -0.97827
 Alpha  occ. eigenvalues --   -0.97564  -0.96977  -0.96665  -0.96487  -0.95414
 Alpha  occ. eigenvalues --   -0.86700  -0.85398  -0.83722  -0.83525  -0.83149
 Alpha  occ. eigenvalues --   -0.82517  -0.82405  -0.81979  -0.81798  -0.81427
 Alpha  occ. eigenvalues --   -0.81348  -0.80882  -0.80795  -0.80056  -0.78507
 Alpha  occ. eigenvalues --   -0.78170  -0.78013  -0.77347  -0.76756  -0.76081
 Alpha  occ. eigenvalues --   -0.75727  -0.75494  -0.75194  -0.74697  -0.74600
 Alpha  occ. eigenvalues --   -0.74128  -0.72502  -0.72044  -0.71755  -0.71640
 Alpha  occ. eigenvalues --   -0.71331  -0.70900  -0.70406  -0.70042  -0.69592
 Alpha  occ. eigenvalues --   -0.69006  -0.67161  -0.66653  -0.66205  -0.65634
 Alpha  occ. eigenvalues --   -0.64532  -0.63288  -0.62871  -0.62761  -0.62075
 Alpha  occ. eigenvalues --   -0.61721  -0.60741  -0.60480  -0.59973  -0.59749
 Alpha  occ. eigenvalues --   -0.59738  -0.59268  -0.59063  -0.58798  -0.58615
 Alpha  occ. eigenvalues --   -0.57970  -0.56633  -0.56095  -0.54272  -0.54219
 Alpha  occ. eigenvalues --   -0.54056  -0.53675  -0.53584  -0.52893  -0.52511
 Alpha  occ. eigenvalues --   -0.52306  -0.52103  -0.51741  -0.51328  -0.50902
 Alpha  occ. eigenvalues --   -0.50386  -0.50215  -0.50043  -0.49731  -0.49306
 Alpha  occ. eigenvalues --   -0.49157  -0.48968  -0.48933  -0.48618  -0.48081
 Alpha  occ. eigenvalues --   -0.47896  -0.47821  -0.47675  -0.47353  -0.47294
 Alpha  occ. eigenvalues --   -0.47161  -0.47079  -0.46966  -0.46739  -0.46530
 Alpha  occ. eigenvalues --   -0.46369  -0.46274  -0.46176  -0.46040  -0.45802
 Alpha  occ. eigenvalues --   -0.45574  -0.45058  -0.44843  -0.44670  -0.44551
 Alpha  occ. eigenvalues --   -0.44473  -0.44336  -0.44000  -0.43967  -0.43952
 Alpha  occ. eigenvalues --   -0.43864  -0.43685  -0.43358  -0.43206  -0.43173
 Alpha  occ. eigenvalues --   -0.42935  -0.42845  -0.42663  -0.42516  -0.42348
 Alpha  occ. eigenvalues --   -0.42284  -0.42168  -0.42084  -0.41788  -0.41606
 Alpha  occ. eigenvalues --   -0.41445  -0.41421  -0.41294  -0.41224  -0.41089
 Alpha  occ. eigenvalues --   -0.40847  -0.40656  -0.40552  -0.40404  -0.40228
 Alpha  occ. eigenvalues --   -0.40139  -0.39890  -0.39824  -0.39396  -0.39354
 Alpha  occ. eigenvalues --   -0.39133  -0.39128  -0.38979  -0.38859  -0.38702
 Alpha  occ. eigenvalues --   -0.38549  -0.38355  -0.38156  -0.38150  -0.38083
 Alpha  occ. eigenvalues --   -0.37988  -0.37913  -0.37694  -0.37550  -0.37307
 Alpha  occ. eigenvalues --   -0.37255  -0.37052  -0.36829  -0.36592  -0.36559
 Alpha  occ. eigenvalues --   -0.36396  -0.36170  -0.35986  -0.35883  -0.35642
 Alpha  occ. eigenvalues --   -0.35380  -0.35328  -0.35251  -0.35054  -0.34761
 Alpha  occ. eigenvalues --   -0.34683  -0.34644  -0.34617  -0.34362  -0.34079
 Alpha  occ. eigenvalues --   -0.33685  -0.33167  -0.32642  -0.32584  -0.32336
 Alpha  occ. eigenvalues --   -0.31990  -0.31817  -0.31612  -0.31491  -0.31179
 Alpha  occ. eigenvalues --   -0.30861  -0.30709  -0.29209  -0.29184  -0.28810
 Alpha  occ. eigenvalues --   -0.28690  -0.27822  -0.27514  -0.27040  -0.26291
 Alpha  occ. eigenvalues --   -0.26188  -0.26141  -0.25795  -0.25611  -0.25070
 Alpha  occ. eigenvalues --   -0.24890  -0.24521  -0.24231  -0.21153  -0.20442
 Alpha  occ. eigenvalues --   -0.18766  -0.18040
 Alpha virt. eigenvalues --   -0.11305  -0.10698  -0.05624  -0.04425  -0.03884
 Alpha virt. eigenvalues --   -0.03336  -0.02258  -0.01275   0.00623   0.00695
 Alpha virt. eigenvalues --    0.00757   0.01188   0.01397   0.01547   0.01779

 Mulliken charges:
               1
     1  Mg  12.000329
     2  C    6.000969
     3  C    5.999316
     4  C    6.000523
     5  C    6.001015
     6  N    7.000215
     7  C    5.999199
     8  C    6.000172
     9  C    5.999760
    10  C    6.001243
    11  C    5.999908
    12  C    6.000145
    13  C    5.999996
    14  H    1.000159
    15  N    6.999908
    16  C    6.001569
    17  C    6.000480
    18  C    6.000928
    19  C    6.000668
    20  C    5.999734
    21  C    6.000480
    22  O    8.001007
    23  C    5.999877
    24  N    7.000856
    25  C    6.000574
    26  C    5.999838
    27  C    6.000062
    28  C    5.998792
    29  C    5.999699
    30  C    6.000050
    31  C    6.000055
    32  N    6.999708
    33  C    5.999184
    34  C    5.997609
    35  C    6.000741
    36  C    5.998867
    37  C    6.000351
    38  C    5.999395
    39  O    7.999850
    40  C    5.999788
    41  C    5.999855
    42  O    8.000275
    43  O    7.999966
    44  C    6.000061
    45  H    1.000439
    46  H    1.000602
    47  H    1.000781
    48  H    1.000204
    49  H    1.000039
    50  H    1.000159
    51  H    1.000476
    52  H    0.999897
    53  H    0.999726
    54  H    1.000213
    55  H    1.000156
    56  H    0.999807
    57  H    1.000691
    58  H    1.000736
    59  H    1.000713
    60  H    1.000380
    61  H    1.000255
    62  H    1.000590
    63  H    1.000117
    64  H    1.000246
    65  H    1.000170
    66  H    1.000033
    67  H    1.000581
    68  H    0.999906
    69  H    1.000418
    70  H    0.999531
    71  H    0.999821
    72  H    1.000667
    73  H    0.999164
    74  H    0.999889
    75  H    0.998212
    76  H    0.999786
    77  H    0.999837
    78  H    0.999810
    79  H    1.000139
    80  Mg  11.999950
    81  C    6.000883
    82  C    6.000954
    83  C    5.999448
    84  C    5.997812
    85  N    7.000686
    86  C    5.999308
    87  C    6.000156
    88  C    6.000143
    89  C    5.998935
    90  C    6.000038
    91  C    6.000410
    92  C    6.000003
    93  H    0.999763
    94  N    7.000112
    95  C    5.999208
    96  C    6.000190
    97  C    5.999411
    98  C    6.000252
    99  C    6.000026
   100  C    5.999854
   101  O    7.999573
   102  C    6.000052
   103  N    6.999696
   104  C    6.000252
   105  C    6.000087
   106  C    5.999636
   107  C    6.001800
   108  C    6.000014
   109  C    5.999940
   110  C    5.999918
   111  N    6.999692
   112  C    6.002565
   113  C    5.996959
   114  C    6.001506
   115  C    5.999099
   116  C    6.000456
   117  C    5.999212
   118  O    7.999027
   119  C    6.000267
   120  C    6.000035
   121  O    7.999878
   122  O    8.000069
   123  C    6.000073
   124  H    0.999986
   125  H    0.999817
   126  H    1.000177
   127  H    0.999798
   128  H    0.999759
   129  H    0.999866
   130  H    0.999861
   131  H    0.999817
   132  H    0.999866
   133  H    0.999495
   134  H    0.999830
   135  H    0.999916
   136  H    0.999847
   137  H    0.999882
   138  H    0.999843
   139  H    0.999839
   140  H    0.999788
   141  H    0.999880
   142  H    1.000132
   143  H    1.000153
   144  H    1.000080
   145  H    0.999852
   146  H    1.000045
   147  H    1.000571
   148  H    1.000090
   149  H    0.999923
   150  H    0.999926
   151  H    1.000077
   152  H    0.998970
   153  H    0.999590
   154  H    0.999688
   155  H    0.999313
   156  H    0.999810
   157  H    0.999922
   158  H    0.999875
 Sum of Mulliken charges = 624.00000

 Dipole moment (field-independent basis, Debye):
    X=              0.6507    Y=             -0.1249    Z=              0.0374  Tot=              0.6637
 Quadrupole moment (field-independent basis, Debye-Ang):
   XX=              3.5308   YY=              0.1875   ZZ=             -0.1998
   XY=             -0.6978   XZ=              0.2240   YZ=             -0.1562

 Normal termination of Gaussian 16 at Thu Oct 14 16:37:15 2021.
