 Gaussian 16, Revision A.03,
 Gaussian 16:  ES64L-G16RevA.03 25-Dec-2016

 --------------------------------------------------------
 #p PBE1PBE/Def2SVP td=(nstates=5) density=(transition=1)
 --------------------------------------------------------

 --------------------------------
 TDDFT excited states in gaussian
 --------------------------------
 Symbolic Z-matrix:
 Charge =  0 Multiplicity = 1

                         Standard orientation:
 ---------------------------------------------------------------------
 Center     Atomic      Atomic             Coordinates (Angstroms)
 Number     Number       Type             X           Y           Z
 ---------------------------------------------------------------------
      1         12           0       26.488773    0.306391    0.580592
      2          6           0       24.952088   -2.357148   -1.280241
      3          6           0       26.846024    1.972912   -2.528421
      4          6           0       28.128985    2.949210    2.168524
      5          6           0       26.456274   -1.516425    3.379983
      6          7           0       26.104384   -0.305292   -1.729923
      7          6           0       25.381545   -1.359780   -2.164508
      8          6           0       25.288502   -1.335065   -3.732601
      9          6           0       26.105235   -0.030739   -4.046170
     10          6           0       26.317398    0.662487   -2.680754
     11          6           0       27.439852   -0.332700   -4.813103
     12          6           0       23.853098   -1.274933   -4.254396
     13          6           0       23.530387   -2.172028   -5.404040
     14          1           0       22.081997   -2.232573   -5.910398
     15          7           0       27.172690    2.249220   -0.004063
     16          6           0       27.231386    2.709187   -1.315406
     17          6           0       27.754909    4.060665   -1.294901
     18          6           0       28.035127    4.413362    0.014851
     19          6           0       27.854585    3.146696    0.801203
     20          6           0       28.080138    4.870557   -2.516953
     21          6           0       28.639344    5.741067    0.630914
     22          8           0       28.861293    5.980245    1.792656
     23          6           0       28.827410    6.937985   -0.275874
     24          7           0       27.319040    0.630583    2.398730
     25          6           0       27.942058    1.747933    2.890429
     26          6           0       28.549683    1.509139    4.292434
     27          6           0       27.807401    0.189254    4.770235
     28          6           0       27.117404   -0.247715    3.422044
     29          6           0       30.110104    1.435464    4.277643
     30          6           0       26.786753    0.403853    5.929050
     31          6           0       25.540818    1.211612    5.572707
     32          7           0       25.897659   -1.523360    1.027284
     33          6           0       25.871589   -2.174744    2.291923
     34          6           0       25.296550   -3.512422    2.168766
     35          6           0       24.887794   -3.586779    0.825081
     36          6           0       25.248017   -2.379972    0.169046
     37          6           0       25.138398   -4.482838    3.245471
     38          6           0       24.240393   -4.494126   -0.116882
     39          8           0       23.741053   -5.589394    0.079410
     40          6           0       24.328377   -3.773090   -1.567715
     41          6           0       22.851283   -3.820729   -1.965982
     42          8           0       21.905677   -3.153310   -1.509358
     43          8           0       22.686229   -4.767304   -2.873478
     44          6           0       21.379951   -4.836332   -3.646004
     45          1           0       26.883007    2.506994   -3.479859
     46          1           0       28.642538    3.720248    2.748152
     47          1           0       26.411119   -2.025756    4.344558
     48          1           0       25.698043   -2.297261   -4.038258
     49          1           0       25.523350    0.675954   -4.639377
     50          1           0       27.578582    0.195204   -5.756591
     51          1           0       27.672801   -1.394245   -4.898627
     52          1           0       28.354264    0.037968   -4.349355
     53          1           0       23.878027   -0.342004   -4.817811
     54          1           0       23.107537   -1.239970   -3.459264
     55          1           0       23.835469   -3.219448   -5.380265
     56          1           0       24.102490   -1.732960   -6.221439
     57          1           0       27.707411    4.391404   -3.421899
     58          1           0       29.141427    5.070656   -2.672361
     59          1           0       27.625555    5.860396   -2.561018
     60          1           0       27.891333    7.270391   -0.724482
     61          1           0       29.565496    6.558417   -0.982526
     62          1           0       29.360424    7.646448    0.358248
     63          1           0       28.323482    2.430881    4.829617
     64          1           0       28.412944   -0.708086    4.899418
     65          1           0       30.575786    2.288128    4.771746
     66          1           0       30.608284    1.261152    3.324593
     67          1           0       30.276373    0.517893    4.842306
     68          1           0       27.356407    0.672093    6.818903
     69          1           0       26.398170   -0.577190    6.201759
     70          1           0       25.530153    1.657221    4.578676
     71          1           0       25.513668    2.033092    6.288190
     72          1           0       24.611112    0.647006    5.512343
     73          1           0       24.692104   -5.432250    2.948908
     74          1           0       24.509689   -3.983925    3.982869
     75          1           0       26.121193   -4.638381    3.692723
     76          1           0       24.825308   -4.396790   -2.310767
     77          1           0       21.589585   -5.449650   -4.522635
     78          1           0       21.066409   -3.868690   -4.036568
     79          1           0       20.543765   -5.209985   -3.053867
     80         12           0      -26.634399   -0.046662    0.129681
     81          6           0      -23.754616    1.472911   -0.980101
     82          6           0      -25.025795   -3.043407    0.528828
     83          6           0      -29.530940   -1.517334    1.440628
     84          6           0      -28.114988    3.040616    0.579992
     85          7           0      -24.537204   -0.578500   -0.012470
     86          6           0      -23.516420    0.122910   -0.659860
     87          6           0      -22.211079   -0.676524   -0.676096
     88          6           0      -22.773246   -2.085600   -0.359095
     89          6           0      -24.208256   -1.915376    0.180255
     90          6           0      -22.618912   -3.077781   -1.532485
     91          6           0      -21.196241   -0.158543    0.362249
     92          6           0      -19.699105   -0.070813   -0.094511
     93          1           0      -18.682089   -0.283234    0.957859
     94          7           0      -27.183809   -1.980363    0.809128
     95          6           0      -26.415679   -3.093824    0.810734
     96          6           0      -27.164212   -4.288810    1.061962
     97          6           0      -28.506981   -3.899742    1.197652
     98          6           0      -28.468301   -2.380519    1.124209
     99          6           0      -26.581691   -5.702370    1.002446
    100          6           0      -29.745307   -4.835195    1.446099
    101          8           0      -29.540112   -6.062865    1.626162
    102          6           0      -31.253005   -4.334844    1.399994
    103          7           0      -28.445037    0.687921    1.182661
    104          6           0      -29.505285   -0.105279    1.471479
    105          6           0      -30.750196    0.676183    1.804733
    106          6           0      -30.313480    2.140787    1.585654
    107          6           0      -28.891071    1.966780    1.047267
    108          6           0      -32.028482    0.236823    1.016450
    109          6           0      -30.487618    3.055472    2.890144
    110          6           0      -31.674535    4.024427    2.838321
    111          7           0      -26.111314    1.876095   -0.183493
    112          6           0      -26.814109    3.086229    0.006812
    113          6           0      -26.068633    4.183268   -0.624307
    114          6           0      -24.914331    3.560122   -1.077758
    115          6           0      -24.959563    2.217356   -0.668099
    116          6           0      -26.404801    5.626567   -0.744803
    117          6           0      -23.637426    3.806451   -1.762830
    118          8           0      -23.226938    4.774061   -2.424556
    119          6           0      -22.842319    2.439604   -1.768066
    120          6           0      -22.577621    1.956840   -3.187847
    121          8           0      -23.371388    1.923379   -4.133469
    122          8           0      -21.250927    1.643500   -3.174169
    123          6           0      -20.649693    1.310316   -4.454655
    124          1           0      -24.525646   -4.005846    0.654662
    125          1           0      -30.513450   -1.863517    1.768342
    126          1           0      -28.528617    4.045548    0.685512
    127          1           0      -21.746574   -0.597040   -1.659520
    128          1           0      -22.129391   -2.433906    0.448456
    129          1           0      -21.874318   -2.884810   -2.304752
    130          1           0      -23.568878   -3.046382   -2.065827
    131          1           0      -22.413999   -4.091907   -1.190272
    132          1           0      -21.248680   -0.694546    1.309515
    133          1           0      -21.587676    0.809707    0.675220
    134          1           0      -19.524229    0.906050   -0.545269
    135          1           0      -19.514225   -0.863450   -0.820872
    136          1           0      -27.180633   -6.233406    0.262947
    137          1           0      -26.474471   -6.098355    2.012371
    138          1           0      -25.597320   -5.568973    0.553847
    139          1           0      -31.469916   -3.942845    2.392976
    140          1           0      -31.859225   -5.220174    1.209615
    141          1           0      -31.341792   -3.719180    0.504501
    142          1           0      -30.975017    0.513455    2.858887
    143          1           0      -30.760722    2.658383    0.737347
    144          1           0      -32.574143    1.095642    0.626540
    145          1           0      -32.719415   -0.343512    1.627671
    146          1           0      -31.738518   -0.458777    0.230028
    147          1           0      -29.632385    3.710208    3.056966
    148          1           0      -30.524316    2.429911    3.781944
    149          1           0      -32.147480    4.078119    3.819062
    150          1           0      -32.404308    3.673024    2.109224
    151          1           0      -31.405572    5.037939    2.541312
    152          1           0      -27.414843    5.758838   -0.356908
    153          1           0      -26.143244    5.987630   -1.739647
    154          1           0      -25.780844    6.138987   -0.011759
    155          1           0      -21.907618    2.500246   -1.209976
    156          1           0      -21.252316    0.635656   -5.064078
    157          1           0      -19.643162    0.892437   -4.436331
    158          1           0      -20.506253    2.219199   -5.039560
 ---------------------------------------------------------------------

 SCF Done:  E(RPBE1PBE) =  -4067.37865296     A.U. after   16 cycles

 Excitation energies and oscillator strengths:

 Excited State   1:      Singlet-A      1.8203 eV  681.13 nm  f=0.3516  <S**2>=0.000
     310 -> 316        0.17694
     312 -> 313        0.69233
     312 <- 313       -0.10910
 This state for optimization and/or second-order correction.
 Total Energy, E(TD-HF/TD-DFT) =  -4067.31175905
 Copying the excited state density for this state as the 1-particle RhoCI density.

 Excited State   2:      Singlet-A      1.8386 eV  674.36 nm  f=0.3577  <S**2>=0.000
     309 -> 315        0.16802
     311 -> 314        0.69268
     311 <- 314       -0.10467

 Excited State   3:      Singlet-A      1.9783 eV  626.71 nm  f=0.0000  <S**2>=0.000
     312 -> 314        0.70711

 Excited State   4:      Singlet-A      1.9914 eV  622.59 nm  f=0.0000  <S**2>=0.000
     311 -> 313        0.70711

 Excited State   5:      Singlet-A      2.2320 eV  555.49 nm  f=0.0924  <S**2>=0.000
     310 -> 313        0.63923
     312 -> 316       -0.29202

 The electronic state is 1-A.
 Alpha  occ. eigenvalues --  -46.92571 -46.91710 -19.27069 -19.25576 -19.20572
 Alpha  occ. eigenvalues --  -19.19691 -19.19651 -19.19626 -19.18903 -19.18270
 Alpha  occ. eigenvalues --  -14.41991 -14.41959 -14.41633 -14.41111 -14.39728
 Alpha  occ. eigenvalues --  -14.39713 -14.39413 -14.38879 -10.37043 -10.35512
 Alpha  occ. eigenvalues --  -10.33691 -10.32682 -10.32604 -10.32109 -10.29713
 Alpha  occ. eigenvalues --  -10.29425 -10.29297 -10.29232 -10.29085 -10.29006
 Alpha  occ. eigenvalues --  -10.29002 -10.28982 -10.28818 -10.28720 -10.28678
 Alpha  occ. eigenvalues --  -10.28469 -10.28285 -10.27831 -10.27797 -10.27712
 Alpha  occ. eigenvalues --  -10.27674 -10.26666 -10.26549 -10.26411 -10.26369
 Alpha  occ. eigenvalues --  -10.26340 -10.26298 -10.26234 -10.26212 -10.26199
 Alpha  occ. eigenvalues --  -10.25984 -10.25961 -10.25947 -10.25946 -10.25925
 Alpha  occ. eigenvalues --  -10.25856 -10.25842 -10.25802 -10.25744 -10.25716
 Alpha  occ. eigenvalues --  -10.25698 -10.25442 -10.25245 -10.25169 -10.24916
 Alpha  occ. eigenvalues --  -10.24804 -10.24702 -10.24629 -10.24609 -10.24488
 Alpha  occ. eigenvalues --  -10.24263 -10.24211 -10.24209 -10.24181 -10.23692
 Alpha  occ. eigenvalues --  -10.23654 -10.23580 -10.23569 -10.23516 -10.23467
 Alpha  occ. eigenvalues --  -10.23449 -10.23231 -10.23211 -10.22959 -10.22817
 Alpha  occ. eigenvalues --  -10.22601  -3.14682  -3.13977  -1.87488  -1.87043
 Alpha  occ. eigenvalues --   -1.86935  -1.86803  -1.86369  -1.86206  -1.11679
 Alpha  occ. eigenvalues --   -1.10734  -1.06142  -1.04822  -1.03249  -1.03127
 Alpha  occ. eigenvalues --   -1.02664  -1.00097  -0.99418  -0.98728  -0.98383
 Alpha  occ. eigenvalues --   -0.98010  -0.97735  -0.96859  -0.96736  -0.96373
 Alpha  occ. eigenvalues --   -0.85869  -0.85212  -0.83481  -0.83171  -0.83094
 Alpha  occ. eigenvalues --   -0.83016  -0.82962  -0.82283  -0.81766  -0.81704
 Alpha  occ. eigenvalues --   -0.81247  -0.81234  -0.80751  -0.80575  -0.78568
 Alpha  occ. eigenvalues --   -0.78385  -0.78215  -0.77856  -0.76783  -0.76632
 Alpha  occ. eigenvalues --   -0.75784  -0.75651  -0.75327  -0.75312  -0.74518
 Alpha  occ. eigenvalues --   -0.74493  -0.72419  -0.72325  -0.71720  -0.71608
 Alpha  occ. eigenvalues --   -0.71243  -0.70976  -0.70271  -0.70236  -0.69609
 Alpha  occ. eigenvalues --   -0.69478  -0.67200  -0.67051  -0.66142  -0.66081
 Alpha  occ. eigenvalues --   -0.64403  -0.63537  -0.63363  -0.63159  -0.62337
 Alpha  occ. eigenvalues --   -0.61961  -0.61566  -0.60651  -0.60567  -0.59884
 Alpha  occ. eigenvalues --   -0.59666  -0.59617  -0.59425  -0.59133  -0.59124
 Alpha  occ. eigenvalues --   -0.58647  -0.57330  -0.56394  -0.54489  -0.54180
 Alpha  occ. eigenvalues --   -0.54107  -0.53918  -0.53544  -0.53478  -0.53195
 Alpha  occ. eigenvalues --   -0.52385  -0.52340  -0.51960  -0.51763  -0.50640
 Alpha  occ. eigenvalues --   -0.50500  -0.50414  -0.50272  -0.49991  -0.49804
 Alpha  occ. eigenvalues --   -0.49629  -0.49571  -0.49149  -0.48501  -0.48404
 Alpha  occ. eigenvalues --   -0.47946  -0.47843  -0.47805  -0.47731  -0.47526
 Alpha  occ. eigenvalues --   -0.47274  -0.47257  -0.46970  -0.46956  -0.46636
 Alpha  occ. eigenvalues --   -0.46597  -0.46197  -0.46136  -0.45897  -0.45738
 Alpha  occ. eigenvalues --   -0.45569  -0.45550  -0.45467  -0.45457  -0.44712
 Alpha  occ. eigenvalues --   -0.44582  -0.44384  -0.44201  -0.44106  -0.43963
 Alpha  occ. eigenvalues --   -0.43874  -0.43841  -0.43674  -0.43558  -0.43215
 Alpha  occ. eigenvalues --   -0.43202  -0.43069  -0.42849  -0.42762  -0.42740
 Alpha  occ. eigenvalues --   -0.42502  -0.42237  -0.42236  -0.42149  -0.42109
 Alpha  occ. eigenvalues --   -0.41982  -0.41503  -0.41497  -0.41347  -0.41292
 Alpha  occ. eigenvalues --   -0.41148  -0.41059  -0.40913  -0.40692  -0.40564
 Alpha  occ. eigenvalues --   -0.40380  -0.40294  -0.40063  -0.39899  -0.39698
 Alpha  occ. eigenvalues --   -0.39532  -0.39220  -0.39185  -0.38998  -0.38815
 Alpha  occ. eigenvalues --   -0.38739  -0.38679  -0.38564  -0.38413  -0.38289
 Alpha  occ. eigenvalues --   -0.38246  -0.38170  -0.37934  -0.37871  -0.37767
 Alpha  occ. eigenvalues --   -0.37713  -0.37317  -0.37224  -0.37127  -0.36984
 Alpha  occ. eigenvalues --   -0.36968  -0.36755  -0.36727  -0.36495  -0.36229
 Alpha  occ. eigenvalues --   -0.36073  -0.35749  -0.35729  -0.35541  -0.35263
 Alpha  occ. eigenvalues --   -0.35138  -0.34666  -0.34541  -0.34238  -0.34022
 Alpha  occ. eigenvalues --   -0.33645  -0.33561  -0.33363  -0.33107  -0.33055
 Alpha  occ. eigenvalues --   -0.32527  -0.32373  -0.31915  -0.31721  -0.31464
 Alpha  occ. eigenvalues --   -0.31078  -0.30659  -0.30045  -0.29748  -0.29108
 Alpha  occ. eigenvalues --   -0.28670  -0.28663  -0.27628  -0.26952  -0.26915
 Alpha  occ. eigenvalues --   -0.26253  -0.26079  -0.25842  -0.25765  -0.25680
 Alpha  occ. eigenvalues --   -0.25608  -0.25521  -0.25395  -0.21080  -0.21040
 Alpha  occ. eigenvalues --   -0.18723  -0.18637
 Alpha virt. eigenvalues --   -0.11156  -0.11119  -0.05529  -0.05495  -0.03989
 Alpha virt. eigenvalues --   -0.03592  -0.02490  -0.02055  -0.01112   0.00240
 Alpha virt. eigenvalues --    0.00604   0.00697   0.00862   0.01360   0.01741

 Mulliken charges:
               1
     1  Mg  12.000241
     2  C    5.983093
     3  C    6.014530
     4  C    6.020955
     5  C    5.999317
     6  N    6.990909
     7  C    6.025946
     8  C    5.995405
     9  C    6.005778
    10  C    5.970213
    11  C    6.001948
    12  C    5.994968
    13  C    5.998363
    14  H    1.000139
    15  N    7.004479
    16  C    5.958349
    17  C    5.984414
    18  C    5.983045
    19  C    5.965857
    20  C    6.005347
    21  C    5.987582
    22  O    7.974495
    23  C    6.003144
    24  N    7.011255
    25  C    5.962830
    26  C    6.006160
    27  C    5.996059
    28  C    6.031056
    29  C    6.004468
    30  C    5.995115
    31  C    5.994506
    32  N    6.997654
    33  C    6.032416
    34  C    6.028570
    35  C    6.002426
    36  C    6.029697
    37  C    5.999513
    38  C    6.015605
    39  O    8.026897
    40  C    6.001981
    41  C    6.003386
    42  O    8.005241
    43  O    8.000122
    44  C    5.998108
    45  H    0.989970
    46  H    0.993707
    47  H    1.011709
    48  H    0.996377
    49  H    1.001290
    50  H    0.997450
    51  H    0.988265
    52  H    1.002313
    53  H    1.008548
    54  H    0.996487
    55  H    0.996740
    56  H    1.005259
    57  H    0.983969
    58  H    0.981442
    59  H    0.982631
    60  H    0.992747
    61  H    0.995261
    62  H    0.986880
    63  H    1.002773
    64  H    0.997872
    65  H    1.000555
    66  H    1.001553
    67  H    0.987849
    68  H    1.009529
    69  H    0.996074
    70  H    1.010265
    71  H    1.007841
    72  H    0.996198
    73  H    1.013496
    74  H    1.017015
    75  H    1.017008
    76  H    1.008451
    77  H    1.004314
    78  H    1.005057
    79  H    1.001523
    80  Mg  12.000013
    81  C    5.999791
    82  C    6.000073
    83  C    6.000171
    84  C    5.999981
    85  N    6.999875
    86  C    6.000240
    87  C    5.999953
    88  C    6.000087
    89  C    5.999712
    90  C    6.000040
    91  C    5.999995
    92  C    6.000016
    93  H    0.999980
    94  N    6.999991
    95  C    5.999720
    96  C    5.999836
    97  C    5.999888
    98  C    5.999771
    99  C    6.000016
   100  C    5.999887
   101  O    7.999814
   102  C    5.999989
   103  N    7.000030
   104  C    5.999760
   105  C    6.000097
   106  C    5.999916
   107  C    6.000293
   108  C    6.000014
   109  C    5.999975
   110  C    5.999993
   111  N    6.999988
   112  C    6.000347
   113  C    6.000204
   114  C    6.000027
   115  C    6.000260
   116  C    5.999977
   117  C    6.000161
   118  O    8.000272
   119  C    6.000019
   120  C    6.000040
   121  O    8.000031
   122  O    8.000010
   123  C    5.999971
   124  H    0.999883
   125  H    0.999962
   126  H    1.000137
   127  H    0.999979
   128  H    0.999922
   129  H    0.999867
   130  H    0.999997
   131  H    0.999973
   132  H    1.000053
   133  H    0.999950
   134  H    0.999964
   135  H    1.000015
   136  H    0.999870
   137  H    0.999832
   138  H    0.999867
   139  H    0.999914
   140  H    0.999907
   141  H    0.999937
   142  H    0.999989
   143  H    1.000000
   144  H    0.999935
   145  H    1.000023
   146  H    1.000020
   147  H    0.999979
   148  H    1.000094
   149  H    1.000058
   150  H    1.000049
   151  H    0.999998
   152  H    1.000134
   153  H    1.000155
   154  H    1.000177
   155  H    1.000041
   156  H    1.000043
   157  H    1.000022
   158  H    1.000024
 Sum of Mulliken charges = 624.00000

 Dipole moment (field-independent basis, Debye):
    X=             -3.5856    Y=             -8.9025    Z=              3.1251  Tot=             10.0934
 Quadrupole moment (field-independent basis, Debye-Ang):
   XX=           -190.6816   YY=             -7.3973   ZZ=              4.5436
   XY=           -241.7423   XZ=             83.4845   YZ=             -2.7274

 Normal termination of Gaussian 16 at Thu Oct 14 17:10:18 2021.
