 Gaussian 16, Revision A.03,
 Gaussian 16:  ES64L-G16RevA.03 25-Dec-2016

 --------------------------------------------------------
 #p PBE1PBE/Def2SVP td=(nstates=5) density=(transition=1)
 --------------------------------------------------------

 --------------------------------
 TDDFT excited states in gaussian
 --------------------------------
 Symbolic Z-matrix:
 Charge =  0 Multiplicity = 1

                         Standard orientation:
 ---------------------------------------------------------------------
 Center     Atomic      Atomic             Coordinates (Angstroms)
 Number     Number       Type             X           Y           Z
 ---------------------------------------------------------------------
      1         12           0      -10.359843    0.513435   -0.167948
      2          6           0       -7.980885   -1.093689   -2.273857
      3          6           0      -11.182665   -2.526117    1.179953
      4          6           0      -11.841326    2.168747    2.536161
      5          6           0       -9.051141    3.616467   -1.171421
      6          7           0       -9.381109   -1.592219   -0.413260
      7          6           0       -8.645265   -2.032728   -1.446814
      8          6           0       -8.825833   -3.532990   -1.588847
      9          6           0       -9.812455   -4.030958   -0.426290
     10          6           0      -10.261135   -2.558929    0.053699
     11          6           0      -10.954682   -4.854976   -1.061969
     12          6           0       -7.484148   -4.246466   -1.545035
     13          6           0       -6.428539   -3.689260   -0.560657
     14          1           0       -6.146334   -4.530093    0.714349
     15          7           0      -11.471804   -0.096846    1.605452
     16          6           0      -11.653111   -1.422057    1.936564
     17          6           0      -12.560266   -1.424859    3.041116
     18          6           0      -12.723941   -0.082010    3.554539
     19          6           0      -12.043684    0.768131    2.544942
     20          6           0      -13.028974   -2.698071    3.706661
     21          6           0      -13.319352    0.344544    4.897272
     22          8           0      -13.693738   -0.496567    5.691551
     23          6           0      -13.455624    1.711755    5.301684
     24          7           0      -10.359019    2.576684    0.644433
     25          6           0      -11.142305    2.982201    1.632978
     26          6           0      -11.027407    4.470106    1.921870
     27          6           0       -9.834418    4.839203    0.938940
     28          6           0       -9.764929    3.660206    0.036814
     29          6           0      -12.372795    5.295932    1.624872
     30          6           0       -8.509149    5.170820    1.767735
     31          6           0       -7.960180    6.569039    1.801387
     32          7           0       -9.068313    1.156489   -1.567179
     33          6           0       -8.723958    2.467824   -1.953587
     34          6           0       -7.846807    2.447256   -3.139007
     35          6           0       -7.586256    1.083141   -3.268082
     36          6           0       -8.226175    0.306292   -2.240074
     37          6           0       -7.414827    3.621666   -4.083526
     38          6           0       -6.822400    0.135681   -4.086142
     39          8           0       -6.089532    0.270016   -5.080005
     40          6           0       -7.048490   -1.299203   -3.505453
     41          6           0       -5.653022   -1.628405   -3.100824
     42          8           0       -4.984188   -0.992082   -2.327424
     43          8           0       -5.201870   -2.655998   -3.814429
     44          6           0       -3.839463   -3.220518   -3.515941
     45          1           0      -11.661767   -3.482369    1.399500
     46          1           0      -12.307514    2.817788    3.280127
     47          1           0       -8.631895    4.612926   -1.328962
     48          1           0       -9.241294   -3.545350   -2.596515
     49          1           0       -9.294111   -4.595164    0.349468
     50          1           0      -10.927785   -5.857027   -0.634335
     51          1           0      -10.871919   -4.986358   -2.141161
     52          1           0      -11.878603   -4.362726   -0.759576
     53          1           0       -7.030709   -4.229879   -2.536143
     54          1           0       -7.612474   -5.283030   -1.231961
     55          1           0       -6.653976   -2.751925   -0.052238
     56          1           0       -5.524019   -3.593289   -1.161378
     57          1           0      -12.563381   -3.580683    3.267373
     58          1           0      -14.119363   -2.696144    3.688603
     59          1           0      -12.808652   -2.606077    4.769614
     60          1           0      -12.520493    2.257057    5.431060
     61          1           0      -13.977784    1.753537    6.257372
     62          1           0      -14.007542    2.152144    4.470589
     63          1           0      -10.655317    4.701481    2.919605
     64          1           0      -10.166558    5.807027    0.562876
     65          1           0      -13.163562    4.607024    1.326462
     66          1           0      -12.166969    5.950075    0.777408
     67          1           0      -12.718955    5.951382    2.425521
     68          1           0       -7.643531    4.656695    1.349864
     69          1           0       -8.613752    4.868307    2.808776
     70          1           0       -7.110512    6.725975    1.136857
     71          1           0       -7.639360    6.609142    2.842853
     72          1           0       -8.712069    7.357911    1.774626
     73          1           0       -6.654359    4.201805   -3.561527
     74          1           0       -8.318383    4.176732   -4.336225
     75          1           0       -6.925581    3.194821   -4.958863
     76          1           0       -7.473299   -1.887527   -4.319617
     77          1           0       -3.038739   -2.684996   -4.026508
     78          1           0       -3.775106   -4.269374   -3.808374
     79          1           0       -3.743273   -3.149361   -2.432542
     80         12           0        9.850031    0.311867    0.402225
     81          6           0        7.327922   -1.949612   -0.595227
     82          6           0        9.489800    2.000579   -2.546783
     83          6           0       12.633701    1.927227    1.117679
     84          6           0       10.462136   -1.799136    3.186977
     85          7           0        8.454293    0.092595   -1.312640
     86          6           0        7.553981   -0.858068   -1.467071
     87          6           0        6.610748   -0.443363   -2.581848
     88          6           0        7.497797    0.515930   -3.465406
     89          6           0        8.578171    0.913397   -2.391633
     90          6           0        8.001062   -0.207385   -4.772039
     91          6           0        5.379776    0.340094   -2.058045
     92          6           0        4.118172    0.372540   -3.028203
     93          1           0        4.137406   -0.297316   -4.404822
     94          7           0       10.778426    1.870671   -0.458526
     95          6           0       10.459465    2.527440   -1.674689
     96          6           0       11.385991    3.671754   -1.839635
     97          6           0       12.369653    3.592131   -0.789447
     98          6           0       11.987268    2.435699    0.049625
     99          6           0       11.266454    4.685210   -2.922562
    100          6           0       13.623962    4.477928   -0.424762
    101          8           0       14.319144    4.314211    0.587140
    102          6           0       14.092111    5.493561   -1.426292
    103          7           0       11.426184    0.024237    1.892754
    104          6           0       12.430541    0.851910    2.008426
    105          6           0       13.350531    0.586732    3.167050
    106          6           0       12.660381   -0.641420    3.858168
    107          6           0       11.370637   -0.780993    2.988551
    108          6           0       14.809038    0.457418    2.718113
    109          6           0       12.314275   -0.434823    5.327410
    110          6           0       12.547048   -1.657586    6.285468
    111          7           0        9.040985   -1.507055    1.265724
    112          6           0        9.381033   -2.213581    2.435998
    113          6           0        8.411535   -3.232000    2.651522
    114          6           0        7.681072   -3.307596    1.422902
    115          6           0        8.057187   -2.233818    0.656342
    116          6           0        8.213011   -3.996962    3.928575
    117          6           0        6.571850   -3.909159    0.644320
    118          8           0        5.860494   -4.857148    0.904605
    119          6           0        6.522734   -3.178622   -0.781053
    120          6           0        5.127925   -3.155577   -1.314976
    121          8           0        4.179507   -2.627326   -0.813855
    122          8           0        5.012544   -3.938760   -2.478661
    123          6           0        3.703184   -4.583128   -2.714909
    124          1           0        9.567777    2.464351   -3.532756
    125          1           0       13.482347    2.482217    1.521448
    126          1           0       10.630716   -2.382708    4.094516
    127          1           0        6.252258   -1.399598   -2.962754
    128          1           0        6.946097    1.406442   -3.768469
    129          1           0        7.646191   -1.237230   -4.793682
    130          1           0        9.075557   -0.296819   -4.612010
    131          1           0        7.675853    0.254810   -5.704172
    132          1           0        5.747317    1.359231   -1.931365
    133          1           0        5.123648   -0.080903   -1.085866
    134          1           0        3.896420    1.434124   -3.147716
    135          1           0        3.303339   -0.040409   -2.433045
    136          1           0       10.367888    4.701619   -3.538286
    137          1           0       12.053069    4.586737   -3.670129
    138          1           0       11.304922    5.635595   -2.389636
    139          1           0       13.603859    6.463864   -1.336880
    140          1           0       13.853178    4.954745   -2.344008
    141          1           0       15.172785    5.558233   -1.302556
    142          1           0       13.217987    1.488392    3.764858
    143          1           0       13.239494   -1.562464    3.804364
    144          1           0       14.925863    0.139485    1.681619
    145          1           0       15.227232   -0.334528    3.338176
    146          1           0       15.372158    1.382350    2.844540
    147          1           0       11.268062   -0.154600    5.448771
    148          1           0       12.824364    0.492662    5.587134
    149          1           0       12.804497   -2.558095    5.728140
    150          1           0       11.581013   -1.810061    6.766292
    151          1           0       13.282102   -1.566616    7.085844
    152          1           0        9.210959   -4.335335    4.207745
    153          1           0        7.566211   -4.869959    3.839357
    154          1           0        7.871774   -3.323388    4.715322
    155          1           0        7.007512   -3.822056   -1.514580
    156          1           0        3.282299   -4.156396   -3.625446
    157          1           0        3.022430   -4.460227   -1.871830
    158          1           0        3.928456   -5.639881   -2.858302
 ---------------------------------------------------------------------

 SCF Done:  E(RPBE1PBE) =  -4067.32597492     A.U. after   17 cycles

 Excitation energies and oscillator strengths:

 Excited State   1:      Singlet-A      1.8531 eV  669.08 nm  f=0.3455  <S**2>=0.000
     309 -> 315        0.19388
     311 -> 313        0.68724
 This state for optimization and/or second-order correction.
 Total Energy, E(TD-HF/TD-DFT) =  -4067.25787597
 Copying the excited state density for this state as the 1-particle RhoCI density.

 Excited State   2:      Singlet-A      1.8890 eV  656.35 nm  f=0.3567  <S**2>=0.000
     310 -> 316        0.18711
     312 -> 314        0.68569

 Excited State   3:      Singlet-A      1.9022 eV  651.79 nm  f=0.0000  <S**2>=0.000
     312 -> 313        0.70708

 Excited State   4:      Singlet-A      1.9779 eV  626.84 nm  f=0.0000  <S**2>=0.000
     311 -> 314        0.70709

 Excited State   5:      Singlet-A      2.1345 eV  580.86 nm  f=0.0945  <S**2>=0.000
     310 -> 314        0.65951
     312 -> 316       -0.23090

 The electronic state is 1-A.
 Alpha  occ. eigenvalues --  -46.93480 -46.91860 -19.25547 -19.24012 -19.20132
 Alpha  occ. eigenvalues --  -19.19805 -19.19027 -19.18918 -19.18845 -19.18165
 Alpha  occ. eigenvalues --  -14.41818 -14.41399 -14.41360 -14.41065 -14.39741
 Alpha  occ. eigenvalues --  -14.39235 -14.39093 -14.37839 -10.35621 -10.35583
 Alpha  occ. eigenvalues --  -10.33562 -10.32213 -10.32079 -10.31316 -10.29663
 Alpha  occ. eigenvalues --  -10.29572 -10.29492 -10.29031 -10.28728 -10.28699
 Alpha  occ. eigenvalues --  -10.28451 -10.28408 -10.28257 -10.28187 -10.28106
 Alpha  occ. eigenvalues --  -10.27976 -10.27918 -10.27781 -10.27708 -10.27605
 Alpha  occ. eigenvalues --  -10.27369 -10.26604 -10.26475 -10.26433 -10.26421
 Alpha  occ. eigenvalues --  -10.26202 -10.25931 -10.25915 -10.25864 -10.25850
 Alpha  occ. eigenvalues --  -10.25780 -10.25699 -10.25654 -10.25602 -10.25583
 Alpha  occ. eigenvalues --  -10.25533 -10.25472 -10.25468 -10.25467 -10.25375
 Alpha  occ. eigenvalues --  -10.25368 -10.25103 -10.25033 -10.24990 -10.24626
 Alpha  occ. eigenvalues --  -10.24481 -10.24463 -10.24360 -10.24239 -10.24014
 Alpha  occ. eigenvalues --  -10.24003 -10.23882 -10.23853 -10.23759 -10.23545
 Alpha  occ. eigenvalues --  -10.23530 -10.23457 -10.23423 -10.23342 -10.23262
 Alpha  occ. eigenvalues --  -10.23164 -10.22893 -10.22838 -10.22805 -10.22511
 Alpha  occ. eigenvalues --  -10.22369  -3.15374  -3.13904  -1.88175  -1.87778
 Alpha  occ. eigenvalues --   -1.87573  -1.86757  -1.86277  -1.86124  -1.11670
 Alpha  occ. eigenvalues --   -1.10001  -1.04837  -1.04817  -1.04533  -1.03462
 Alpha  occ. eigenvalues --   -1.02366  -1.01900  -0.99636  -0.99117  -0.99045
 Alpha  occ. eigenvalues --   -0.98166  -0.96982  -0.96607  -0.96123  -0.95221
 Alpha  occ. eigenvalues --   -0.86293  -0.86194  -0.83511  -0.83158  -0.83034
 Alpha  occ. eigenvalues --   -0.82922  -0.82466  -0.81891  -0.81546  -0.81414
 Alpha  occ. eigenvalues --   -0.81299  -0.80384  -0.79999  -0.79514  -0.78803
 Alpha  occ. eigenvalues --   -0.78244  -0.78118  -0.78052  -0.76976  -0.76735
 Alpha  occ. eigenvalues --   -0.76717  -0.75851  -0.75309  -0.74982  -0.74493
 Alpha  occ. eigenvalues --   -0.74157  -0.72659  -0.72138  -0.71529  -0.71459
 Alpha  occ. eigenvalues --   -0.70732  -0.70593  -0.70435  -0.69711  -0.69330
 Alpha  occ. eigenvalues --   -0.69202  -0.67204  -0.66949  -0.66088  -0.66080
 Alpha  occ. eigenvalues --   -0.64157  -0.63112  -0.62918  -0.62841  -0.62409
 Alpha  occ. eigenvalues --   -0.61684  -0.61034  -0.60891  -0.60363  -0.59919
 Alpha  occ. eigenvalues --   -0.59505  -0.59496  -0.59225  -0.58992  -0.58456
 Alpha  occ. eigenvalues --   -0.57989  -0.56871  -0.55688  -0.54752  -0.54457
 Alpha  occ. eigenvalues --   -0.53750  -0.53694  -0.53494  -0.53040  -0.52952
 Alpha  occ. eigenvalues --   -0.52608  -0.52297  -0.52139  -0.51726  -0.51440
 Alpha  occ. eigenvalues --   -0.50861  -0.50626  -0.50250  -0.49982  -0.49681
 Alpha  occ. eigenvalues --   -0.49479  -0.49346  -0.48993  -0.48720  -0.48361
 Alpha  occ. eigenvalues --   -0.47999  -0.47721  -0.47686  -0.47607  -0.47590
 Alpha  occ. eigenvalues --   -0.47297  -0.47087  -0.46835  -0.46717  -0.46556
 Alpha  occ. eigenvalues --   -0.46548  -0.46288  -0.46262  -0.45972  -0.45850
 Alpha  occ. eigenvalues --   -0.45670  -0.45298  -0.45096  -0.44992  -0.44784
 Alpha  occ. eigenvalues --   -0.44721  -0.44465  -0.44246  -0.44167  -0.43965
 Alpha  occ. eigenvalues --   -0.43919  -0.43696  -0.43661  -0.43430  -0.43024
 Alpha  occ. eigenvalues --   -0.42921  -0.42894  -0.42800  -0.42599  -0.42381
 Alpha  occ. eigenvalues --   -0.42362  -0.42110  -0.41892  -0.41870  -0.41687
 Alpha  occ. eigenvalues --   -0.41536  -0.41521  -0.41225  -0.41019  -0.40982
 Alpha  occ. eigenvalues --   -0.40944  -0.40839  -0.40417  -0.40326  -0.40237
 Alpha  occ. eigenvalues --   -0.40185  -0.39982  -0.39827  -0.39793  -0.39698
 Alpha  occ. eigenvalues --   -0.39696  -0.39436  -0.39076  -0.39035  -0.38662
 Alpha  occ. eigenvalues --   -0.38589  -0.38468  -0.38467  -0.38253  -0.37960
 Alpha  occ. eigenvalues --   -0.37890  -0.37861  -0.37629  -0.37453  -0.37339
 Alpha  occ. eigenvalues --   -0.37160  -0.36917  -0.36792  -0.36774  -0.36509
 Alpha  occ. eigenvalues --   -0.36381  -0.36250  -0.36222  -0.36109  -0.36000
 Alpha  occ. eigenvalues --   -0.35938  -0.35784  -0.35608  -0.35056  -0.34921
 Alpha  occ. eigenvalues --   -0.34848  -0.34835  -0.34635  -0.33893  -0.33563
 Alpha  occ. eigenvalues --   -0.33525  -0.32804  -0.32680  -0.32447  -0.32301
 Alpha  occ. eigenvalues --   -0.31980  -0.31633  -0.31360  -0.31300  -0.30749
 Alpha  occ. eigenvalues --   -0.30555  -0.30359  -0.29325  -0.29167  -0.29009
 Alpha  occ. eigenvalues --   -0.28956  -0.28699  -0.28372  -0.26914  -0.26593
 Alpha  occ. eigenvalues --   -0.26309  -0.25920  -0.25704  -0.25429  -0.25285
 Alpha  occ. eigenvalues --   -0.25280  -0.24390  -0.24190  -0.21125  -0.20514
 Alpha  occ. eigenvalues --   -0.18887  -0.18820
 Alpha virt. eigenvalues --   -0.11169  -0.10968  -0.05829  -0.05435  -0.04122
 Alpha virt. eigenvalues --   -0.03868  -0.01972  -0.01692  -0.01576   0.00057
 Alpha virt. eigenvalues --    0.00333   0.00516   0.01131   0.01405   0.02428

 Mulliken charges:
               1
     1  Mg  11.994597
     2  C    5.988775
     3  C    6.023783
     4  C    6.013007
     5  C    5.981507
     6  N    6.993772
     7  C    6.026851
     8  C    5.998958
     9  C    6.013536
    10  C    5.959674
    11  C    6.000851
    12  C    5.997329
    13  C    5.992927
    14  H    1.012903
    15  N    7.008203
    16  C    5.959145
    17  C    5.981967
    18  C    5.989511
    19  C    5.964976
    20  C    6.003009
    21  C    5.988377
    22  O    7.982932
    23  C    6.003678
    24  N    6.996382
    25  C    5.973782
    26  C    6.012181
    27  C    5.985791
    28  C    6.036888
    29  C    6.002616
    30  C    5.999341
    31  C    5.998395
    32  N    6.996776
    33  C    6.039701
    34  C    6.026283
    35  C    6.001716
    36  C    6.029697
    37  C    6.004163
    38  C    6.016015
    39  O    8.032140
    40  C    5.999798
    41  C    6.006397
    42  O    8.002513
    43  O    8.001323
    44  C    5.998349
    45  H    0.993488
    46  H    0.990442
    47  H    1.008854
    48  H    0.994477
    49  H    0.994611
    50  H    0.995924
    51  H    0.989928
    52  H    1.003986
    53  H    0.995128
    54  H    1.007281
    55  H    0.999957
    56  H    0.996185
    57  H    0.982207
    58  H    0.981970
    59  H    0.984490
    60  H    0.989469
    61  H    0.988382
    62  H    0.993610
    63  H    0.998416
    64  H    1.004343
    65  H    1.003240
    66  H    0.988448
    67  H    0.998586
    68  H    0.996520
    69  H    1.012502
    70  H    0.997564
    71  H    1.004801
    72  H    1.004377
    73  H    1.015511
    74  H    1.013935
    75  H    1.009796
    76  H    1.009388
    77  H    1.001871
    78  H    1.005601
    79  H    1.004193
    80  Mg  12.000076
    81  C    5.999151
    82  C    5.999116
    83  C    6.000752
    84  C    6.000708
    85  N    6.999604
    86  C    6.000204
    87  C    5.999996
    88  C    5.999962
    89  C    6.000164
    90  C    5.999982
    91  C    6.000052
    92  C    6.000165
    93  H    0.999376
    94  N    6.999999
    95  C    6.000253
    96  C    5.999874
    97  C    6.000306
    98  C    5.999875
    99  C    6.000061
   100  C    6.000102
   101  O    8.000184
   102  C    5.999984
   103  N    7.000310
   104  C    5.999833
   105  C    5.999986
   106  C    6.000070
   107  C    5.999833
   108  C    5.999884
   109  C    5.999785
   110  C    5.999954
   111  N    6.999872
   112  C    5.999931
   113  C    6.000347
   114  C    5.999935
   115  C    6.000154
   116  C    5.999929
   117  C    5.999985
   118  O    8.000106
   119  C    6.000119
   120  C    5.999881
   121  O    7.999366
   122  O    8.000215
   123  C    6.000099
   124  H    0.999725
   125  H    1.000384
   126  H    1.000508
   127  H    0.999799
   128  H    0.999416
   129  H    0.999874
   130  H    1.000419
   131  H    0.999589
   132  H    1.000133
   133  H    1.000159
   134  H    0.999268
   135  H    0.999063
   136  H    0.999745
   137  H    1.000128
   138  H    1.000024
   139  H    1.000097
   140  H    1.000015
   141  H    1.000292
   142  H    1.000173
   143  H    1.000222
   144  H    1.000042
   145  H    1.000337
   146  H    1.000201
   147  H    1.000036
   148  H    1.000232
   149  H    1.000064
   150  H    1.000176
   151  H    1.000355
   152  H    1.000283
   153  H    1.000280
   154  H    1.000286
   155  H    1.000003
   156  H    0.998982
   157  H    0.999627
   158  H    1.000521
 Sum of Mulliken charges = 624.00000

 Dipole moment (field-independent basis, Debye):
    X=              6.3218    Y=              2.9013    Z=             -7.0682  Tot=              9.9167
 Quadrupole moment (field-independent basis, Debye-Ang):
   XX=           -119.2262   YY=              3.9523   ZZ=             -0.3042
   XY=            -28.3065   XZ=             74.1701   YZ=             -3.2077

 Normal termination of Gaussian 16 at Wed Oct 13 23:15:20 2021.
