 Gaussian 16, Revision A.03,
 Gaussian 16:  ES64L-G16RevA.03 25-Dec-2016

 --------------------------------------------------------
 #p PBE1PBE/Def2SVP td=(nstates=5) density=(transition=1)
 --------------------------------------------------------

 --------------------------------
 TDDFT excited states in gaussian
 --------------------------------
 Symbolic Z-matrix:
 Charge =  0 Multiplicity = 1

                         Standard orientation:
 ---------------------------------------------------------------------
 Center     Atomic      Atomic             Coordinates (Angstroms)
 Number     Number       Type             X           Y           Z
 ---------------------------------------------------------------------
      1         12           0       -0.662059    0.019618   -0.289607
      2          6           0        2.738213    0.303519    0.285794
      3          6           0       -0.406963   -3.412649    0.054237
      4          6           0       -4.029591   -0.112234   -0.096793
      5          6           0       -0.752217    3.545067   -0.262663
      6          7           0        0.950204   -1.369560    0.409732
      7          6           0        2.237409   -1.013307    0.377965
      8          6           0        3.137422   -2.226563    0.767417
      9          6           0        2.165634   -3.450346    0.417520
     10          6           0        0.790404   -2.710815    0.199613
     11          6           0        2.690873   -4.323340   -0.747605
     12          6           0        3.440521   -2.204810    2.248319
     13          6           0        4.862299   -2.584347    2.631866
     14          1           0        5.203149   -3.424286    3.920063
     15          7           0       -2.021986   -1.625107   -0.224554
     16          6           0       -1.759275   -2.926507   -0.014548
     17          6           0       -3.001948   -3.626949   -0.050724
     18          6           0       -4.072821   -2.708951   -0.272967
     19          6           0       -3.413260   -1.397609   -0.244558
     20          6           0       -3.059117   -5.109791   -0.065807
     21          6           0       -5.510927   -3.088747   -0.277810
     22          8           0       -5.835864   -4.261090   -0.188656
     23          6           0       -6.610697   -2.050000   -0.462454
     24          7           0       -2.226027    1.588174   -0.277977
     25          6           0       -3.523962    1.205927   -0.118260
     26          6           0       -4.390790    2.388884    0.167792
     27          6           0       -3.307968    3.568011    0.117591
     28          6           0       -1.988962    2.922108   -0.227102
     29          6           0       -5.596984    2.549458   -0.776354
     30          6           0       -3.219565    4.489518    1.413720
     31          6           0       -3.299255    6.029340    1.290370
     32          7           0        0.659940    1.596321   -0.072667
     33          6           0        0.493232    2.942957   -0.156506
     34          6           0        1.728757    3.569202   -0.326297
     35          6           0        2.694742    2.582331   -0.187078
     36          6           0        2.001178    1.419763    0.038274
     37          6           0        1.925271    5.105207   -0.487094
     38          6           0        4.052735    2.297195   -0.190531
     39          8           0        4.990236    3.085921   -0.236972
     40          6           0        4.237398    0.744854    0.170349
     41          6           0        4.818439    0.016757   -0.899313
     42          8           0        4.334885   -0.382707   -1.961246
     43          8           0        6.139461   -0.217045   -0.529856
     44          6           0        7.039401   -0.946399   -1.406784
     45          1           0       -0.312954   -4.499277    0.005296
     46          1           0       -5.114655    0.003212   -0.044948
     47          1           0       -0.890604    4.624363   -0.355611
     48          1           0        4.056119   -2.160198    0.185246
     49          1           0        1.930073   -4.087793    1.269119
     50          1           0        3.582777   -3.894756   -1.204262
     51          1           0        1.908130   -4.436947   -1.498287
     52          1           0        2.881396   -5.319555   -0.349074
     53          1           0        2.784154   -2.773888    2.906989
     54          1           0        3.172455   -1.196197    2.562820
     55          1           0        5.439592   -1.659970    2.623346
     56          1           0        5.169516   -3.153335    1.754402
     57          1           0       -3.170809   -5.332692   -1.126746
     58          1           0       -3.893913   -5.484567    0.526752
     59          1           0       -2.156760   -5.578548    0.326922
     60          1           0       -6.739229   -1.582432    0.513861
     61          1           0       -7.527355   -2.619061   -0.615460
     62          1           0       -6.350955   -1.347918   -1.254634
     63          1           0       -4.702841    2.150299    1.184039
     64          1           0       -3.566791    4.317871   -0.629974
     65          1           0       -6.471864    2.263798   -0.191396
     66          1           0       -5.506756    1.955451   -1.686399
     67          1           0       -5.716602    3.601962   -1.032164
     68          1           0       -2.270512    4.287479    1.910079
     69          1           0       -4.022676    4.297368    2.125532
     70          1           0       -2.239404    6.253559    1.170475
     71          1           0       -3.646125    6.466942    2.225576
     72          1           0       -3.716851    6.486805    0.393562
     73          1           0        1.761927    5.575917    0.481524
     74          1           0        1.215702    5.614400   -1.139559
     75          1           0        2.939059    5.335580   -0.815776
     76          1           0        4.812894    0.724389    1.095943
     77          1           0        8.039981   -0.551434   -1.233590
     78          1           0        6.746414   -0.971525   -2.456705
     79          1           0        7.096628   -1.970275   -1.037049
 ---------------------------------------------------------------------

 SCF Done:  E(RPBE1PBE) =  -2033.66727076     A.U. after   15 cycles

 Excitation energies and oscillator strengths:

 Excited State   1:      Singlet-A      1.8606 eV  666.38 nm  f=0.3878  <S**2>=0.000
     155 ->158        -0.17795
     156 ->157         0.69233
     156 <-157        -0.11026
 This state for optimization and/or second-order correction.
 Total Energy, E(TD-HF/TD-DFT) =  -2033.59889674
 Copying the excited state density for this state as the 1-particle RhoCI density.

 Excited State   2:      Singlet-A      2.2365 eV  554.37 nm  f=0.0967  <S**2>=0.000
     155 ->157         0.64822
     156 ->158         0.26569

 Excited State   3:      Singlet-A      2.8816 eV  430.26 nm  f=0.0054  <S**2>=0.000
     154 ->157         0.68892

 Excited State   4:      Singlet-A      2.9624 eV  418.53 nm  f=0.0000  <S**2>=0.000
     152 ->157         0.11763
     153 ->157         0.66330
     153 ->159         0.10919
     153 ->160         0.10708

 Excited State   5:      Singlet-A      2.9750 eV  416.75 nm  f=0.0019  <S**2>=0.000
     151 ->157         0.26596
     151 ->159        -0.11442
     152 ->157         0.60467
     152 ->159        -0.13103
     153 ->157        -0.12977

 The electronic state is 1-A.
 Alpha  occ. eigenvalues --  -46.93070 -19.25270 -19.20347 -19.19519 -19.18609
 Alpha  occ. eigenvalues --  -14.41884 -14.41509 -14.39474 -14.38885 -10.36523
 Alpha  occ. eigenvalues --  -10.32365 -10.31791 -10.29279 -10.29155 -10.29050
 Alpha  occ. eigenvalues --  -10.28876 -10.28781 -10.28632 -10.27489 -10.27124
 Alpha  occ. eigenvalues --  -10.26337 -10.26317 -10.26210 -10.26154 -10.26126
 Alpha  occ. eigenvalues --  -10.26009 -10.25993 -10.25963 -10.25668 -10.25482
 Alpha  occ. eigenvalues --  -10.25464 -10.25079 -10.24630 -10.24468 -10.24377
 Alpha  occ. eigenvalues --  -10.24364 -10.23959 -10.23644 -10.23362 -10.23358
 Alpha  occ. eigenvalues --  -10.23316 -10.22541 -10.22400  -3.14979  -1.87832
 Alpha  occ. eigenvalues --   -1.87348  -1.87194  -1.10438  -1.04799  -1.04760
 Alpha  occ. eigenvalues --   -1.02272  -1.00202  -0.98716  -0.98489  -0.97317
 Alpha  occ. eigenvalues --   -0.88284  -0.83818  -0.83394  -0.82697  -0.82252
 Alpha  occ. eigenvalues --   -0.81248  -0.80563  -0.79724  -0.78910  -0.77336
 Alpha  occ. eigenvalues --   -0.76481  -0.75836  -0.75097  -0.72531  -0.71939
 Alpha  occ. eigenvalues --   -0.70879  -0.70794  -0.69544  -0.67943  -0.66881
 Alpha  occ. eigenvalues --   -0.64335  -0.63671  -0.62555  -0.61779  -0.60564
 Alpha  occ. eigenvalues --   -0.60337  -0.60068  -0.59432  -0.57245  -0.55062
 Alpha  occ. eigenvalues --   -0.54519  -0.53713  -0.53517  -0.52834  -0.52627
 Alpha  occ. eigenvalues --   -0.50950  -0.50664  -0.50103  -0.49376  -0.48926
 Alpha  occ. eigenvalues --   -0.48238  -0.47998  -0.47174  -0.46913  -0.46729
 Alpha  occ. eigenvalues --   -0.46525  -0.46360  -0.46111  -0.45859  -0.45015
 Alpha  occ. eigenvalues --   -0.44731  -0.44546  -0.44254  -0.44085  -0.43719
 Alpha  occ. eigenvalues --   -0.43679  -0.43044  -0.42956  -0.42213  -0.41605
 Alpha  occ. eigenvalues --   -0.41523  -0.41427  -0.41340  -0.40842  -0.40689
 Alpha  occ. eigenvalues --   -0.40535  -0.40239  -0.40098  -0.39799  -0.39498
 Alpha  occ. eigenvalues --   -0.39308  -0.38709  -0.38460  -0.38273  -0.37977
 Alpha  occ. eigenvalues --   -0.37796  -0.37042  -0.36887  -0.36806  -0.36686
 Alpha  occ. eigenvalues --   -0.36386  -0.35885  -0.35213  -0.34656  -0.33270
 Alpha  occ. eigenvalues --   -0.33179  -0.32973  -0.32429  -0.32251  -0.31157
 Alpha  occ. eigenvalues --   -0.30697  -0.29817  -0.29562  -0.29049  -0.27447
 Alpha  occ. eigenvalues --   -0.26424  -0.25928  -0.25505  -0.25097  -0.21513
 Alpha  occ. eigenvalues --   -0.19218
 Alpha virt. eigenvalues --   -0.11655  -0.05771  -0.04410  -0.02107  -0.00430
 Alpha virt. eigenvalues --   -0.00219   0.00476   0.01369   0.02545   0.03978
 Alpha virt. eigenvalues --    0.04590   0.05232   0.05537   0.05941   0.06896

 Mulliken charges:
               1
     1  Mg  12.002538
     2  C    6.000967
     3  C    5.973890
     4  C    5.992510
     5  C    6.022892
     6  N    6.986376
     7  C    5.981175
     8  C    6.007513
     9  C    5.990909
    10  C    6.038072
    11  C    5.999628
    12  C    6.000778
    13  C    6.002631
    14  H    0.990795
    15  N    6.998262
    16  C    6.042113
    17  C    6.022982
    18  C    6.010087
    19  C    6.033637
    20  C    5.995783
    21  C    6.009974
    22  O    8.017305
    23  C    5.997806
    24  N    7.008247
    25  C    6.026535
    26  C    5.990078
    27  C    6.009040
    28  C    5.966342
    29  C    5.996613
    30  C    6.002306
    31  C    5.997720
    32  N    6.997101
    33  C    5.969456
    34  C    5.970224
    35  C    5.996923
    36  C    5.981662
    37  C    5.998808
    38  C    5.982350
    39  O    7.968802
    40  C    5.995697
    41  C    5.998924
    42  O    7.988992
    43  O    7.998013
    44  C    6.003490
    45  H    1.005112
    46  H    1.011190
    47  H    0.994332
    48  H    1.001606
    49  H    0.999153
    50  H    1.011093
    51  H    0.995630
    52  H    1.001229
    53  H    0.989220
    54  H    1.005920
    55  H    1.004604
    56  H    0.996327
    57  H    1.021079
    58  H    1.016683
    59  H    1.020841
    60  H    1.009365
    61  H    1.012204
    62  H    1.007495
    63  H    0.999472
    64  H    0.999374
    65  H    0.999203
    66  H    0.998989
    67  H    1.011041
    68  H    1.004850
    69  H    0.990792
    70  H    1.007273
    71  H    0.997390
    72  H    0.997425
    73  H    0.980879
    74  H    0.980739
    75  H    0.988962
    76  H    0.990627
    77  H    0.996076
    78  H    0.995598
    79  H    0.992278
 Sum of Mulliken charges = 312.00000

 Dipole moment (field-independent basis, Debye):
    X=             -7.8886    Y=             -6.9043    Z=             -0.1519  Tot=             10.4844
 Quadrupole moment (field-independent basis, Debye-Ang):
   XX=              6.2901   YY=              1.2535   ZZ=             -0.9936
   XY=              6.2899   XZ=              1.8564   YZ=              2.0215

 Normal termination of Gaussian 16 at Wed Oct 13 19:07:02 2021.
