 Gaussian 16, Revision A.03,
 Gaussian 16:  ES64L-G16RevA.03 25-Dec-2016

 --------------------------------------------------------
 #p PBE1PBE/Def2SVP td=(nstates=5) density=(transition=1)
 --------------------------------------------------------

 --------------------------------
 TDDFT excited states in gaussian
 --------------------------------
 Symbolic Z-matrix:
 Charge =  0 Multiplicity = 1

                         Standard orientation:
 ---------------------------------------------------------------------
 Center     Atomic      Atomic             Coordinates (Angstroms)
 Number     Number       Type             X           Y           Z
 ---------------------------------------------------------------------
      1         12           0       19.783052    0.137929    0.475088
      2          6           0       17.576423   -1.247106   -1.875982
      3          6           0       21.055445    2.190858   -1.824479
      4          6           0       21.795237    1.232392    2.761326
      5          6           0       19.048135   -2.771708    2.495629
      6          7           0       19.395972    0.324182   -1.636253
      7          6           0       18.386594   -0.174445   -2.361057
      8          6           0       18.445979    0.278529   -3.797066
      9          6           0       19.820312    1.059036   -3.849804
     10          6           0       20.111248    1.223135   -2.370608
     11          6           0       21.010646    0.419597   -4.635792
     12          6           0       17.230228    1.288247   -4.122408
     13          6           0       16.470236    0.941369   -5.444466
     14          1           0       15.082501    1.774689   -5.571581
     15          7           0       21.010037    1.644663    0.533806
     16          6           0       21.407786    2.445260   -0.523361
     17          6           0       22.135045    3.567064    0.003623
     18          6           0       22.379640    3.370363    1.424223
     19          6           0       21.624135    2.087087    1.692111
     20          6           0       22.669761    4.645933   -0.981496
     21          6           0       23.112243    4.131748    2.523087
     22          8           0       23.136942    3.840827    3.732640
     23          6           0       23.740412    5.385801    2.027030
     24          7           0       20.403449   -0.792552    2.258763
     25          6           0       21.285216   -0.050926    3.005569
     26          6           0       21.730189   -0.820235    4.249891
     27          6           0       20.642315   -1.923124    4.330929
     28          6           0       20.019587   -1.890194    2.933849
     29          6           0       23.242462   -1.255016    4.104487
     30          6           0       19.556129   -1.749212    5.475710
     31          6           0       18.847001   -3.025377    5.956482
     32          7           0       18.543315   -1.647311    0.396252
     33          6           0       18.378681   -2.674038    1.275870
     34          6           0       17.333673   -3.573252    0.840357
     35          6           0       16.954429   -2.978990   -0.377202
     36          6           0       17.751821   -1.855712   -0.639161
     37          6           0       16.735234   -4.851207    1.471935
     38          6           0       16.026258   -3.112523   -1.465153
     39          8           0       15.051314   -3.795068   -1.641808
     40          6           0       16.531653   -2.054635   -2.577401
     41          6           0       15.254499   -1.474992   -3.001629
     42          8           0       14.585605   -0.555341   -2.466024
     43          8           0       14.916538   -2.155784   -4.110303
     44          6           0       13.647076   -1.831561   -4.762529
     45          1           0       21.413284    2.927714   -2.546796
     46          1           0       22.415003    1.637847    3.564039
     47          1           0       18.796667   -3.577371    3.188540
     48          1           0       18.378683   -0.518135   -4.538463
     49          1           0       19.775781    2.082457   -4.222743
     50          1           0       21.760045    0.110657   -3.907076
     51          1           0       21.403049    1.224768   -5.256690
     52          1           0       20.819127   -0.458933   -5.250917
     53          1           0       17.483187    2.349050   -4.136722
     54          1           0       16.582345    1.272000   -3.245933
     55          1           0       16.233389   -0.121735   -5.481738
     56          1           0       16.990492    1.210724   -6.363326
     57          1           0       21.904356    5.414055   -1.083222
     58          1           0       22.696397    4.315502   -2.020590
     59          1           0       23.700329    4.973597   -0.846878
     60          1           0       23.040601    6.113267    1.617262
     61          1           0       24.458869    5.004803    1.300222
     62          1           0       24.337126    5.903983    2.778242
     63          1           0       21.656530   -0.104544    5.068814
     64          1           0       21.118245   -2.880380    4.543462
     65          1           0       23.310374   -2.327745    3.923985
     66          1           0       23.919030   -1.083839    4.941377
     67          1           0       23.781880   -0.871184    3.238324
     68          1           0       18.769789   -1.185802    4.972646
     69          1           0       19.857279   -1.223604    6.382137
     70          1           0       17.784570   -3.022893    5.709455
     71          1           0       18.884972   -3.288635    7.013729
     72          1           0       19.252742   -3.826908    5.340807
     73          1           0       17.514851   -5.251870    2.119831
     74          1           0       16.454582   -5.574145    0.704831
     75          1           0       15.886435   -4.525289    2.073024
     76          1           0       16.958065   -2.591581   -3.424912
     77          1           0       13.862642   -1.343840   -5.713032
     78          1           0       12.968666   -1.293755   -4.101097
     79          1           0       13.165080   -2.766133   -5.049236
     80         12           0      -19.749326   -0.438388   -0.206413
     81          6           0      -18.298309    2.758195    0.057877
     82          6           0      -16.606845   -1.577318   -1.166341
     83          6           0      -20.881142   -3.567437   -0.066378
     84          6           0      -22.448299    0.757980    1.617770
     85          7           0      -17.659189    0.526994   -0.343214
     86          6           0      -17.294291    1.859029   -0.322642
     87          6           0      -15.947259    2.173065   -0.939019
     88          6           0      -15.414480    0.780811   -1.353757
     89          6           0      -16.583898   -0.169789   -0.935964
     90          6           0      -15.040204    0.655116   -2.886296
     91          6           0      -14.897625    2.929404   -0.008233
     92          6           0      -14.945747    2.654680    1.503658
     93          1           0      -13.853598    1.732594    2.122161
     94          7           0      -18.882492   -2.267408   -0.568331
     95          6           0      -17.614825   -2.526486   -1.006084
     96          6           0      -17.462197   -3.962899   -1.277009
     97          6           0      -18.716301   -4.569942   -0.961679
     98          6           0      -19.565385   -3.432649   -0.491378
     99          6           0      -16.180467   -4.589323   -1.813228
    100          6           0      -18.853897   -6.135619   -1.050242
    101          8           0      -17.860848   -6.781437   -1.354916
    102          6           0      -20.220562   -6.841410   -0.661489
    103          7           0      -21.335798   -1.274403    0.749917
    104          6           0      -21.709383   -2.598694    0.532824
    105          6           0      -23.169843   -2.900586    1.194903
    106          6           0      -23.500557   -1.450605    1.846367
    107          6           0      -22.358086   -0.616367    1.363314
    108          6           0      -24.216873   -3.379016    0.146386
    109          6           0      -23.613026   -1.428262    3.431010
    110          6           0      -24.857041   -0.802147    4.080173
    111          7           0      -20.373292    1.418667    0.581696
    112          6           0      -21.475980    1.784269    1.310439
    113          6           0      -21.361167    3.218928    1.647369
    114          6           0      -20.147083    3.646320    1.045905
    115          6           0      -19.581754    2.480053    0.458652
    116          6           0      -22.308697    4.050027    2.467302
    117          6           0      -19.260619    4.818860    0.922739
    118          8           0      -19.395729    6.012826    1.227780
    119          6           0      -18.103877    4.295220    0.084556
    120          6           0      -18.012755    4.924292   -1.189873
    121          8           0      -18.759464    4.599331   -2.149109
    122          8           0      -16.985678    5.888487   -1.218000
    123          6           0      -16.654537    6.508278   -2.497053
    124          1           0      -15.699039   -1.963252   -1.634046
    125          1           0      -21.339645   -4.554171   -0.154379
    126          1           0      -23.358024    1.067311    2.135727
    127          1           0      -16.217355    2.804845   -1.784341
    128          1           0      -14.619113    0.551382   -0.645556
    129          1           0      -13.959237    0.559968   -2.988669
    130          1           0      -15.401924    1.569287   -3.357752
    131          1           0      -15.496953   -0.226670   -3.336897
    132          1           0      -15.195002    3.967818   -0.159799
    133          1           0      -13.895189    2.784730   -0.411741
    134          1           0      -15.913361    2.239641    1.787685
    135          1           0      -14.924024    3.612831    2.021183
    136          1           0      -15.586138   -5.121093   -1.070165
    137          1           0      -15.632280   -3.885351   -2.439464
    138          1           0      -16.404694   -5.326266   -2.584222
    139          1           0      -21.012904   -6.296440   -1.175182
    140          1           0      -20.323101   -6.775537    0.421349
    141          1           0      -20.208303   -7.925242   -0.776628
    142          1           0      -23.025845   -3.757612    1.852159
    143          1           0      -24.410960   -1.089667    1.367300
    144          1           0      -24.774117   -2.501418   -0.180672
    145          1           0      -24.846522   -4.188540    0.515776
    146          1           0      -23.782058   -3.856857   -0.731357
    147          1           0      -22.701915   -0.955575    3.799214
    148          1           0      -23.611344   -2.494149    3.658974
    149          1           0      -24.681948   -0.527657    5.120777
    150          1           0      -25.586377   -1.608182    4.002909
    151          1           0      -25.068054    0.070345    3.461487
    152          1           0      -22.794795    3.326366    3.121058
    153          1           0      -23.030313    4.380473    1.720213
    154          1           0      -21.868336    4.927067    2.942539
    155          1           0      -17.252530    4.544921    0.717385
    156          1           0      -17.416698    7.131794   -2.964500
    157          1           0      -16.367083    5.742289   -3.217883
    158          1           0      -15.702659    7.019300   -2.351610
 ---------------------------------------------------------------------

 SCF Done:  E(RPBE1PBE) =  -4067.36132481     A.U. after   16 cycles

 Excitation energies and oscillator strengths:

 Excited State   1:      Singlet-A      1.8696 eV  663.16 nm  f=0.3287  <S**2>=0.000
     310 -> 316       -0.17429
     312 -> 314        0.68865
     312 <- 314       -0.10338
 This state for optimization and/or second-order correction.
 Total Energy, E(TD-HF/TD-DFT) =  -4067.29261827
 Copying the excited state density for this state as the 1-particle RhoCI density.

 Excited State   2:      Singlet-A      1.8755 eV  661.07 nm  f=0.4093  <S**2>=0.000
     309 -> 315       -0.18869
     311 -> 313        0.68457

 Excited State   3:      Singlet-A      1.9356 eV  640.54 nm  f=0.0000  <S**2>=0.000
     312 -> 313        0.70710

 Excited State   4:      Singlet-A      2.1053 eV  588.91 nm  f=0.0000  <S**2>=0.000
     311 -> 314        0.70711

 Excited State   5:      Singlet-A      2.2462 eV  551.98 nm  f=0.0673  <S**2>=0.000
     309 -> 313        0.63541
     311 -> 315        0.29955

 The electronic state is 1-A.
 Alpha  occ. eigenvalues --  -46.92320 -46.90990 -19.26381 -19.25520 -19.20401
 Alpha  occ. eigenvalues --  -19.19817 -19.19763 -19.19437 -19.19295 -19.18688
 Alpha  occ. eigenvalues --  -14.42068 -14.42027 -14.41693 -14.41288 -14.39497
 Alpha  occ. eigenvalues --  -14.39122 -14.38986 -14.38096 -10.36941 -10.35560
 Alpha  occ. eigenvalues --  -10.33611 -10.33031 -10.32505 -10.31844 -10.29528
 Alpha  occ. eigenvalues --  -10.29446 -10.29280 -10.29047 -10.28988 -10.28490
 Alpha  occ. eigenvalues --  -10.28428 -10.28408 -10.28406 -10.28232 -10.28224
 Alpha  occ. eigenvalues --  -10.28073 -10.27935 -10.27725 -10.27608 -10.27415
 Alpha  occ. eigenvalues --  -10.27124 -10.27027 -10.26966 -10.26575 -10.26454
 Alpha  occ. eigenvalues --  -10.26221 -10.26208 -10.26186 -10.26183 -10.26084
 Alpha  occ. eigenvalues --  -10.26066 -10.25901 -10.25875 -10.25670 -10.25607
 Alpha  occ. eigenvalues --  -10.25581 -10.25547 -10.25510 -10.25448 -10.25344
 Alpha  occ. eigenvalues --  -10.25201 -10.25143 -10.25056 -10.24982 -10.24934
 Alpha  occ. eigenvalues --  -10.24624 -10.24452 -10.24451 -10.24398 -10.24385
 Alpha  occ. eigenvalues --  -10.24237 -10.24221 -10.24134 -10.24106 -10.24036
 Alpha  occ. eigenvalues --  -10.23981 -10.23943 -10.23508 -10.23499 -10.23378
 Alpha  occ. eigenvalues --  -10.23362 -10.23261 -10.22994 -10.22838 -10.22807
 Alpha  occ. eigenvalues --  -10.22236  -3.14521  -3.13404  -1.87318  -1.86912
 Alpha  occ. eigenvalues --   -1.86747  -1.86232  -1.85791  -1.85644  -1.10712
 Alpha  occ. eigenvalues --   -1.09647  -1.05568  -1.05083  -1.04028  -1.03787
 Alpha  occ. eigenvalues --   -1.01744  -1.00319  -0.99852  -0.98991  -0.98829
 Alpha  occ. eigenvalues --   -0.98275  -0.98149  -0.97191  -0.97040  -0.96458
 Alpha  occ. eigenvalues --   -0.87493  -0.87107  -0.83457  -0.83429  -0.83058
 Alpha  occ. eigenvalues --   -0.82535  -0.82356  -0.82310  -0.81796  -0.81174
 Alpha  occ. eigenvalues --   -0.81100  -0.80624  -0.80421  -0.79780  -0.78818
 Alpha  occ. eigenvalues --   -0.78795  -0.78144  -0.78122  -0.77027  -0.76694
 Alpha  occ. eigenvalues --   -0.76463  -0.75831  -0.75634  -0.75206  -0.74629
 Alpha  occ. eigenvalues --   -0.74393  -0.72494  -0.72463  -0.71638  -0.71474
 Alpha  occ. eigenvalues --   -0.71213  -0.70976  -0.70809  -0.70241  -0.69740
 Alpha  occ. eigenvalues --   -0.69243  -0.67251  -0.66783  -0.66601  -0.66160
 Alpha  occ. eigenvalues --   -0.63616  -0.63598  -0.63308  -0.63207  -0.62808
 Alpha  occ. eigenvalues --   -0.62309  -0.61625  -0.61206  -0.60483  -0.60174
 Alpha  occ. eigenvalues --   -0.60008  -0.59651  -0.59436  -0.59080  -0.59016
 Alpha  occ. eigenvalues --   -0.58708  -0.57004  -0.56358  -0.54781  -0.54757
 Alpha  occ. eigenvalues --   -0.54379  -0.54109  -0.53764  -0.53586  -0.53268
 Alpha  occ. eigenvalues --   -0.53195  -0.52630  -0.52315  -0.51745  -0.51565
 Alpha  occ. eigenvalues --   -0.50911  -0.50635  -0.50398  -0.50048  -0.50043
 Alpha  occ. eigenvalues --   -0.49470  -0.48953  -0.48883  -0.48768  -0.48494
 Alpha  occ. eigenvalues --   -0.48363  -0.47939  -0.47669  -0.47579  -0.47461
 Alpha  occ. eigenvalues --   -0.47154  -0.47099  -0.46921  -0.46772  -0.46647
 Alpha  occ. eigenvalues --   -0.46229  -0.46133  -0.45956  -0.45773  -0.45594
 Alpha  occ. eigenvalues --   -0.45450  -0.45226  -0.45148  -0.45040  -0.44915
 Alpha  occ. eigenvalues --   -0.44765  -0.44574  -0.44526  -0.44031  -0.43917
 Alpha  occ. eigenvalues --   -0.43897  -0.43811  -0.43723  -0.43521  -0.43515
 Alpha  occ. eigenvalues --   -0.43195  -0.43082  -0.42898  -0.42814  -0.42711
 Alpha  occ. eigenvalues --   -0.42641  -0.42123  -0.42071  -0.41969  -0.41759
 Alpha  occ. eigenvalues --   -0.41597  -0.41323  -0.41203  -0.41109  -0.41104
 Alpha  occ. eigenvalues --   -0.40958  -0.40911  -0.40604  -0.40531  -0.40480
 Alpha  occ. eigenvalues --   -0.40274  -0.40052  -0.39947  -0.39728  -0.39652
 Alpha  occ. eigenvalues --   -0.39503  -0.39410  -0.39270  -0.38916  -0.38902
 Alpha  occ. eigenvalues --   -0.38673  -0.38582  -0.38395  -0.38284  -0.38007
 Alpha  occ. eigenvalues --   -0.37936  -0.37785  -0.37738  -0.37710  -0.37658
 Alpha  occ. eigenvalues --   -0.37429  -0.37425  -0.37229  -0.37045  -0.37041
 Alpha  occ. eigenvalues --   -0.36874  -0.36867  -0.36687  -0.36479  -0.36232
 Alpha  occ. eigenvalues --   -0.36019  -0.35940  -0.35695  -0.35521  -0.35503
 Alpha  occ. eigenvalues --   -0.35212  -0.35202  -0.34766  -0.34627  -0.34518
 Alpha  occ. eigenvalues --   -0.33823  -0.33680  -0.32831  -0.32576  -0.32490
 Alpha  occ. eigenvalues --   -0.32441  -0.32058  -0.32028  -0.32019  -0.31574
 Alpha  occ. eigenvalues --   -0.30478  -0.30360  -0.29958  -0.29458  -0.29183
 Alpha  occ. eigenvalues --   -0.29043  -0.28831  -0.27872  -0.26983  -0.26871
 Alpha  occ. eigenvalues --   -0.26407  -0.26178  -0.25972  -0.25952  -0.25588
 Alpha  occ. eigenvalues --   -0.25573  -0.25298  -0.25212  -0.21111  -0.21011
 Alpha  occ. eigenvalues --   -0.18791  -0.18458
 Alpha virt. eigenvalues --   -0.11008  -0.10717  -0.05745  -0.05249  -0.04469
 Alpha virt. eigenvalues --   -0.03949  -0.02365  -0.01951  -0.01143  -0.01004
 Alpha virt. eigenvalues --    0.00169   0.00840   0.00844   0.00955   0.01142

 Mulliken charges:
               1
     1  Mg  11.999777
     2  C    6.001482
     3  C    5.998746
     4  C    5.999159
     5  C    6.001508
     6  N    7.000455
     7  C    5.996592
     8  C    6.001244
     9  C    5.999238
    10  C    6.003516
    11  C    5.999817
    12  C    6.000210
    13  C    6.000120
    14  H    0.999679
    15  N    6.999524
    16  C    6.003207
    17  C    6.002139
    18  C    6.002020
    19  C    6.001977
    20  C    5.999720
    21  C    6.001433
    22  O    8.003158
    23  C    5.999459
    24  N    7.000572
    25  C    6.002335
    26  C    5.999454
    27  C    6.000775
    28  C    5.996702
    29  C    5.999521
    30  C    6.000224
    31  C    6.000085
    32  N    7.000132
    33  C    5.996509
    34  C    5.997032
    35  C    5.999929
    36  C    5.997171
    37  C    5.999794
    38  C    5.998412
    39  O    7.997084
    40  C    5.999762
    41  C    5.999736
    42  O    7.999242
    43  O    7.999931
    44  C    6.000277
    45  H    1.000825
    46  H    1.000581
    47  H    0.999162
    48  H    0.999823
    49  H    0.999812
    50  H    0.999960
    51  H    1.000150
    52  H    1.001243
    53  H    0.998834
    54  H    1.000292
    55  H    1.000405
    56  H    0.999483
    57  H    1.001844
    58  H    1.001722
    59  H    1.001536
    60  H    1.000888
    61  H    1.000600
    62  H    1.001522
    63  H    0.999794
    64  H    0.999629
    65  H    1.001153
    66  H    1.000228
    67  H    0.999489
    68  H    0.999883
    69  H    0.998919
    70  H    1.000275
    71  H    0.999496
    72  H    1.000237
    73  H    0.998505
    74  H    0.998631
    75  H    0.998284
    76  H    0.999216
    77  H    0.999376
    78  H    0.999716
    79  H    0.999626
    80  Mg  11.997125
    81  C    6.015114
    82  C    5.989792
    83  C    5.978843
    84  C    6.014016
    85  N    7.003700
    86  C    5.968759
    87  C    6.010937
    88  C    5.989248
    89  C    6.035312
    90  C    5.996478
    91  C    6.000899
    92  C    6.002483
    93  H    0.985918
    94  N    6.994236
    95  C    6.039971
    96  C    6.019538
    97  C    6.011924
    98  C    6.037971
    99  C    5.995937
   100  C    6.010902
   101  O    8.016339
   102  C    6.000166
   103  N    6.998737
   104  C    6.034162
   105  C    5.992490
   106  C    6.012202
   107  C    5.967170
   108  C    5.996381
   109  C    6.004491
   110  C    6.000384
   111  N    7.001131
   112  C    5.961860
   113  C    5.973506
   114  C    5.995393
   115  C    5.972343
   116  C    5.999061
   117  C    5.980849
   118  O    7.971797
   119  C    5.999856
   120  C    5.996736
   121  O    7.993351
   122  O    7.998258
   123  C    6.003706
   124  H    1.010571
   125  H    1.007359
   126  H    0.992743
   127  H    0.999989
   128  H    1.003985
   129  H    1.005166
   130  H    1.012144
   131  H    0.994063
   132  H    1.005293
   133  H    0.991926
   134  H    1.004744
   135  H    1.002395
   136  H    1.018734
   137  H    1.015552
   138  H    1.014556
   139  H    1.007087
   140  H    1.009372
   141  H    1.011651
   142  H    0.998950
   143  H    0.998760
   144  H    1.010204
   145  H    1.004443
   146  H    0.995209
   147  H    1.001754
   148  H    0.988022
   149  H    0.998793
   150  H    0.994264
   151  H    1.004109
   152  H    0.984539
   153  H    0.982163
   154  H    0.985822
   155  H    0.990297
   156  H    0.997469
   157  H    0.993271
   158  H    0.995131
 Sum of Mulliken charges = 624.00000

 Dipole moment (field-independent basis, Debye):
    X=              3.6756    Y=             -8.4115    Z=             -2.9088  Tot=              9.6294
 Quadrupole moment (field-independent basis, Debye-Ang):
   XX=            -90.5993   YY=              5.6991   ZZ=             -1.9890
   XY=            191.9495   XZ=             59.9120   YZ=              1.9360

 Normal termination of Gaussian 16 at Thu Oct 14 19:36:31 2021.
