 Gaussian 16, Revision A.03,
 Gaussian 16:  ES64L-G16RevA.03 25-Dec-2016

 --------------------------------------------------------
 #p PBE1PBE/Def2SVP td=(nstates=5) density=(transition=1)
 --------------------------------------------------------

 --------------------------------
 TDDFT excited states in gaussian
 --------------------------------
 Symbolic Z-matrix:
 Charge =  0 Multiplicity = 1

                         Standard orientation:
 ---------------------------------------------------------------------
 Center     Atomic      Atomic             Coordinates (Angstroms)
 Number     Number       Type             X           Y           Z
 ---------------------------------------------------------------------
      1         12           0        5.072883   -0.806711   -0.394854
      2          6           0        3.065840    2.177134   -1.106082
      3          6           0        7.677032    1.395529    0.407939
      4          6           0        7.028097   -3.396762   -0.084441
      5          6           0        2.333395   -2.762654   -1.051681
      6          7           0        5.401016    1.476065   -0.552551
      7          6           0        4.412330    2.530470   -0.741309
      8          6           0        4.994535    3.956360   -0.635994
      9          6           0        6.560430    3.579975   -0.341358
     10          6           0        6.600648    2.050483   -0.155345
     11          6           0        7.519255    4.074060   -1.407117
     12          6           0        4.237208    4.779988    0.449187
     13          6           0        4.892950    6.066185    0.853151
     14          1           0        4.058017    7.317263    1.012398
     15          7           0        7.113920   -1.012056    0.077677
     16          6           0        8.026086    0.003594    0.385886
     17          6           0        9.322432   -0.583759    0.719336
     18          6           0        9.158303   -2.023402    0.587338
     19          6           0        7.721610   -2.238620    0.176609
     20          6           0       10.577957    0.224010    1.213962
     21          6           0       10.125811   -3.141639    0.737213
     22          8           0        9.848766   -4.328654    0.627709
     23          6           0       11.509901   -2.867471    1.158516
     24          7           0        4.725663   -2.740431   -0.451330
     25          6           0        5.706898   -3.643959   -0.417960
     26          6           0        5.189124   -5.094019   -0.564777
     27          6           0        3.695961   -4.883950   -0.422032
     28          6           0        3.537759   -3.343896   -0.726718
     29          6           0        5.577291   -5.740825   -1.889351
     30          6           0        2.932922   -5.250916    0.824375
     31          6           0        3.343293   -4.474243    2.057217
     32          7           0        3.132949   -0.434188   -1.054882
     33          6           0        2.087514   -1.366935   -1.179401
     34          6           0        0.888404   -0.672553   -1.579183
     35          6           0        1.271081    0.689138   -1.470016
     36          6           0        2.641178    0.798853   -1.164990
     37          6           0       -0.481724   -1.233451   -1.825532
     38          6           0        0.678793    2.059637   -1.559663
     39          8           0       -0.506256    2.431761   -1.696492
     40          6           0        1.843381    3.026428   -1.357238
     41          6           0        1.942084    3.983759   -2.546813
     42          8           0        2.196911    3.750757   -3.765276
     43          8           0        1.846370    5.248182   -2.045382
     44          6           0        2.002846    6.343182   -3.029428
     45          1           0        8.410622    2.073209    0.847372
     46          1           0        7.678045   -4.273478   -0.048453
     47          1           0        1.428964   -3.322088   -1.300123
     48          1           0        4.762491    4.427016   -1.591323
     49          1           0        6.829455    3.948315    0.648639
     50          1           0        8.250250    4.731799   -0.936004
     51          1           0        6.921148    4.649247   -2.112998
     52          1           0        7.909564    3.341503   -2.113271
     53          1           0        4.033830    4.076891    1.257640
     54          1           0        3.246867    5.026402    0.066099
     55          1           0        5.661984    6.459726    0.188861
     56          1           0        5.305601    5.956678    1.855648
     57          1           0       10.765077   -0.148755    2.221419
     58          1           0       10.409744    1.299619    1.265354
     59          1           0       11.385460   -0.020700    0.523804
     60          1           0       11.963093   -2.013046    0.655426
     61          1           0       12.042984   -3.777418    0.885228
     62          1           0       11.405039   -2.548045    2.194927
     63          1           0        5.635512   -5.673661    0.243297
     64          1           0        3.130188   -5.448190   -1.163939
     65          1           0        5.853612   -6.777178   -1.698593
     66          1           0        6.428663   -5.233698   -2.342067
     67          1           0        4.703217   -5.829581   -2.535503
     68          1           0        2.998833   -6.332020    0.949781
     69          1           0        1.886190   -4.958950    0.741098
     70          1           0        3.473906   -5.121892    2.923385
     71          1           0        2.585115   -3.758732    2.376296
     72          1           0        4.283122   -3.931620    1.954543
     73          1           0       -1.212713   -0.686190   -1.230838
     74          1           0       -0.693114   -2.287452   -1.645428
     75          1           0       -0.702405   -1.072031   -2.880891
     76          1           0        1.611954    3.659332   -0.500039
     77          1           0        3.012476    6.749188   -2.970459
     78          1           0        1.187842    6.984066   -2.693039
     79          1           0        1.721432    6.040073   -4.038724
     80         12           0       -5.164949   -0.656917    0.186569
     81          6           0       -3.109283    2.034452    1.142466
     82          6           0       -7.785902    1.613269   -0.073148
     83          6           0       -7.132493   -3.269014   -0.390747
     84          6           0       -2.627655   -2.925767    1.328911
     85          7           0       -5.420424    1.532536    0.518031
     86          6           0       -4.382858    2.435750    0.788467
     87          6           0       -4.836398    3.837469    0.424787
     88          6           0       -6.384458    3.742654    0.309763
     89          6           0       -6.545279    2.194015    0.241247
     90          6           0       -7.208842    4.477217    1.413187
     91          6           0       -4.132204    4.446499   -0.836952
     92          6           0       -3.968117    6.029444   -0.791272
     93          1           0       -4.546370    6.773558    0.415346
     94          7           0       -7.087194   -0.781707   -0.290094
     95          6           0       -7.987645    0.260955   -0.424976
     96          6           0       -9.250188   -0.217452   -0.909578
     97          6           0       -9.138735   -1.644637   -0.891969
     98          6           0       -7.756021   -1.933610   -0.555801
     99          6           0      -10.477724    0.704842   -1.181108
    100          6           0      -10.191982   -2.668929   -1.161871
    101          8           0       -9.987771   -3.889106   -0.955858
    102          6           0      -11.664158   -2.465957   -1.626671
    103          7           0       -5.036770   -2.783307    0.680587
    104          6           0       -5.952992   -3.661253    0.230440
    105          6           0       -5.402875   -5.107549    0.309578
    106          6           0       -3.981675   -5.011420    0.875895
    107          6           0       -3.850512   -3.425358    0.923872
    108          6           0       -6.366246   -6.035498    0.984699
    109          6           0       -2.856314   -5.701441    0.075414
    110          6           0       -2.677693   -5.203238   -1.379945
    111          7           0       -3.249351   -0.544177    1.129598
    112          6           0       -2.334166   -1.514484    1.359210
    113          6           0       -1.075362   -0.838260    1.668778
    114          6           0       -1.271824    0.568514    1.583126
    115          6           0       -2.650573    0.713456    1.294250
    116          6           0        0.269257   -1.522411    1.900809
    117          6           0       -0.652429    1.849542    1.704598
    118          8           0        0.506815    2.224902    1.858300
    119          6           0       -1.904529    2.921690    1.471844
    120          6           0       -1.970763    3.873847    2.651103
    121          8           0       -2.487837    3.592389    3.714411
    122          8           0       -1.464401    5.108338    2.313317
    123          6           0       -1.084768    6.031209    3.378089
    124          1           0       -8.496160    2.424382   -0.245522
    125          1           0       -7.798103   -4.082279   -0.686470
    126          1           0       -1.861845   -3.677522    1.529561
    127          1           0       -4.590799    4.517824    1.240071
    128          1           0       -6.655507    4.160048   -0.659559
    129          1           0       -7.827801    3.674644    1.812863
    130          1           0       -7.896476    5.195697    0.965421
    131          1           0       -6.693158    4.952974    2.247316
    132          1           0       -4.722867    4.286678   -1.738459
    133          1           0       -3.176156    3.943611   -0.976695
    134          1           0       -4.555881    6.438960   -1.612960
    135          1           0       -2.904854    6.246059   -0.891565
    136          1           0      -11.369320    0.167659   -0.855403
    137          1           0      -10.610476    0.924872   -2.239847
    138          1           0      -10.542289    1.704298   -0.751232
    139          1           0      -11.699029   -1.891486   -2.552775
    140          1           0      -12.286913   -2.013072   -0.855244
    141          1           0      -12.124241   -3.353521   -2.059397
    142          1           0       -5.453312   -5.491051   -0.708673
    143          1           0       -4.084670   -5.287768    1.925833
    144          1           0       -6.916411   -6.660027    0.280617
    145          1           0       -7.043176   -5.467551    1.623105
    146          1           0       -5.903060   -6.721183    1.695077
    147          1           0       -3.182361   -6.741071    0.038253
    148          1           0       -1.912338   -5.630841    0.616622
    149          1           0       -1.656894   -4.824579   -1.427678
    150          1           0       -3.414333   -4.414710   -1.534100
    151          1           0       -2.910631   -5.947428   -2.141695
    152          1           0        1.089931   -1.017144    1.392387
    153          1           0        0.295008   -2.514492    1.450931
    154          1           0        0.405162   -1.643535    2.975850
    155          1           0       -1.597464    3.502867    0.601961
    156          1           0       -1.848567    5.942000    4.151036
    157          1           0       -1.040309    7.079210    3.081545
    158          1           0       -0.078363    5.734499    3.673511
 ---------------------------------------------------------------------

 SCF Done:  E(RPBE1PBE) =  -4067.40307692     A.U. after   16 cycles

 Excitation energies and oscillator strengths:

 Excited State   1:      Singlet-A      1.5428 eV  803.61 nm  f=0.0077  <S**2>=0.000
     312 -> 313        0.69912
 This state for optimization and/or second-order correction.
 Total Energy, E(TD-HF/TD-DFT) =  -4067.34637877
 Copying the excited state density for this state as the 1-particle RhoCI density.

 Excited State   2:      Singlet-A      1.6948 eV  731.56 nm  f=0.0666  <S**2>=0.000
     311 -> 313       -0.15364
     311 -> 314        0.63287
     312 -> 314       -0.27103

 Excited State   3:      Singlet-A      1.7678 eV  701.34 nm  f=0.8545  <S**2>=0.000
     311 -> 313        0.45836
     311 -> 314        0.30050
     312 -> 314        0.42440

 Excited State   4:      Singlet-A      1.8420 eV  673.11 nm  f=0.0107  <S**2>=0.000
     309 -> 315       -0.11909
     310 -> 316        0.11963
     311 -> 313        0.49275
     312 -> 314       -0.48118

 Excited State   5:      Singlet-A      2.1272 eV  582.85 nm  f=0.0023  <S**2>=0.000
     310 -> 313        0.70560

 The electronic state is 1-A.
 Alpha  occ. eigenvalues --  -46.91923 -46.90968 -19.26396 -19.24553 -19.19883
 Alpha  occ. eigenvalues --  -19.19518 -19.19166 -19.19030 -19.18637 -19.18218
 Alpha  occ. eigenvalues --  -14.41873 -14.41503 -14.41483 -14.40738 -14.39510
 Alpha  occ. eigenvalues --  -14.39341 -14.38794 -14.38528 -10.36926 -10.35637
 Alpha  occ. eigenvalues --  -10.32499 -10.32250 -10.32088 -10.31476 -10.29650
 Alpha  occ. eigenvalues --  -10.29193 -10.28838 -10.28740 -10.28617 -10.28520
 Alpha  occ. eigenvalues --  -10.28472 -10.28412 -10.28114 -10.28094 -10.28072
 Alpha  occ. eigenvalues --  -10.27989 -10.27952 -10.27701 -10.27627 -10.27391
 Alpha  occ. eigenvalues --  -10.27177 -10.26627 -10.26535 -10.26515 -10.26486
 Alpha  occ. eigenvalues --  -10.26338 -10.26312 -10.26138 -10.26060 -10.25890
 Alpha  occ. eigenvalues --  -10.25670 -10.25548 -10.25525 -10.25414 -10.25349
 Alpha  occ. eigenvalues --  -10.25341 -10.25211 -10.25203 -10.25105 -10.25069
 Alpha  occ. eigenvalues --  -10.24916 -10.24829 -10.24811 -10.24659 -10.24607
 Alpha  occ. eigenvalues --  -10.24575 -10.24504 -10.24441 -10.24126 -10.24026
 Alpha  occ. eigenvalues --  -10.23934 -10.23638 -10.23501 -10.23499 -10.23248
 Alpha  occ. eigenvalues --  -10.23244 -10.23230 -10.23141 -10.23094 -10.23021
 Alpha  occ. eigenvalues --  -10.22800 -10.22767 -10.22758 -10.22571 -10.22215
 Alpha  occ. eigenvalues --  -10.21958  -3.14075  -3.13285  -1.86884  -1.86449
 Alpha  occ. eigenvalues --   -1.86313  -1.86131  -1.85672  -1.85511  -1.10755
 Alpha  occ. eigenvalues --   -1.09820  -1.04763  -1.04055  -1.02880  -1.02737
 Alpha  occ. eigenvalues --   -1.01876  -1.00542  -0.99533  -0.98492  -0.97682
 Alpha  occ. eigenvalues --   -0.97533  -0.97509  -0.96552  -0.96508  -0.94921
 Alpha  occ. eigenvalues --   -0.86496  -0.86051  -0.83964  -0.83394  -0.82982
 Alpha  occ. eigenvalues --   -0.82617  -0.82123  -0.82039  -0.81446  -0.81381
 Alpha  occ. eigenvalues --   -0.80920  -0.80650  -0.80200  -0.79335  -0.78808
 Alpha  occ. eigenvalues --   -0.78320  -0.77777  -0.77265  -0.77039  -0.76157
 Alpha  occ. eigenvalues --   -0.76025  -0.75670  -0.74846  -0.74628  -0.74198
 Alpha  occ. eigenvalues --   -0.73817  -0.72526  -0.72496  -0.71521  -0.71077
 Alpha  occ. eigenvalues --   -0.70971  -0.70535  -0.70160  -0.69745  -0.69678
 Alpha  occ. eigenvalues --   -0.69011  -0.67124  -0.66644  -0.66163  -0.65161
 Alpha  occ. eigenvalues --   -0.64515  -0.64117  -0.63604  -0.63160  -0.62376
 Alpha  occ. eigenvalues --   -0.61832  -0.61456  -0.61352  -0.59427  -0.59347
 Alpha  occ. eigenvalues --   -0.59068  -0.58691  -0.58511  -0.58473  -0.58329
 Alpha  occ. eigenvalues --   -0.58252  -0.56461  -0.55872  -0.55082  -0.54547
 Alpha  occ. eigenvalues --   -0.53673  -0.53611  -0.53547  -0.52926  -0.52692
 Alpha  occ. eigenvalues --   -0.52417  -0.52093  -0.51748  -0.51654  -0.50966
 Alpha  occ. eigenvalues --   -0.50648  -0.50305  -0.50153  -0.50015  -0.49825
 Alpha  occ. eigenvalues --   -0.49726  -0.49220  -0.49039  -0.48977  -0.48698
 Alpha  occ. eigenvalues --   -0.48176  -0.47706  -0.47562  -0.47441  -0.47350
 Alpha  occ. eigenvalues --   -0.47217  -0.47086  -0.47058  -0.46677  -0.46609
 Alpha  occ. eigenvalues --   -0.46285  -0.46096  -0.45961  -0.45498  -0.45385
 Alpha  occ. eigenvalues --   -0.45230  -0.45172  -0.44969  -0.44772  -0.44699
 Alpha  occ. eigenvalues --   -0.44231  -0.44135  -0.43923  -0.43848  -0.43715
 Alpha  occ. eigenvalues --   -0.43613  -0.43537  -0.43385  -0.43265  -0.43050
 Alpha  occ. eigenvalues --   -0.42955  -0.42822  -0.42714  -0.42527  -0.42401
 Alpha  occ. eigenvalues --   -0.42310  -0.42135  -0.42025  -0.41907  -0.41773
 Alpha  occ. eigenvalues --   -0.41452  -0.41429  -0.41281  -0.41065  -0.40713
 Alpha  occ. eigenvalues --   -0.40554  -0.40540  -0.40437  -0.40377  -0.40244
 Alpha  occ. eigenvalues --   -0.40091  -0.39792  -0.39645  -0.39600  -0.39220
 Alpha  occ. eigenvalues --   -0.39090  -0.39027  -0.38933  -0.38901  -0.38733
 Alpha  occ. eigenvalues --   -0.38567  -0.38528  -0.38363  -0.38221  -0.37928
 Alpha  occ. eigenvalues --   -0.37755  -0.37438  -0.37372  -0.37321  -0.37261
 Alpha  occ. eigenvalues --   -0.37099  -0.36945  -0.36862  -0.36638  -0.36595
 Alpha  occ. eigenvalues --   -0.36363  -0.36254  -0.36196  -0.35980  -0.35932
 Alpha  occ. eigenvalues --   -0.35622  -0.35295  -0.35212  -0.35042  -0.34587
 Alpha  occ. eigenvalues --   -0.34497  -0.34368  -0.34000  -0.33886  -0.33785
 Alpha  occ. eigenvalues --   -0.33588  -0.33297  -0.32383  -0.32158  -0.32052
 Alpha  occ. eigenvalues --   -0.31992  -0.31643  -0.31458  -0.31423  -0.30943
 Alpha  occ. eigenvalues --   -0.30916  -0.30532  -0.29354  -0.28998  -0.28833
 Alpha  occ. eigenvalues --   -0.28528  -0.28462  -0.28004  -0.26885  -0.26668
 Alpha  occ. eigenvalues --   -0.25929  -0.25702  -0.25644  -0.25519  -0.25496
 Alpha  occ. eigenvalues --   -0.24958  -0.24813  -0.24662  -0.20953  -0.20669
 Alpha  occ. eigenvalues --   -0.18950  -0.18592
 Alpha virt. eigenvalues --   -0.11541  -0.11264  -0.05077  -0.04637  -0.03946
 Alpha virt. eigenvalues --   -0.03764  -0.02139  -0.01966  -0.00801  -0.00186
 Alpha virt. eigenvalues --    0.00342   0.01015   0.01511   0.01664   0.02181

 Mulliken charges:
               1
     1  Mg  11.999497
     2  C    5.998963
     3  C    6.000365
     4  C    5.999458
     5  C    5.998307
     6  N    6.999652
     7  C    6.001786
     8  C    5.999370
     9  C    6.000509
    10  C    5.998300
    11  C    6.000551
    12  C    5.999850
    13  C    6.000224
    14  H    0.999606
    15  N    7.000177
    16  C    5.997603
    17  C    5.998419
    18  C    5.998654
    19  C    5.998474
    20  C    5.999903
    21  C    5.999017
    22  O    7.997762
    23  C    6.000276
    24  N    6.998607
    25  C    5.998542
    26  C    6.000392
    27  C    6.000144
    28  C    6.002210
    29  C    6.000304
    30  C    5.999529
    31  C    5.999892
    32  N    7.000114
    33  C    6.002697
    34  C    6.001834
    35  C    6.000400
    36  C    6.002202
    37  C    5.999160
    38  C    6.000401
    39  O    8.001068
    40  C    6.000225
    41  C    5.999968
    42  O    8.000210
    43  O    8.000116
    44  C    6.000011
    45  H    0.999023
    46  H    0.999031
    47  H    0.999353
    48  H    0.999765
    49  H    0.999820
    50  H    0.999722
    51  H    0.998970
    52  H    1.000092
    53  H    1.000129
    54  H    0.999490
    55  H    1.000229
    56  H    1.000235
    57  H    0.998769
    58  H    0.998643
    59  H    0.998797
    60  H    0.999337
    61  H    0.998786
    62  H    0.999273
    63  H    0.999785
    64  H    0.999509
    65  H    0.999444
    66  H    1.000236
    67  H    0.998891
    68  H    1.000208
    69  H    0.999489
    70  H    0.999954
    71  H    0.999257
    72  H    1.001247
    73  H    1.001185
    74  H    1.001264
    75  H    1.002117
    76  H    1.000294
    77  H    1.000396
    78  H    0.999952
    79  H    0.999980
    80  Mg  12.000306
    81  C    5.999956
    82  C    6.000148
    83  C    5.999734
    84  C    6.000496
    85  N    7.000177
    86  C    5.999524
    87  C    6.000252
    88  C    5.999472
    89  C    6.001219
    90  C    5.999976
    91  C    5.999970
    92  C    5.999962
    93  H    1.000228
    94  N    6.999830
    95  C    6.001316
    96  C    6.000969
    97  C    6.000601
    98  C    6.001066
    99  C    5.999852
   100  C    6.000364
   101  O    8.001368
   102  C    5.999813
   103  N    6.999757
   104  C    6.001171
   105  C    5.999845
   106  C    6.000191
   107  C    5.999321
   108  C    5.999741
   109  C    5.999925
   110  C    5.999972
   111  N    6.999825
   112  C    5.998438
   113  C    5.999327
   114  C    6.000063
   115  C    5.999860
   116  C    5.999025
   117  C    5.998860
   118  O    7.999789
   119  C    5.999899
   120  C    5.999947
   121  O    7.999957
   122  O    7.999911
   123  C    5.999922
   124  H    1.000785
   125  H    1.000504
   126  H    1.000049
   127  H    1.000360
   128  H    1.000392
   129  H    0.999963
   130  H    1.000406
   131  H    1.000701
   132  H    0.999790
   133  H    1.000101
   134  H    1.000081
   135  H    1.000264
   136  H    1.000752
   137  H    1.000930
   138  H    1.000801
   139  H    1.000432
   140  H    1.000486
   141  H    1.000737
   142  H    1.000216
   143  H    1.000230
   144  H    1.000173
   145  H    0.999970
   146  H    1.000648
   147  H    1.000111
   148  H    1.000494
   149  H    1.000257
   150  H    0.999506
   151  H    1.000177
   152  H    0.999574
   153  H    1.000581
   154  H    1.001262
   155  H    1.000211
   156  H    0.999972
   157  H    1.000055
   158  H    1.000258
 Sum of Mulliken charges = 624.00000

 Dipole moment (field-independent basis, Debye):
    X=             -1.6031    Y=              0.1546    Z=             -0.1862  Tot=              1.6213
 Quadrupole moment (field-independent basis, Debye-Ang):
   XX=             -3.5697   YY=             -0.0845   ZZ=              0.2014
   XY=              2.1104   XZ=             -0.0825   YZ=              0.0457

 Normal termination of Gaussian 16 at Thu Oct 14 08:36:51 2021.
