 Gaussian 16, Revision A.03,
 Gaussian 16:  ES64L-G16RevA.03 25-Dec-2016

 --------------------------------------------------------
 #p PBE1PBE/Def2SVP td=(nstates=5) density=(transition=1)
 --------------------------------------------------------

 --------------------------------
 TDDFT excited states in gaussian
 --------------------------------
 Symbolic Z-matrix:
 Charge =  0 Multiplicity = 1

                         Standard orientation:
 ---------------------------------------------------------------------
 Center     Atomic      Atomic             Coordinates (Angstroms)
 Number     Number       Type             X           Y           Z
 ---------------------------------------------------------------------
      1         12           0       24.805449   -0.680041    0.348842
      2          6           0       25.534336    1.967665   -1.802089
      3          6           0       24.068698    1.483273    2.768376
      4          6           0       25.437184   -3.174255    2.599375
      5          6           0       25.635888   -2.904727   -2.200161
      6          7           0       24.642879    1.511227    0.414737
      7          6           0       24.967717    2.345829   -0.565115
      8          6           0       24.583376    3.808497   -0.137761
      9          6           0       24.227394    3.627635    1.357328
     10          6           0       24.334224    2.119388    1.561462
     11          6           0       25.281060    4.303954    2.367731
     12          6           0       23.380849    4.463274   -0.957837
     13          6           0       23.633804    5.894471   -1.287376
     14          1           0       22.578311    6.937854   -0.954919
     15          7           0       24.730945   -0.813052    2.396755
     16          6           0       24.375925    0.205264    3.241260
     17          6           0       24.117788   -0.359259    4.573258
     18          6           0       24.522708   -1.721803    4.509762
     19          6           0       24.970829   -1.927722    3.122467
     20          6           0       23.628133    0.497764    5.783955
     21          6           0       24.575316   -2.776594    5.655821
     22          8           0       24.936471   -3.938464    5.505902
     23          6           0       24.136150   -2.356176    7.007352
     24          7           0       25.453755   -2.669403    0.242227
     25          6           0       25.720437   -3.532018    1.309701
     26          6           0       26.404327   -4.818842    0.778385
     27          6           0       25.854797   -4.921994   -0.711651
     28          6           0       25.625719   -3.392611   -0.874828
     29          6           0       27.939555   -4.804064    0.940255
     30          6           0       24.581153   -5.690257   -0.922820
     31          6           0       23.247862   -5.083199   -0.601216
     32          7           0       25.260155   -0.588552   -1.663746
     33          6           0       25.614332   -1.554886   -2.576655
     34          6           0       25.908792   -0.984431   -3.893175
     35          6           0       25.993187    0.455325   -3.623234
     36          6           0       25.593651    0.608354   -2.238589
     37          6           0       26.293301   -1.710149   -5.078725
     38          6           0       26.312680    1.763301   -4.182194
     39          8           0       26.743204    2.098400   -5.221420
     40          6           0       25.940989    2.816755   -3.013342
     41          6           0       27.005166    3.851432   -2.747772
     42          8           0       27.900072    3.749107   -1.913896
     43          8           0       26.740758    4.971655   -3.535070
     44          6           0       27.649353    6.125413   -3.407004
     45          1           0       23.624719    2.017352    3.611477
     46          1           0       25.635775   -3.916795    3.375524
     47          1           0       25.790014   -3.657586   -2.975514
     48          1           0       25.437086    4.485585   -0.175888
     49          1           0       23.265733    4.028784    1.677257
     50          1           0       24.912950    5.308305    2.578181
     51          1           0       26.283109    4.452540    1.966163
     52          1           0       25.282051    3.719406    3.288479
     53          1           0       22.444166    4.422819   -0.401631
     54          1           0       23.120489    3.962746   -1.890567
     55          1           0       23.667354    5.891737   -2.376514
     56          1           0       24.569438    6.339212   -0.949574
     57          1           0       24.532742    0.849999    6.278858
     58          1           0       22.955820   -0.066751    6.430483
     59          1           0       23.219080    1.469191    5.504243
     60          1           0       24.396654   -1.379925    7.415918
     61          1           0       24.488539   -3.075185    7.746495
     62          1           0       23.076024   -2.582699    7.124557
     63          1           0       25.953333   -5.608510    1.378639
     64          1           0       26.595313   -5.331077   -1.398725
     65          1           0       28.527359   -4.988884    0.041107
     66          1           0       28.294301   -5.377838    1.796727
     67          1           0       28.269628   -3.810032    1.241486
     68          1           0       24.539149   -6.641338   -0.393366
     69          1           0       24.534809   -5.966792   -1.976238
     70          1           0       22.932934   -4.695603   -1.569912
     71          1           0       23.262424   -4.237150    0.086221
     72          1           0       22.575404   -5.863025   -0.242306
     73          1           0       25.848885   -1.167805   -5.913463
     74          1           0       25.837502   -2.697656   -5.011175
     75          1           0       27.378320   -1.722784   -5.177233
     76          1           0       25.050664    3.352493   -3.342626
     77          1           0       28.662116    5.747910   -3.550640
     78          1           0       27.599451    6.549106   -2.404305
     79          1           0       27.522652    6.986314   -4.063640
     80         12           0      -24.893250   -0.772246   -0.281134
     81          6           0      -25.524212    2.157903    1.595316
     82          6           0      -23.807454    1.220646   -2.845993
     83          6           0      -24.923774   -3.441401   -2.241365
     84          6           0      -26.478715   -2.610394    2.240565
     85          7           0      -24.844456    1.453668   -0.643182
     86          6           0      -25.052629    2.432665    0.331995
     87          6           0      -24.509633    3.795316   -0.164571
     88          6           0      -23.979646    3.467327   -1.608169
     89          6           0      -24.168035    1.930869   -1.743415
     90          6           0      -24.460740    4.356198   -2.741732
     91          6           0      -23.455689    4.477852    0.721203
     92          6           0      -23.825250    5.928429    1.136337
     93          1           0      -22.805539    6.986970    0.779049
     94          7           0      -24.338356   -1.056743   -2.259864
     95          6           0      -23.948231   -0.131921   -3.183405
     96          6           0      -23.521889   -0.844463   -4.364209
     97          6           0      -23.988166   -2.223990   -4.254035
     98          6           0      -24.459728   -2.245057   -2.877874
     99          6           0      -22.930820   -0.092002   -5.666118
    100          6           0      -24.245946   -3.254104   -5.267760
    101          8           0      -24.626960   -4.375502   -5.087351
    102          6           0      -24.012419   -2.835969   -6.716432
    103          7           0      -25.810888   -2.718753   -0.079665
    104          6           0      -25.613566   -3.658519   -1.024705
    105          6           0      -26.018548   -5.040536   -0.506691
    106          6           0      -26.161274   -4.807851    1.005994
    107          6           0      -26.114465   -3.299214    1.101856
    108          6           0      -27.381611   -5.537697   -1.174912
    109          6           0      -24.881882   -5.454269    1.745474
    110          6           0      -23.541449   -4.691182    1.563358
    111          7           0      -25.735853   -0.421417    1.628570
    112          6           0      -26.312125   -1.255942    2.508730
    113          6           0      -26.714891   -0.488865    3.656729
    114          6           0      -26.383668    0.820554    3.362886
    115          6           0      -25.838647    0.851992    2.076359
    116          6           0      -27.391767   -0.956323    4.931132
    117          6           0      -26.496003    2.166399    3.931552
    118          8           0      -26.985835    2.699582    4.886929
    119          6           0      -25.872808    3.083791    2.846464
    120          6           0      -26.937047    4.053385    2.486398
    121          8           0      -28.027183    3.685776    2.126647
    122          8           0      -26.574065    5.374650    2.692380
    123          6           0      -27.682084    6.386191    2.639231
    124          1           0      -23.273780    1.843828   -3.566781
    125          1           0      -24.846563   -4.375502   -2.802370
    126          1           0      -26.785773   -3.120464    3.156021
    127          1           0      -25.351476    4.471826   -0.313459
    128          1           0      -22.913711    3.694710   -1.631890
    129          1           0      -25.337874    4.930357   -2.446957
    130          1           0      -24.673948    3.815311   -3.664077
    131          1           0      -23.672408    5.092775   -2.894875
    132          1           0      -22.454165    4.613714    0.313014
    133          1           0      -23.283987    3.901103    1.629755
    134          1           0      -24.128523    5.979688    2.181991
    135          1           0      -24.708626    6.215515    0.567383
    136          1           0      -22.025293   -0.616800   -5.970395
    137          1           0      -22.616571    0.941412   -5.524783
    138          1           0      -23.575341    0.034008   -6.536038
    139          1           0      -22.948140   -2.600536   -6.739481
    140          1           0      -24.637530   -1.954158   -6.853352
    141          1           0      -24.180350   -3.623896   -7.451301
    142          1           0      -25.243051   -5.797141   -0.630721
    143          1           0      -27.071867   -5.106244    1.525971
    144          1           0      -27.343879   -6.627202   -1.193609
    145          1           0      -27.603860   -5.231621   -2.197736
    146          1           0      -28.151243   -5.209067   -0.476678
    147          1           0      -24.719358   -6.497007    1.473443
    148          1           0      -24.999307   -5.357669    2.824904
    149          1           0      -22.653033   -5.214756    1.914877
    150          1           0      -23.613333   -3.764674    2.133247
    151          1           0      -23.445857   -4.445249    0.505273
    152          1           0      -26.800662   -1.653594    5.524421
    153          1           0      -28.280664   -1.474122    4.571736
    154          1           0      -27.755202   -0.130227    5.542318
    155          1           0      -25.078252    3.599797    3.385165
    156          1           0      -27.179330    7.148559    2.044141
    157          1           0      -27.936590    6.792926    3.617776
    158          1           0      -28.645786    6.123962    2.203352
 ---------------------------------------------------------------------

 SCF Done:  E(RPBE1PBE) =  -4067.39310786     A.U. after   16 cycles

 Excitation energies and oscillator strengths:

 Excited State   1:      Singlet-A      1.7917 eV  692.00 nm  f=0.0000  <S**2>=0.000
     312 -> 313        0.70711
 This state for optimization and/or second-order correction.
 Total Energy, E(TD-HF/TD-DFT) =  -4067.32726462
 Copying the excited state density for this state as the 1-particle RhoCI density.

 Excited State   2:      Singlet-A      1.8399 eV  673.85 nm  f=0.3583  <S**2>=0.000
     310 -> 316        0.17111
     312 -> 314        0.69448
     312 <- 314       -0.11328

 Excited State   3:      Singlet-A      1.8679 eV  663.76 nm  f=0.3913  <S**2>=0.000
     309 -> 315        0.16811
     311 -> 313        0.69461
     311 <- 313       -0.11167

 Excited State   4:      Singlet-A      2.1756 eV  569.90 nm  f=0.0000  <S**2>=0.000
     311 -> 314        0.70711

 Excited State   5:      Singlet-A      2.2023 eV  562.97 nm  f=0.1272  <S**2>=0.000
     309 -> 313        0.66413
     311 -> 315       -0.22445

 The electronic state is 1-A.
 Alpha  occ. eigenvalues --  -46.92953 -46.91355 -19.25788 -19.25636 -19.20248
 Alpha  occ. eigenvalues --  -19.19800 -19.19781 -19.19480 -19.19479 -19.18656
 Alpha  occ. eigenvalues --  -14.41713 -14.41647 -14.41405 -14.41043 -14.39457
 Alpha  occ. eigenvalues --  -14.38946 -14.38928 -14.38888 -10.36632 -10.35797
 Alpha  occ. eigenvalues --  -10.32852 -10.32550 -10.32294 -10.31518 -10.29253
 Alpha  occ. eigenvalues --  -10.29040 -10.29031 -10.28982 -10.28558 -10.28531
 Alpha  occ. eigenvalues --  -10.28483 -10.28412 -10.28312 -10.27988 -10.27846
 Alpha  occ. eigenvalues --  -10.27729 -10.27671 -10.27443 -10.27375 -10.27244
 Alpha  occ. eigenvalues --  -10.27147 -10.27021 -10.26824 -10.26599 -10.26550
 Alpha  occ. eigenvalues --  -10.26255 -10.26110 -10.25986 -10.25962 -10.25868
 Alpha  occ. eigenvalues --  -10.25864 -10.25844 -10.25765 -10.25760 -10.25758
 Alpha  occ. eigenvalues --  -10.25571 -10.25536 -10.25407 -10.25404 -10.25353
 Alpha  occ. eigenvalues --  -10.25059 -10.24934 -10.24907 -10.24777 -10.24734
 Alpha  occ. eigenvalues --  -10.24481 -10.24334 -10.24237 -10.24223 -10.24131
 Alpha  occ. eigenvalues --  -10.23961 -10.23810 -10.23745 -10.23586 -10.23510
 Alpha  occ. eigenvalues --  -10.23481 -10.23457 -10.23455 -10.23186 -10.23165
 Alpha  occ. eigenvalues --  -10.23122 -10.23058 -10.23048 -10.22727 -10.22384
 Alpha  occ. eigenvalues --  -10.21974  -3.14941  -3.13633  -1.87763  -1.87328
 Alpha  occ. eigenvalues --   -1.87156  -1.86478  -1.85984  -1.85884  -1.10417
 Alpha  occ. eigenvalues --   -1.09845  -1.07644  -1.06420  -1.05864  -1.04963
 Alpha  occ. eigenvalues --   -1.02440  -1.02216  -0.99838  -0.99813  -0.98987
 Alpha  occ. eigenvalues --   -0.98557  -0.98234  -0.97595  -0.96817  -0.96632
 Alpha  occ. eigenvalues --   -0.86713  -0.86156  -0.83338  -0.83205  -0.83095
 Alpha  occ. eigenvalues --   -0.82872  -0.82600  -0.82388  -0.82103  -0.81453
 Alpha  occ. eigenvalues --   -0.81260  -0.80879  -0.80630  -0.80624  -0.78734
 Alpha  occ. eigenvalues --   -0.78474  -0.77874  -0.77780  -0.76837  -0.76782
 Alpha  occ. eigenvalues --   -0.76088  -0.75507  -0.75301  -0.75206  -0.74736
 Alpha  occ. eigenvalues --   -0.74446  -0.72693  -0.72594  -0.71721  -0.71577
 Alpha  occ. eigenvalues --   -0.71065  -0.71059  -0.70470  -0.70118  -0.69609
 Alpha  occ. eigenvalues --   -0.69247  -0.67572  -0.66705  -0.66251  -0.65939
 Alpha  occ. eigenvalues --   -0.63713  -0.63654  -0.63614  -0.62955  -0.62532
 Alpha  occ. eigenvalues --   -0.62120  -0.61652  -0.61167  -0.60146  -0.59930
 Alpha  occ. eigenvalues --   -0.59859  -0.59668  -0.59196  -0.59078  -0.58818
 Alpha  occ. eigenvalues --   -0.58572  -0.56857  -0.56381  -0.55038  -0.54771
 Alpha  occ. eigenvalues --   -0.54291  -0.54116  -0.53875  -0.53465  -0.53377
 Alpha  occ. eigenvalues --   -0.52777  -0.52635  -0.52325  -0.52178  -0.51641
 Alpha  occ. eigenvalues --   -0.50636  -0.50459  -0.50089  -0.49918  -0.49840
 Alpha  occ. eigenvalues --   -0.49728  -0.49345  -0.49242  -0.48684  -0.48617
 Alpha  occ. eigenvalues --   -0.48196  -0.48036  -0.47940  -0.47580  -0.47494
 Alpha  occ. eigenvalues --   -0.47109  -0.47077  -0.46957  -0.46745  -0.46719
 Alpha  occ. eigenvalues --   -0.46564  -0.46253  -0.46181  -0.46145  -0.45902
 Alpha  occ. eigenvalues --   -0.45769  -0.45740  -0.45349  -0.45005  -0.44768
 Alpha  occ. eigenvalues --   -0.44664  -0.44643  -0.44409  -0.44182  -0.44156
 Alpha  occ. eigenvalues --   -0.44086  -0.44052  -0.43939  -0.43847  -0.43672
 Alpha  occ. eigenvalues --   -0.43294  -0.43086  -0.42999  -0.42956  -0.42674
 Alpha  occ. eigenvalues --   -0.42580  -0.42464  -0.42282  -0.42058  -0.41683
 Alpha  occ. eigenvalues --   -0.41672  -0.41422  -0.41345  -0.41120  -0.41020
 Alpha  occ. eigenvalues --   -0.40917  -0.40814  -0.40798  -0.40618  -0.40458
 Alpha  occ. eigenvalues --   -0.40332  -0.40244  -0.40109  -0.39829  -0.39823
 Alpha  occ. eigenvalues --   -0.39712  -0.39489  -0.39337  -0.39172  -0.38973
 Alpha  occ. eigenvalues --   -0.38935  -0.38597  -0.38522  -0.38201  -0.38178
 Alpha  occ. eigenvalues --   -0.38120  -0.38109  -0.37828  -0.37734  -0.37715
 Alpha  occ. eigenvalues --   -0.37530  -0.37359  -0.37162  -0.37000  -0.36888
 Alpha  occ. eigenvalues --   -0.36767  -0.36429  -0.36337  -0.36336  -0.36318
 Alpha  occ. eigenvalues --   -0.36201  -0.36034  -0.35757  -0.35419  -0.35259
 Alpha  occ. eigenvalues --   -0.35189  -0.34696  -0.34060  -0.34015  -0.33639
 Alpha  occ. eigenvalues --   -0.33321  -0.33072  -0.33015  -0.32842  -0.32709
 Alpha  occ. eigenvalues --   -0.32122  -0.31951  -0.31643  -0.31458  -0.31379
 Alpha  occ. eigenvalues --   -0.31214  -0.30958  -0.29618  -0.29542  -0.29262
 Alpha  occ. eigenvalues --   -0.29138  -0.28765  -0.28381  -0.27261  -0.26817
 Alpha  occ. eigenvalues --   -0.26236  -0.26171  -0.26044  -0.26017  -0.25772
 Alpha  occ. eigenvalues --   -0.25689  -0.25169  -0.25136  -0.21151  -0.20927
 Alpha  occ. eigenvalues --   -0.19213  -0.18455
 Alpha virt. eigenvalues --   -0.11609  -0.10957  -0.05021  -0.04925  -0.03854
 Alpha virt. eigenvalues --   -0.03708  -0.01953  -0.01951  -0.01147  -0.00180
 Alpha virt. eigenvalues --    0.00134   0.00792   0.01135   0.01392   0.02080

 Mulliken charges:
               1
     1  Mg  12.000000
     2  C    6.000000
     3  C    6.000000
     4  C    6.000000
     5  C    6.000000
     6  N    7.000000
     7  C    6.000000
     8  C    6.000000
     9  C    6.000000
    10  C    6.000000
    11  C    6.000000
    12  C    6.000000
    13  C    6.000000
    14  H    1.000000
    15  N    7.000000
    16  C    6.000000
    17  C    6.000000
    18  C    6.000000
    19  C    6.000000
    20  C    6.000000
    21  C    6.000000
    22  O    8.000000
    23  C    6.000000
    24  N    7.000000
    25  C    6.000000
    26  C    6.000000
    27  C    6.000000
    28  C    6.000000
    29  C    6.000000
    30  C    6.000000
    31  C    6.000000
    32  N    7.000000
    33  C    6.000000
    34  C    6.000000
    35  C    6.000000
    36  C    6.000000
    37  C    6.000000
    38  C    6.000000
    39  O    8.000000
    40  C    6.000000
    41  C    6.000000
    42  O    8.000000
    43  O    8.000000
    44  C    6.000000
    45  H    1.000000
    46  H    1.000000
    47  H    1.000000
    48  H    1.000000
    49  H    1.000000
    50  H    1.000000
    51  H    1.000000
    52  H    1.000000
    53  H    1.000000
    54  H    1.000000
    55  H    1.000000
    56  H    1.000000
    57  H    1.000000
    58  H    1.000000
    59  H    1.000000
    60  H    1.000000
    61  H    1.000000
    62  H    1.000000
    63  H    1.000000
    64  H    1.000000
    65  H    1.000000
    66  H    1.000000
    67  H    1.000000
    68  H    1.000000
    69  H    1.000000
    70  H    1.000000
    71  H    1.000000
    72  H    1.000000
    73  H    1.000000
    74  H    1.000000
    75  H    1.000000
    76  H    1.000000
    77  H    1.000000
    78  H    1.000000
    79  H    1.000000
    80  Mg  12.000000
    81  C    6.000000
    82  C    6.000000
    83  C    6.000000
    84  C    6.000000
    85  N    7.000000
    86  C    6.000000
    87  C    6.000000
    88  C    6.000000
    89  C    6.000000
    90  C    6.000000
    91  C    6.000000
    92  C    6.000000
    93  H    1.000000
    94  N    7.000000
    95  C    6.000000
    96  C    6.000000
    97  C    6.000000
    98  C    6.000000
    99  C    6.000000
   100  C    6.000000
   101  O    8.000000
   102  C    6.000000
   103  N    7.000000
   104  C    6.000000
   105  C    6.000000
   106  C    6.000000
   107  C    6.000000
   108  C    6.000000
   109  C    6.000000
   110  C    6.000000
   111  N    7.000000
   112  C    6.000000
   113  C    6.000000
   114  C    6.000000
   115  C    6.000000
   116  C    6.000000
   117  C    6.000000
   118  O    8.000000
   119  C    6.000000
   120  C    6.000000
   121  O    8.000000
   122  O    8.000000
   123  C    6.000000
   124  H    1.000000
   125  H    1.000000
   126  H    1.000000
   127  H    1.000000
   128  H    1.000000
   129  H    1.000000
   130  H    1.000000
   131  H    1.000000
   132  H    1.000000
   133  H    1.000000
   134  H    1.000000
   135  H    1.000000
   136  H    1.000000
   137  H    1.000000
   138  H    1.000000
   139  H    1.000000
   140  H    1.000000
   141  H    1.000000
   142  H    1.000000
   143  H    1.000000
   144  H    1.000000
   145  H    1.000000
   146  H    1.000000
   147  H    1.000000
   148  H    1.000000
   149  H    1.000000
   150  H    1.000000
   151  H    1.000000
   152  H    1.000000
   153  H    1.000000
   154  H    1.000000
   155  H    1.000000
   156  H    1.000000
   157  H    1.000000
   158  H    1.000000
 Sum of Mulliken charges = 624.00000

 Dipole moment (field-independent basis, Debye):
    X=             -0.0000    Y=             -0.0000    Z=              0.0000  Tot=              0.0000
 Quadrupole moment (field-independent basis, Debye-Ang):
   XX=              0.0000   YY=              0.0000   ZZ=             -0.0000
   XY=             -0.0000   XZ=             -0.0000   YZ=              0.0000

 Normal termination of Gaussian 16 at Thu Oct 14 04:24:27 2021.
