 Gaussian 16, Revision A.03,
 Gaussian 16:  ES64L-G16RevA.03 25-Dec-2016

 --------------------------------------------------------
 #p PBE1PBE/Def2SVP td=(nstates=5) density=(transition=1)
 --------------------------------------------------------

 --------------------------------
 TDDFT excited states in gaussian
 --------------------------------
 Symbolic Z-matrix:
 Charge =  0 Multiplicity = 1

                         Standard orientation:
 ---------------------------------------------------------------------
 Center     Atomic      Atomic             Coordinates (Angstroms)
 Number     Number       Type             X           Y           Z
 ---------------------------------------------------------------------
      1         12           0      -20.448317   -0.496679   -0.316059
      2          6           0      -18.467690    2.383759   -0.075982
      3          6           0      -22.942912    1.191330    1.545018
      4          6           0      -22.245075   -3.376566   -0.230051
      5          6           0      -17.681697   -2.221560   -1.452556
      6          7           0      -20.695050    1.569949    0.445574
      7          6           0      -19.783446    2.610211    0.243506
      8          6           0      -20.504738    3.982904    0.496721
      9          6           0      -21.852537    3.547472    1.083382
     10          6           0      -21.824011    1.979183    1.073175
     11          6           0      -22.025707    4.111969    2.519206
     12          6           0      -20.556785    4.754424   -0.816308
     13          6           0      -20.588716    6.272668   -0.752234
     14          1           0      -20.884932    6.941216    0.609270
     15          7           0      -22.332485   -1.063137    0.510064
     16          6           0      -23.185141   -0.232830    1.262152
     17          6           0      -24.358402   -0.968338    1.700202
     18          6           0      -24.257037   -2.308396    1.154673
     19          6           0      -22.898746   -2.297363    0.459733
     20          6           0      -25.554136   -0.337179    2.424840
     21          6           0      -25.214737   -3.482600    1.220200
     22          8           0      -24.937537   -4.537421    0.665030
     23          6           0      -26.568619   -3.263419    1.777626
     24          7           0      -20.006574   -2.511759   -0.855005
     25          6           0      -20.952423   -3.490884   -0.809242
     26          6           0      -20.406995   -4.777181   -1.483021
     27          6           0      -18.946258   -4.400272   -1.945773
     28          6           0      -18.866273   -2.916214   -1.503476
     29          6           0      -20.463806   -5.961299   -0.501310
     30          6           0      -18.696053   -4.508291   -3.473465
     31          6           0      -17.935811   -5.797987   -3.766773
     32          7           0      -18.411471   -0.125888   -0.618415
     33          6           0      -17.372793   -0.903230   -1.009398
     34          6           0      -16.133051   -0.110096   -0.825703
     35          6           0      -16.501794    1.179109   -0.574843
     36          6           0      -17.908638    1.100565   -0.412907
     37          6           0      -14.763135   -0.700367   -1.114919
     38          6           0      -16.058009    2.567920   -0.395392
     39          8           0      -14.921225    3.024514   -0.404577
     40          6           0      -17.325414    3.366977   -0.160940
     41          6           0      -17.070513    4.161385    1.051110
     42          8           0      -17.088433    3.829665    2.244164
     43          8           0      -16.705767    5.428654    0.644857
     44          6           0      -16.340100    6.365286    1.685115
     45          1           0      -23.720021    1.769965    2.048296
     46          1           0      -22.930147   -4.226699   -0.251778
     47          1           0      -16.838717   -2.857198   -1.731758
     48          1           0      -19.836878    4.419421    1.240348
     49          1           0      -22.611451    4.073905    0.504655
     50          1           0      -22.000178    3.365053    3.312839
     51          1           0      -23.070280    4.411396    2.599878
     52          1           0      -21.272207    4.861238    2.761195
     53          1           0      -21.413718    4.329697   -1.340043
     54          1           0      -19.719005    4.443340   -1.439257
     55          1           0      -21.291499    6.636552   -1.500538
     56          1           0      -19.585197    6.517539   -1.101983
     57          1           0      -25.389773    0.695452    2.733256
     58          1           0      -25.789012   -0.911690    3.321866
     59          1           0      -26.438089   -0.451454    1.798521
     60          1           0      -27.103865   -2.572404    1.125911
     61          1           0      -26.522807   -3.039576    2.843383
     62          1           0      -27.179009   -4.164974    1.724522
     63          1           0      -21.077668   -5.025362   -2.305323
     64          1           0      -18.287480   -5.002657   -1.318913
     65          1           0      -19.522826   -6.470946   -0.296182
     66          1           0      -21.088975   -6.636344   -1.085365
     67          1           0      -20.809805   -5.705158    0.499684
     68          1           0      -17.949432   -3.777780   -3.785442
     69          1           0      -19.606580   -4.472127   -4.071875
     70          1           0      -18.483308   -6.232787   -4.602872
     71          1           0      -18.038257   -6.563260   -2.997763
     72          1           0      -16.882540   -5.674146   -4.020078
     73          1           0      -14.738030   -1.783734   -1.235174
     74          1           0      -14.025915   -0.440214   -0.356350
     75          1           0      -14.460728   -0.381560   -2.113046
     76          1           0      -17.486472    3.994704   -1.036762
     77          1           0      -15.598092    5.879146    2.319030
     78          1           0      -17.179754    6.674252    2.308094
     79          1           0      -15.692686    7.086528    1.187506
     80         12           0       20.026948   -0.749271    0.409711
     81          6           0       19.906572    2.420206   -1.336227
     82          6           0       21.421100    0.876535    2.828487
     83          6           0       20.294180   -3.765099    1.711984
     84          6           0       19.218571   -2.477122   -2.683944
     85          7           0       20.483504    1.479136    0.731492
     86          6           0       20.379988    2.599038   -0.067228
     87          6           0       20.915502    3.790485    0.641681
     88          6           0       21.819784    3.180601    1.743471
     89          6           0       21.256148    1.740140    1.763063
     90          6           0       23.326117    3.177070    1.402528
     91          6           0       19.745582    4.571801    1.313814
     92          6           0       19.774638    6.142639    1.168114
     93          1           0       18.451748    6.981038    1.380420
     94          7           0       20.760954   -1.344654    2.163777
     95          6           0       21.197117   -0.539921    3.095901
     96          6           0       21.490300   -1.331243    4.275958
     97          6           0       21.033980   -2.629850    3.948733
     98          6           0       20.698219   -2.614105    2.550781
     99          6           0       21.995412   -0.666440    5.569367
    100          6           0       20.980502   -3.814910    4.872194
    101          8           0       20.602577   -4.874246    4.469276
    102          6           0       21.306572   -3.627829    6.318072
    103          7           0       20.044955   -2.883232   -0.528696
    104          6           0       20.029824   -3.879000    0.354962
    105          6           0       19.583237   -5.156181   -0.251231
    106          6           0       19.432822   -4.729823   -1.745888
    107          6           0       19.575332   -3.231240   -1.705093
    108          6           0       20.450529   -6.439222    0.013072
    109          6           0       18.065074   -5.238099   -2.348232
    110          6           0       18.057718   -6.432598   -3.342494
    111          7           0       19.650165   -0.257331   -1.530192
    112          6           0       19.262908   -1.000604   -2.667569
    113          6           0       19.008079   -0.078151   -3.793268
    114          6           0       19.228548    1.199282   -3.295881
    115          6           0       19.648131    1.078903   -1.981896
    116          6           0       18.719998   -0.508653   -5.251953
    117          6           0       19.195142    2.639374   -3.708176
    118          8           0       18.880820    3.212828   -4.724304
    119          6           0       19.807468    3.491558   -2.486874
    120          6           0       19.049164    4.660074   -2.228114
    121          8           0       18.127655    4.676121   -1.400102
    122          8           0       19.358631    5.788155   -2.981549
    123          6           0       18.733375    7.096336   -2.616609
    124          1           0       21.856240    1.307842    3.731724
    125          1           0       20.320786   -4.759562    2.162091
    126          1           0       18.965403   -2.980192   -3.618441
    127          1           0       21.570248    4.354623   -0.023029
    128          1           0       21.767929    3.645515    2.727792
    129          1           0       23.885189    3.757874    2.136756
    130          1           0       23.427544    3.625711    0.414767
    131          1           0       23.773232    2.185478    1.326879
    132          1           0       19.821661    4.324023    2.372707
    133          1           0       18.830375    4.131528    0.918534
    134          1           0       20.199018    6.373648    0.191435
    135          1           0       20.493404    6.428710    1.936916
    136          1           0       21.228743   -0.781659    6.336654
    137          1           0       22.302084    0.375357    5.482564
    138          1           0       22.816792   -1.244699    5.991543
    139          1           0       20.619388   -2.943778    6.815330
    140          1           0       22.255656   -3.144319    6.549233
    141          1           0       21.185179   -4.582998    6.829581
    142          1           0       18.588502   -5.373328    0.137955
    143          1           0       20.302902   -5.072381   -2.306411
    144          1           0       21.213480   -6.146663    0.733722
    145          1           0       20.855518   -6.958155   -0.856433
    146          1           0       19.807385   -7.201892    0.452488
    147          1           0       17.599510   -4.422283   -2.901891
    148          1           0       17.392341   -5.289768   -1.492167
    149          1           0       17.272098   -7.136696   -3.068850
    150          1           0       19.035568   -6.914451   -3.338180
    151          1           0       17.835351   -6.089634   -4.353667
    152          1           0       18.168177   -1.447559   -5.216431
    153          1           0       19.662302   -0.748920   -5.744881
    154          1           0       18.158028    0.248083   -5.799839
    155          1           0       20.823652    3.777340   -2.756937
    156          1           0       19.039556    7.412704   -1.618479
    157          1           0       17.672591    7.115580   -2.863649
    158          1           0       19.253805    7.857949   -3.197159
 ---------------------------------------------------------------------

 SCF Done:  E(RPBE1PBE) =  -4067.34169767     A.U. after   16 cycles

 Excitation energies and oscillator strengths:

 Excited State   1:      Singlet-A      1.8263 eV  678.87 nm  f=0.3820  <S**2>=0.000
     309 -> 315        0.16173
     312 -> 314        0.69457
     312 <- 314       -0.11150
 This state for optimization and/or second-order correction.
 Total Energy, E(TD-HF/TD-DFT) =  -4067.27458150
 Copying the excited state density for this state as the 1-particle RhoCI density.

 Excited State   2:      Singlet-A      1.8559 eV  668.05 nm  f=0.0000  <S**2>=0.000
     312 -> 313        0.70711

 Excited State   3:      Singlet-A      1.8807 eV  659.25 nm  f=0.3658  <S**2>=0.000
     310 -> 317       -0.15935
     311 -> 313        0.69588
     311 <- 313       -0.11005

 Excited State   4:      Singlet-A      2.0895 eV  593.37 nm  f=0.0000  <S**2>=0.000
     311 -> 314        0.70710

 Excited State   5:      Singlet-A      2.2008 eV  563.37 nm  f=0.1145  <S**2>=0.000
     309 -> 314        0.65556
     312 -> 315       -0.24492

 The electronic state is 1-A.
 Alpha  occ. eigenvalues --  -46.92812 -46.92503 -19.25144 -19.24640 -19.20058
 Alpha  occ. eigenvalues --  -19.20050 -19.19625 -19.19214 -19.19209 -19.18770
 Alpha  occ. eigenvalues --  -14.41702 -14.41247 -14.41166 -14.39714 -14.39676
 Alpha  occ. eigenvalues --  -14.39663 -14.39210 -14.38919 -10.36402 -10.35495
 Alpha  occ. eigenvalues --  -10.33309 -10.32649 -10.32389 -10.32001 -10.29564
 Alpha  occ. eigenvalues --  -10.28865 -10.28819 -10.28630 -10.28535 -10.28510
 Alpha  occ. eigenvalues --  -10.28485 -10.28484 -10.28205 -10.27994 -10.27983
 Alpha  occ. eigenvalues --  -10.27917 -10.27902 -10.27496 -10.27441 -10.27340
 Alpha  occ. eigenvalues --  -10.26955 -10.26634 -10.26619 -10.26537 -10.26489
 Alpha  occ. eigenvalues --  -10.26451 -10.26069 -10.25964 -10.25922 -10.25797
 Alpha  occ. eigenvalues --  -10.25790 -10.25732 -10.25677 -10.25569 -10.25527
 Alpha  occ. eigenvalues --  -10.25500 -10.25491 -10.25388 -10.25354 -10.25315
 Alpha  occ. eigenvalues --  -10.25211 -10.24863 -10.24658 -10.24584 -10.24500
 Alpha  occ. eigenvalues --  -10.24412 -10.24379 -10.24207 -10.23962 -10.23908
 Alpha  occ. eigenvalues --  -10.23847 -10.23691 -10.23686 -10.23635 -10.23608
 Alpha  occ. eigenvalues --  -10.23452 -10.23389 -10.23237 -10.23153 -10.23116
 Alpha  occ. eigenvalues --  -10.23050 -10.22991 -10.22960 -10.22726 -10.22666
 Alpha  occ. eigenvalues --  -10.22461  -3.14915  -3.14484  -1.87741  -1.87338
 Alpha  occ. eigenvalues --   -1.87295  -1.87140  -1.86816  -1.86737  -1.10582
 Alpha  occ. eigenvalues --   -1.08935  -1.06681  -1.05791  -1.04988  -1.04844
 Alpha  occ. eigenvalues --   -1.01702  -1.00880  -1.00471  -0.99594  -0.99457
 Alpha  occ. eigenvalues --   -0.99146  -0.97384  -0.97195  -0.96164  -0.95905
 Alpha  occ. eigenvalues --   -0.87811  -0.85685  -0.83522  -0.83510  -0.83223
 Alpha  occ. eigenvalues --   -0.83065  -0.82275  -0.82195  -0.81950  -0.81760
 Alpha  occ. eigenvalues --   -0.81444  -0.81051  -0.79942  -0.79708  -0.78637
 Alpha  occ. eigenvalues --   -0.78580  -0.78129  -0.77370  -0.77019  -0.76423
 Alpha  occ. eigenvalues --   -0.76305  -0.76035  -0.75297  -0.75246  -0.74697
 Alpha  occ. eigenvalues --   -0.74369  -0.72915  -0.72246  -0.71605  -0.71433
 Alpha  occ. eigenvalues --   -0.71113  -0.71052  -0.70491  -0.70281  -0.69720
 Alpha  occ. eigenvalues --   -0.68890  -0.67346  -0.67005  -0.65515  -0.65442
 Alpha  occ. eigenvalues --   -0.63497  -0.63464  -0.63195  -0.62870  -0.62381
 Alpha  occ. eigenvalues --   -0.62336  -0.61667  -0.61417  -0.60462  -0.60052
 Alpha  occ. eigenvalues --   -0.59789  -0.59582  -0.59304  -0.59161  -0.58804
 Alpha  occ. eigenvalues --   -0.58455  -0.56737  -0.55865  -0.55621  -0.54667
 Alpha  occ. eigenvalues --   -0.54557  -0.54230  -0.53639  -0.53574  -0.53319
 Alpha  occ. eigenvalues --   -0.52992  -0.52544  -0.52247  -0.52180  -0.51776
 Alpha  occ. eigenvalues --   -0.51037  -0.50516  -0.50309  -0.50297  -0.50102
 Alpha  occ. eigenvalues --   -0.49635  -0.49301  -0.48543  -0.48420  -0.48162
 Alpha  occ. eigenvalues --   -0.48012  -0.47919  -0.47861  -0.47723  -0.47509
 Alpha  occ. eigenvalues --   -0.47440  -0.47345  -0.47085  -0.46984  -0.46637
 Alpha  occ. eigenvalues --   -0.46516  -0.46356  -0.46335  -0.46005  -0.45952
 Alpha  occ. eigenvalues --   -0.45400  -0.44939  -0.44903  -0.44815  -0.44608
 Alpha  occ. eigenvalues --   -0.44430  -0.44320  -0.44270  -0.44139  -0.44015
 Alpha  occ. eigenvalues --   -0.44003  -0.43834  -0.43766  -0.43645  -0.43520
 Alpha  occ. eigenvalues --   -0.43365  -0.43252  -0.42979  -0.42858  -0.42485
 Alpha  occ. eigenvalues --   -0.42471  -0.42352  -0.42210  -0.42095  -0.42063
 Alpha  occ. eigenvalues --   -0.41692  -0.41457  -0.41116  -0.41059  -0.40928
 Alpha  occ. eigenvalues --   -0.40805  -0.40578  -0.40568  -0.40358  -0.40211
 Alpha  occ. eigenvalues --   -0.39973  -0.39680  -0.39654  -0.39600  -0.39467
 Alpha  occ. eigenvalues --   -0.39372  -0.39221  -0.39149  -0.39057  -0.39023
 Alpha  occ. eigenvalues --   -0.38776  -0.38401  -0.38243  -0.38163  -0.38159
 Alpha  occ. eigenvalues --   -0.37941  -0.37925  -0.37807  -0.37661  -0.37643
 Alpha  occ. eigenvalues --   -0.37330  -0.37298  -0.37256  -0.37136  -0.36735
 Alpha  occ. eigenvalues --   -0.36714  -0.36370  -0.36211  -0.36144  -0.35894
 Alpha  occ. eigenvalues --   -0.35832  -0.35407  -0.35280  -0.35236  -0.35087
 Alpha  occ. eigenvalues --   -0.34824  -0.34809  -0.34751  -0.33869  -0.33452
 Alpha  occ. eigenvalues --   -0.33273  -0.32975  -0.32933  -0.32749  -0.32638
 Alpha  occ. eigenvalues --   -0.32040  -0.31554  -0.31527  -0.31247  -0.31163
 Alpha  occ. eigenvalues --   -0.30892  -0.30671  -0.29369  -0.29075  -0.28778
 Alpha  occ. eigenvalues --   -0.28331  -0.28235  -0.27687  -0.27225  -0.26908
 Alpha  occ. eigenvalues --   -0.26556  -0.26423  -0.26135  -0.26120  -0.26000
 Alpha  occ. eigenvalues --   -0.25919  -0.25525  -0.25479  -0.20712  -0.20510
 Alpha  occ. eigenvalues --   -0.19103  -0.18558
 Alpha virt. eigenvalues --   -0.11410  -0.11099  -0.05034  -0.04019  -0.04009
 Alpha virt. eigenvalues --   -0.03303  -0.02422  -0.01784  -0.00454  -0.00412
 Alpha virt. eigenvalues --   -0.00034   0.00585   0.01053   0.01100   0.01503

 Mulliken charges:
               1
     1  Mg  12.000343
     2  C    5.977085
     3  C    6.003424
     4  C    6.022424
     5  C    5.994779
     6  N    6.985711
     7  C    6.033181
     8  C    5.994762
     9  C    6.011207
    10  C    5.970445
    11  C    6.001797
    12  C    5.995825
    13  C    6.000186
    14  H    1.006419
    15  N    7.004666
    16  C    5.964062
    17  C    5.981505
    18  C    5.982708
    19  C    5.971706
    20  C    6.002315
    21  C    5.985561
    22  O    7.969580
    23  C    6.007594
    24  N    7.006331
    25  C    5.968569
    26  C    6.006954
    27  C    5.988981
    28  C    6.027363
    29  C    6.002260
    30  C    5.995732
    31  C    5.998500
    32  N    6.998896
    33  C    6.033587
    34  C    6.030492
    35  C    6.000355
    36  C    6.033587
    37  C    5.997033
    38  C    6.019385
    39  O    8.026496
    40  C    6.000319
    41  C    6.003161
    42  O    8.007895
    43  O    8.000630
    44  C    5.998788
    45  H    0.986874
    46  H    0.997965
    47  H    1.010909
    48  H    0.997127
    49  H    0.993852
    50  H    1.001142
    51  H    1.000771
    52  H    0.987156
    53  H    1.009116
    54  H    0.992469
    55  H    1.003046
    56  H    0.995678
    57  H    0.984333
    58  H    0.983294
    59  H    0.983586
    60  H    0.992608
    61  H    0.992400
    62  H    0.985311
    63  H    1.001912
    64  H    1.003583
    65  H    0.991878
    66  H    1.000212
    67  H    1.005176
    68  H    0.995542
    69  H    1.009245
    70  H    1.005433
    71  H    1.005280
    72  H    0.998794
    73  H    1.017352
    74  H    1.017721
    75  H    1.020289
    76  H    1.007392
    77  H    1.000644
    78  H    1.006681
    79  H    1.002636
    80  Mg  11.999927
    81  C    6.000094
    82  C    6.000085
    83  C    5.999936
    84  C    5.999927
    85  N    7.000108
    86  C    5.999795
    87  C    6.000047
    88  C    5.999942
    89  C    6.000119
    90  C    5.999935
    91  C    6.000020
    92  C    6.000035
    93  H    0.999899
    94  N    6.999935
    95  C    6.000155
    96  C    6.000222
    97  C    6.000073
    98  C    6.000230
    99  C    5.999929
   100  C    6.000124
   101  O    8.000168
   102  C    5.999942
   103  N    6.999982
   104  C    6.000185
   105  C    5.999897
   106  C    6.000094
   107  C    5.999912
   108  C    6.000005
   109  C    6.000030
   110  C    6.000005
   111  N    6.999992
   112  C    5.999769
   113  C    5.999675
   114  C    6.000057
   115  C    5.999774
   116  C    6.000027
   117  C    5.999832
   118  O    7.999809
   119  C    6.000016
   120  C    5.999955
   121  O    7.999887
   122  O    8.000027
   123  C    6.000017
   124  H    1.000117
   125  H    1.000050
   126  H    0.999930
   127  H    1.000048
   128  H    1.000025
   129  H    1.000079
   130  H    1.000134
   131  H    1.000022
   132  H    0.999894
   133  H    0.999970
   134  H    1.000052
   135  H    1.000007
   136  H    1.000128
   137  H    1.000152
   138  H    1.000196
   139  H    1.000030
   140  H    1.000095
   141  H    1.000146
   142  H    0.999958
   143  H    1.000029
   144  H    1.000000
   145  H    1.000098
   146  H    1.000002
   147  H    0.999991
   148  H    0.999879
   149  H    0.999923
   150  H    1.000040
   151  H    1.000000
   152  H    0.999821
   153  H    0.999891
   154  H    0.999823
   155  H    0.999992
   156  H    0.999975
   157  H    0.999898
   158  H    1.000009
 Sum of Mulliken charges = 624.00000

 Dipole moment (field-independent basis, Debye):
    X=              9.8903    Y=              1.9710    Z=             -2.9353  Tot=             10.5033
 Quadrupole moment (field-independent basis, Debye-Ang):
   XX=           -399.9848   YY=              0.1083   ZZ=             -1.0587
   XY=            -46.9255   XZ=             66.6627   YZ=              3.4903

 Normal termination of Gaussian 16 at Fri Oct 15 02:22:30 2021.
