 Gaussian 16, Revision A.03,
 Gaussian 16:  ES64L-G16RevA.03 25-Dec-2016

 --------------------------------------------------------
 #p PBE1PBE/Def2SVP td=(nstates=5) density=(transition=1)
 --------------------------------------------------------

 --------------------------------
 TDDFT excited states in gaussian
 --------------------------------
 Symbolic Z-matrix:
 Charge =  0 Multiplicity = 1

                         Standard orientation:
 ---------------------------------------------------------------------
 Center     Atomic      Atomic             Coordinates (Angstroms)
 Number     Number       Type             X           Y           Z
 ---------------------------------------------------------------------
      1         12           0        4.838136   -0.701450   -0.457036
      2          6           0        2.935421    2.064542   -1.055880
      3          6           0        7.474719    1.432899    0.546411
      4          6           0        6.816588   -3.376305   -0.077412
      5          6           0        2.186305   -2.675328   -1.389974
      6          7           0        5.288869    1.472031   -0.568389
      7          6           0        4.275086    2.422151   -0.746082
      8          6           0        4.800726    3.874247   -0.564216
      9          6           0        6.254079    3.552200   -0.125756
     10          6           0        6.394444    2.040915   -0.100385
     11          6           0        7.505918    4.208381   -0.849871
     12          6           0        4.030997    4.788887    0.487212
     13          6           0        4.668999    6.198915    0.606621
     14          1           0        3.816836    7.302581   -0.021539
     15          7           0        6.900041   -0.934963    0.213188
     16          6           0        7.679797    0.047578    0.784436
     17          6           0        8.952427   -0.591274    1.098574
     18          6           0        8.748577   -1.995308    0.903950
     19          6           0        7.444912   -2.178581    0.347956
     20          6           0       10.097045    0.199814    1.603198
     21          6           0        9.876634   -3.062834    1.124088
     22          8           0        9.783079   -4.252599    0.759895
     23          6           0       11.189746   -2.653404    1.738575
     24          7           0        4.571226   -2.621699   -0.711980
     25          6           0        5.567107   -3.616389   -0.500803
     26          6           0        5.128801   -4.949024   -1.064595
     27          6           0        3.612677   -4.774904   -0.999490
     28          6           0        3.402872   -3.267456   -0.982158
     29          6           0        5.652065   -5.200033   -2.518706
     30          6           0        2.998743   -5.355694    0.293976
     31          6           0        2.644759   -6.818284    0.325805
     32          7           0        2.910564   -0.468796   -1.150477
     33          6           0        1.895566   -1.326253   -1.344489
     34          6           0        0.732647   -0.599649   -1.761033
     35          6           0        1.064701    0.733876   -1.650249
     36          6           0        2.402922    0.771219   -1.228685
     37          6           0       -0.550281   -1.270967   -2.107973
     38          6           0        0.553195    2.028967   -1.800746
     39          8           0       -0.552457    2.431871   -2.106656
     40          6           0        1.777234    2.982844   -1.409098
     41          6           0        2.038876    3.886201   -2.561798
     42          8           0        2.464678    3.577941   -3.648283
     43          8           0        1.882996    5.167900   -2.217082
     44          6           0        2.172893    6.192847   -3.292583
     45          1           0        8.178539    2.142384    0.986222
     46          1           0        7.447687   -4.258399    0.048104
     47          1           0        1.265179   -3.230874   -1.576096
     48          1           0        4.806116    4.363096   -1.538485
     49          1           0        6.387048    3.831329    0.919904
     50          1           0        8.352848    4.464783   -0.212865
     51          1           0        7.170821    4.997972   -1.522682
     52          1           0        7.907572    3.401155   -1.462229
     53          1           0        4.048654    4.191894    1.398191
     54          1           0        2.993004    4.875783    0.166350
     55          1           0        5.697499    6.173196    0.246578
     56          1           0        4.706099    6.430451    1.670694
     57          1           0       10.866174    0.204833    0.830617
     58          1           0       10.342022   -0.222894    2.577585
     59          1           0        9.793292    1.223502    1.822530
     60          1           0       11.825772   -3.528653    1.870938
     61          1           0       10.918799   -2.347907    2.750131
     62          1           0       11.740380   -1.853462    1.244299
     63          1           0        5.483006   -5.774290   -0.446256
     64          1           0        3.090960   -5.196539   -1.858394
     65          1           0        5.105971   -4.595843   -3.242119
     66          1           0        5.576821   -6.258238   -2.770392
     67          1           0        6.705671   -4.923840   -2.495964
     68          1           0        2.121749   -4.804903    0.631616
     69          1           0        3.667765   -5.160152    1.132110
     70          1           0        3.226446   -7.260623    1.134051
     71          1           0        3.099742   -7.199271   -0.588624
     72          1           0        1.575203   -7.025756    0.362830
     73          1           0       -1.225372   -1.262631   -1.253122
     74          1           0       -0.510931   -2.247262   -2.592066
     75          1           0       -1.015648   -0.621332   -2.849465
     76          1           0        1.487511    3.568176   -0.536128
     77          1           0        3.155159    5.954645   -3.701238
     78          1           0        2.235192    7.211904   -2.909925
     79          1           0        1.396321    6.104286   -4.052634
     80         12           0       -4.922917   -0.696927    0.278526
     81          6           0       -3.196164    2.342668    1.073609
     82          6           0       -7.597614    1.229467   -0.734657
     83          6           0       -6.670798   -3.454934    0.162267
     84          6           0       -2.185104   -2.394041    1.557048
     85          7           0       -5.459349    1.598757    0.443957
     86          6           0       -4.524009    2.567555    0.688267
     87          6           0       -5.080949    3.947635    0.247137
     88          6           0       -6.535502    3.608052   -0.286031
     89          6           0       -6.598874    2.040167   -0.187609
     90          6           0       -7.772037    4.254416    0.469210
     91          6           0       -4.239145    4.686867   -0.826973
     92          6           0       -3.984622    6.139005   -0.630584
     93          1           0       -4.842690    7.051349    0.326775
     94          7           0       -6.923198   -1.106956   -0.217714
     95          6           0       -7.855918   -0.214539   -0.745562
     96          6           0       -9.124261   -0.932655   -0.975151
     97          6           0       -8.807002   -2.336363   -0.817139
     98          6           0       -7.431917   -2.354380   -0.266419
     99          6           0      -10.429135   -0.313100   -1.374740
    100          6           0       -9.650480   -3.604783   -1.086390
    101          8           0       -9.188930   -4.759124   -1.207886
    102          6           0      -11.082741   -3.417230   -1.388922
    103          7           0       -4.497247   -2.566826    0.834803
    104          6           0       -5.463557   -3.543484    0.734121
    105          6           0       -4.861353   -4.955499    0.974948
    106          6           0       -3.309711   -4.606248    1.060529
    107          6           0       -3.309189   -3.089581    1.142078
    108          6           0       -5.390506   -5.794155    2.209015
    109          6           0       -2.427641   -5.091726   -0.078816
    110          6           0       -1.370825   -6.150487    0.299644
    111          7           0       -2.989245   -0.188453    0.964980
    112          6           0       -2.000158   -0.992811    1.479619
    113          6           0       -0.878999   -0.169878    1.951908
    114          6           0       -1.307729    1.129432    1.746100
    115          6           0       -2.587630    1.075563    1.150408
    116          6           0        0.401816   -0.598086    2.588665
    117          6           0       -0.872861    2.472256    1.888991
    118          8           0        0.235141    2.972753    2.234474
    119          6           0       -2.025293    3.290288    1.484648
    120          6           0       -2.357712    4.286893    2.561996
    121          8           0       -2.834203    4.026391    3.613533
    122          8           0       -2.101374    5.522235    2.132241
    123          6           0       -2.044398    6.591526    3.070257
    124          1           0       -8.493187    1.761068   -1.063482
    125          1           0       -7.112677   -4.453974    0.132635
    126          1           0       -1.362603   -2.934333    2.028642
    127          1           0       -5.115679    4.556013    1.151650
    128          1           0       -6.617957    3.881364   -1.337554
    129          1           0       -7.521612    5.011748    1.211540
    130          1           0       -8.243839    3.452422    1.038800
    131          1           0       -8.496432    4.641522   -0.248023
    132          1           0       -4.689053    4.646121   -1.819640
    133          1           0       -3.235551    4.275782   -0.932236
    134          1           0       -4.121169    6.666603   -1.575049
    135          1           0       -2.944879    6.244615   -0.322175
    136          1           0      -11.202497   -0.611414   -0.667247
    137          1           0      -10.673470   -0.722955   -2.354755
    138          1           0      -10.323321    0.754400   -1.570746
    139          1           0      -11.549027   -2.979645   -0.506146
    140          1           0      -11.487340   -4.423233   -1.497425
    141          1           0      -11.238076   -2.912167   -2.341888
    142          1           0       -5.038421   -5.505556    0.050175
    143          1           0       -2.938961   -5.055129    1.981970
    144          1           0       -6.156862   -5.232930    2.742442
    145          1           0       -4.590235   -6.158966    2.854035
    146          1           0       -5.817664   -6.714372    1.810149
    147          1           0       -1.969537   -4.324673   -0.703374
    148          1           0       -3.083405   -5.602929   -0.782831
    149          1           0       -0.370259   -6.019389   -0.111917
    150          1           0       -1.651029   -7.066895   -0.220457
    151          1           0       -1.225475   -6.307284    1.367617
    152          1           0        0.622814   -1.652221    2.418716
    153          1           0        0.306779   -0.568708    3.674020
    154          1           0        1.152394    0.134822    2.292989
    155          1           0       -1.714522    3.813374    0.580649
    156          1           0       -1.104681    6.470558    3.610989
    157          1           0       -2.815485    6.482823    3.833100
    158          1           0       -2.011053    7.557379    2.565458
 ---------------------------------------------------------------------

 SCF Done:  E(RPBE1PBE) =  -4067.40343698     A.U. after   17 cycles

 Excitation energies and oscillator strengths:

 Excited State   1:      Singlet-A      1.5995 eV  775.16 nm  f=0.0174  <S**2>=0.000
     312 -> 313       -0.37275
     312 -> 314        0.59588
 This state for optimization and/or second-order correction.
 Total Energy, E(TD-HF/TD-DFT) =  -4067.34465797
 Copying the excited state density for this state as the 1-particle RhoCI density.

 Excited State   2:      Singlet-A      1.6239 eV  763.47 nm  f=0.0074  <S**2>=0.000
     311 -> 313        0.64852
     311 -> 314        0.24711
     312 -> 313       -0.10199

 Excited State   3:      Singlet-A      1.7853 eV  694.47 nm  f=0.7545  <S**2>=0.000
     309 -> 315       -0.10920
     311 -> 314        0.33016
     312 -> 313        0.53967
     312 -> 314        0.29953

 Excited State   4:      Singlet-A      1.8663 eV  664.33 nm  f=0.1224  <S**2>=0.000
     310 -> 316       -0.13505
     311 -> 313       -0.27385
     311 -> 314        0.55728
     312 -> 313       -0.22739
     312 -> 314       -0.21175

 Excited State   5:      Singlet-A      2.1534 eV  575.77 nm  f=0.0178  <S**2>=0.000
     310 -> 313        0.68738
     311 -> 316       -0.10271

 The electronic state is 1-A.
 Alpha  occ. eigenvalues --  -46.92135 -46.90734 -19.25359 -19.25341 -19.19645
 Alpha  occ. eigenvalues --  -19.19547 -19.19094 -19.18881 -19.18772 -19.18740
 Alpha  occ. eigenvalues --  -14.41939 -14.41319 -14.41233 -14.41049 -14.39193
 Alpha  occ. eigenvalues --  -14.39106 -14.38443 -14.38308 -10.35700 -10.35274
 Alpha  occ. eigenvalues --  -10.32367 -10.32190 -10.31978 -10.31573 -10.29516
 Alpha  occ. eigenvalues --  -10.29415 -10.28990 -10.28922 -10.28673 -10.28540
 Alpha  occ. eigenvalues --  -10.28470 -10.28165 -10.28111 -10.27866 -10.27727
 Alpha  occ. eigenvalues --  -10.27492 -10.27354 -10.27194 -10.26993 -10.26614
 Alpha  occ. eigenvalues --  -10.26526 -10.26511 -10.26392 -10.26379 -10.26003
 Alpha  occ. eigenvalues --  -10.25997 -10.25966 -10.25845 -10.25799 -10.25490
 Alpha  occ. eigenvalues --  -10.25464 -10.25441 -10.25423 -10.25293 -10.25281
 Alpha  occ. eigenvalues --  -10.25265 -10.25238 -10.25190 -10.25114 -10.25055
 Alpha  occ. eigenvalues --  -10.24985 -10.24956 -10.24896 -10.24470 -10.24408
 Alpha  occ. eigenvalues --  -10.24289 -10.24210 -10.24133 -10.24042 -10.23905
 Alpha  occ. eigenvalues --  -10.23822 -10.23707 -10.23522 -10.23438 -10.23393
 Alpha  occ. eigenvalues --  -10.23325 -10.23248 -10.23244 -10.23184 -10.23125
 Alpha  occ. eigenvalues --  -10.23091 -10.22910 -10.22805 -10.22678 -10.22465
 Alpha  occ. eigenvalues --  -10.22403  -3.14295  -3.13089  -1.87117  -1.86684
 Alpha  occ. eigenvalues --   -1.86519  -1.85933  -1.85482  -1.85311  -1.13124
 Alpha  occ. eigenvalues --   -1.11480  -1.05179  -1.04246  -1.03115  -1.02986
 Alpha  occ. eigenvalues --   -1.02570  -1.01756  -0.99893  -0.99229  -0.98299
 Alpha  occ. eigenvalues --   -0.98259  -0.97617  -0.97061  -0.96577  -0.96331
 Alpha  occ. eigenvalues --   -0.87559  -0.87390  -0.83449  -0.83386  -0.82995
 Alpha  occ. eigenvalues --   -0.82726  -0.82549  -0.82227  -0.82031  -0.81745
 Alpha  occ. eigenvalues --   -0.81350  -0.81171  -0.80744  -0.80468  -0.78663
 Alpha  occ. eigenvalues --   -0.78476  -0.78163  -0.77682  -0.76773  -0.76653
 Alpha  occ. eigenvalues --   -0.76194  -0.75858  -0.75597  -0.75338  -0.74763
 Alpha  occ. eigenvalues --   -0.74701  -0.72603  -0.72573  -0.71939  -0.71798
 Alpha  occ. eigenvalues --   -0.71280  -0.71278  -0.70487  -0.70306  -0.69445
 Alpha  occ. eigenvalues --   -0.69437  -0.67485  -0.67421  -0.66098  -0.65815
 Alpha  occ. eigenvalues --   -0.63838  -0.63710  -0.63329  -0.62982  -0.62668
 Alpha  occ. eigenvalues --   -0.61547  -0.60596  -0.60414  -0.60308  -0.59972
 Alpha  occ. eigenvalues --   -0.59337  -0.59279  -0.59053  -0.58965  -0.58659
 Alpha  occ. eigenvalues --   -0.58435  -0.57382  -0.56495  -0.54721  -0.54627
 Alpha  occ. eigenvalues --   -0.54445  -0.54343  -0.53785  -0.53559  -0.53278
 Alpha  occ. eigenvalues --   -0.53239  -0.52752  -0.52670  -0.52182  -0.52081
 Alpha  occ. eigenvalues --   -0.50977  -0.50706  -0.50599  -0.50256  -0.49506
 Alpha  occ. eigenvalues --   -0.49462  -0.49353  -0.49061  -0.48609  -0.48361
 Alpha  occ. eigenvalues --   -0.48060  -0.47872  -0.47731  -0.47621  -0.47303
 Alpha  occ. eigenvalues --   -0.47275  -0.47199  -0.47143  -0.46827  -0.46708
 Alpha  occ. eigenvalues --   -0.46336  -0.46287  -0.46080  -0.46028  -0.45911
 Alpha  occ. eigenvalues --   -0.45680  -0.45642  -0.45048  -0.44709  -0.44657
 Alpha  occ. eigenvalues --   -0.44556  -0.44511  -0.44406  -0.44355  -0.43942
 Alpha  occ. eigenvalues --   -0.43750  -0.43575  -0.43530  -0.43469  -0.43293
 Alpha  occ. eigenvalues --   -0.43136  -0.43116  -0.42924  -0.42869  -0.42723
 Alpha  occ. eigenvalues --   -0.42633  -0.42334  -0.42279  -0.42023  -0.41993
 Alpha  occ. eigenvalues --   -0.41709  -0.41574  -0.41460  -0.41388  -0.41185
 Alpha  occ. eigenvalues --   -0.40992  -0.40820  -0.40725  -0.40521  -0.40438
 Alpha  occ. eigenvalues --   -0.40341  -0.40327  -0.39994  -0.39959  -0.39800
 Alpha  occ. eigenvalues --   -0.39533  -0.39309  -0.39137  -0.38987  -0.38872
 Alpha  occ. eigenvalues --   -0.38510  -0.38474  -0.38341  -0.38203  -0.38129
 Alpha  occ. eigenvalues --   -0.38091  -0.37835  -0.37567  -0.37477  -0.37155
 Alpha  occ. eigenvalues --   -0.36758  -0.36690  -0.36615  -0.36572  -0.36395
 Alpha  occ. eigenvalues --   -0.36354  -0.36196  -0.36123  -0.35898  -0.35853
 Alpha  occ. eigenvalues --   -0.35702  -0.35643  -0.35449  -0.35157  -0.35078
 Alpha  occ. eigenvalues --   -0.34929  -0.34906  -0.34525  -0.34422  -0.33505
 Alpha  occ. eigenvalues --   -0.33360  -0.33089  -0.32779  -0.32487  -0.32334
 Alpha  occ. eigenvalues --   -0.31836  -0.31805  -0.31551  -0.31362  -0.31180
 Alpha  occ. eigenvalues --   -0.30848  -0.30702  -0.29340  -0.29288  -0.29050
 Alpha  occ. eigenvalues --   -0.28941  -0.28380  -0.28277  -0.26977  -0.26858
 Alpha  occ. eigenvalues --   -0.26236  -0.26109  -0.26036  -0.25771  -0.25571
 Alpha  occ. eigenvalues --   -0.25297  -0.25187  -0.24665  -0.21282  -0.20832
 Alpha  occ. eigenvalues --   -0.18791  -0.18618
 Alpha virt. eigenvalues --   -0.11402  -0.11214  -0.04954  -0.04871  -0.04347
 Alpha virt. eigenvalues --   -0.03700  -0.02309  -0.01920  -0.00291   0.00348
 Alpha virt. eigenvalues --    0.01161   0.01494   0.01597   0.01808   0.01897

 Mulliken charges:
               1
     1  Mg  12.001395
     2  C    6.002470
     3  C    6.001391
     4  C    5.997041
     5  C    5.998030
     6  N    7.001207
     7  C    5.997343
     8  C    6.001114
     9  C    5.999132
    10  C    6.002688
    11  C    5.999466
    12  C    6.000434
    13  C    5.999417
    14  H    1.001151
    15  N    6.999292
    16  C    6.003760
    17  C    6.002913
    18  C    6.000616
    19  C    6.005238
    20  C    5.999382
    21  C    6.001520
    22  O    8.002889
    23  C    5.999282
    24  N    6.997747
    25  C    6.004670
    26  C    5.998846
    27  C    6.000022
    28  C    5.999786
    29  C    5.999906
    30  C    6.000793
    31  C    6.000053
    32  N    6.999771
    33  C    5.999660
    34  C    5.992932
    35  C    6.001776
    36  C    5.998010
    37  C    6.001138
    38  C    5.998095
    39  O    7.997840
    40  C    6.000094
    41  C    5.999891
    42  O    7.999733
    43  O    7.999932
    44  C    6.000055
    45  H    1.002408
    46  H    1.000935
    47  H    0.999709
    48  H    1.000434
    49  H    1.000676
    50  H    1.000419
    51  H    1.002014
    52  H    0.999953
    53  H    0.999503
    54  H    1.001348
    55  H    0.999270
    56  H    1.000126
    57  H    1.002257
    58  H    1.002205
    59  H    1.001765
    60  H    1.001822
    61  H    1.000769
    62  H    1.000739
    63  H    1.000461
    64  H    1.000689
    65  H    1.001368
    66  H    1.001175
    67  H    0.999505
    68  H    1.000440
    69  H    0.998684
    70  H    0.999595
    71  H    0.999665
    72  H    1.000618
    73  H    0.998314
    74  H    0.998396
    75  H    0.999010
    76  H    0.998913
    77  H    0.999399
    78  H    0.999738
    79  H    1.000336
    80  Mg  11.999858
    81  C    5.998433
    82  C    5.999586
    83  C    6.000909
    84  C    5.999274
    85  N    6.999495
    86  C    6.001193
    87  C    5.999488
    88  C    6.000351
    89  C    5.998772
    90  C    6.000221
    91  C    6.000069
    92  C    6.000339
    93  H    0.999545
    94  N    7.000263
    95  C    5.997903
    96  C    5.998616
    97  C    5.999075
    98  C    5.998092
    99  C    6.000211
   100  C    5.998960
   101  O    7.998055
   102  C    6.000564
   103  N    7.000196
   104  C    5.998063
   105  C    6.000741
   106  C    5.999468
   107  C    6.001452
   108  C    6.000082
   109  C    5.999920
   110  C    6.000085
   111  N    6.999632
   112  C    6.002877
   113  C    6.001357
   114  C    5.999053
   115  C    6.002543
   116  C    6.000395
   117  C    5.999795
   118  O    7.998601
   119  C    6.000357
   120  C    6.000083
   121  O    7.999800
   122  O    8.000037
   123  C    6.000202
   124  H    0.998879
   125  H    0.999185
   126  H    0.999929
   127  H    0.999630
   128  H    0.999564
   129  H    0.999029
   130  H    1.000062
   131  H    0.999546
   132  H    1.000104
   133  H    0.999948
   134  H    0.999736
   135  H    0.999640
   136  H    0.998690
   137  H    0.998693
   138  H    0.998915
   139  H    0.999396
   140  H    0.998797
   141  H    0.999394
   142  H    0.999735
   143  H    0.999610
   144  H    0.999989
   145  H    0.999066
   146  H    0.999632
   147  H    1.000481
   148  H    1.000278
   149  H    0.999666
   150  H    0.999848
   151  H    0.999621
   152  H    0.999931
   153  H    0.999508
   154  H    0.999661
   155  H    0.999931
   156  H    0.999557
   157  H    0.999955
   158  H    0.999809
 Sum of Mulliken charges = 624.00000

 Dipole moment (field-independent basis, Debye):
    X=              2.3757    Y=             -0.0176    Z=              0.3103  Tot=              2.3960
 Quadrupole moment (field-independent basis, Debye-Ang):
   XX=              5.1510   YY=             -0.2349   ZZ=             -0.2172
   XY=             -2.2319   XZ=              0.5171   YZ=             -0.1915

 Normal termination of Gaussian 16 at Fri Oct 15 06:26:01 2021.
