 Gaussian 16, Revision A.03,
 Gaussian 16:  ES64L-G16RevA.03 25-Dec-2016

 --------------------------------------------------------
 #p PBE1PBE/Def2SVP td=(nstates=5) density=(transition=1)
 --------------------------------------------------------

 --------------------------------
 TDDFT excited states in gaussian
 --------------------------------
 Symbolic Z-matrix:
 Charge =  0 Multiplicity = 1

                         Standard orientation:
 ---------------------------------------------------------------------
 Center     Atomic      Atomic             Coordinates (Angstroms)
 Number     Number       Type             X           Y           Z
 ---------------------------------------------------------------------
      1         12           0        8.968491   -0.403166   -0.120899
      2          6           0        7.069662    2.439084   -0.987059
      3          6           0       11.221515    1.675664    1.432729
      4          6           0       10.874651   -3.051324    0.675553
      5          6           0        6.972777   -2.397047   -2.190863
      6          7           0        8.975186    1.751989    0.248618
      7          6           0        8.181978    2.749597   -0.131368
      8          6           0        8.573530    4.162899    0.348041
      9          6           0       10.054206    3.793988    0.845751
     10          6           0       10.108558    2.286551    0.797441
     11          6           0       11.147856    4.422335    0.016630
     12          6           0        7.635119    4.750070    1.541432
     13          6           0        7.588813    6.280563    1.571366
     14          1           0        6.173146    6.876472    1.360064
     15          7           0       10.743102   -0.704571    1.068152
     16          6           0       11.548923    0.341637    1.581659
     17          6           0       12.506413   -0.271704    2.474271
     18          6           0       12.417188   -1.649359    2.296222
     19          6           0       11.299882   -1.883695    1.328490
     20          6           0       13.557659    0.501771    3.247614
     21          6           0       13.168055   -2.794433    2.936352
     22          8           0       12.860236   -3.922280    2.682317
     23          6           0       14.248224   -2.570564    3.947122
     24          7           0        9.068433   -2.386065   -0.816030
     25          6           0        9.903427   -3.321980   -0.278843
     26          6           0        9.501972   -4.681730   -0.914981
     27          6           0        8.039702   -4.551130   -1.301809
     28          6           0        7.975156   -3.016934   -1.488491
     29          6           0       10.337996   -4.918253   -2.171946
     30          6           0        7.082579   -5.091039   -0.304602
     31          6           0        7.263248   -4.738950    1.151241
     32          7           0        7.327192   -0.113209   -1.331185
     33          6           0        6.612767   -0.989605   -2.126174
     34          6           0        5.514614   -0.254865   -2.772958
     35          6           0        5.656884    1.070284   -2.325950
     36          6           0        6.733533    1.100921   -1.482227
     37          6           0        4.535829   -0.804442   -3.718416
     38          6           0        5.046472    2.372039   -2.284370
     39          8           0        3.979518    2.803945   -2.811659
     40          6           0        5.968236    3.299095   -1.359185
     41          6           0        6.451783    4.425800   -2.234994
     42          8           0        6.913184    4.250054   -3.323536
     43          8           0        6.381783    5.723249   -1.659102
     44          6           0        7.149523    6.781517   -2.383303
     45          1           0       11.974826    2.322378    1.886133
     46          1           0       11.522335   -3.917790    0.826954
     47          1           0        6.211579   -2.984165   -2.709376
     48          1           0        8.487680    4.873346   -0.475096
     49          1           0       10.088322    4.179328    1.865543
     50          1           0       11.461157    5.315300    0.557275
     51          1           0       10.850710    4.591824   -1.018516
     52          1           0       11.987758    3.737604    0.133683
     53          1           0        8.014140    4.416322    2.507878
     54          1           0        6.627265    4.339967    1.473936
     55          1           0        8.304116    6.532673    0.788226
     56          1           0        8.033953    6.687298    2.479195
     57          1           0       13.176298    1.521972    3.268104
     58          1           0       14.414248    0.479948    2.574510
     59          1           0       13.687465    0.127511    4.263289
     60          1           0       13.637804   -2.238565    4.787098
     61          1           0       14.954315   -1.781263    3.690585
     62          1           0       14.774068   -3.503474    4.153142
     63          1           0        9.679440   -5.557302   -0.291458
     64          1           0        7.749843   -5.073367   -2.212989
     65          1           0        9.899033   -4.745054   -3.154555
     66          1           0       10.683823   -5.951406   -2.140440
     67          1           0       11.233131   -4.299452   -2.099724
     68          1           0        6.990390   -6.175121   -0.374796
     69          1           0        6.122096   -4.684306   -0.620504
     70          1           0        6.419451   -4.096376    1.404284
     71          1           0        8.143025   -4.229858    1.545955
     72          1           0        7.134518   -5.649445    1.736285
     73          1           0        5.053879   -1.024496   -4.651791
     74          1           0        3.778228   -0.023910   -3.787576
     75          1           0        4.133263   -1.756082   -3.368800
     76          1           0        5.322450    3.579318   -0.526792
     77          1           0        6.601422    7.108231   -3.266957
     78          1           0        8.146005    6.457648   -2.687132
     79          1           0        7.284079    7.722418   -1.850498
     80         12           0       -8.416155   -0.987465    0.375695
     81          6           0      -10.533340    1.730717    0.821692
     82          6           0       -5.794863    1.244123    0.798208
     83          6           0       -6.332755   -3.507968   -0.558515
     84          6           0      -11.169961   -3.001581   -0.186252
     85          7           0       -8.199392    1.246322    0.710996
     86          6           0       -9.209928    2.176100    0.903207
     87          6           0       -8.689836    3.657896    1.069509
     88          6           0       -7.164834    3.447132    0.723644
     89          6           0       -7.023046    1.880550    0.699872
     90          6           0       -6.558593    4.022519   -0.559675
     91          6           0       -9.003321    4.195285    2.477902
     92          6           0      -10.092465    5.229252    2.591188
     93          1           0       -9.881368    6.348399    3.626328
     94          7           0       -6.355813   -1.213650    0.326102
     95          6           0       -5.506048   -0.190989    0.612005
     96          6           0       -4.149986   -0.747132    0.438241
     97          6           0       -4.258909   -2.061323   -0.042618
     98          6           0       -5.640861   -2.340617   -0.106209
     99          6           0       -2.958796    0.011657    0.863319
    100          6           0       -3.191924   -3.029659   -0.461915
    101          8           0       -3.425706   -4.230211   -0.774374
    102          6           0       -1.809298   -2.689199   -0.583969
    103          7           0       -8.693355   -2.942781   -0.185331
    104          6           0       -7.687306   -3.805004   -0.496752
    105          6           0       -8.159790   -5.149126   -0.890132
    106          6           0       -9.716834   -5.030115   -0.719029
    107          6           0       -9.861393   -3.587136   -0.411243
    108          6           0       -7.796168   -5.818279   -2.248271
    109          6           0      -10.377946   -6.062212    0.322193
    110          6           0      -10.443178   -5.798248    1.855884
    111          7           0      -10.435264   -0.756934    0.273998
    112          6           0      -11.435565   -1.664676    0.076164
    113          6           0      -12.677283   -1.076586    0.332085
    114          6           0      -12.338637    0.314918    0.546123
    115          6           0      -10.963411    0.435497    0.526040
    116          6           0      -14.046352   -1.752464    0.379777
    117          6           0      -12.934762    1.564467    0.922622
    118          8           0      -14.055949    1.916921    1.227681
    119          6           0      -11.759893    2.603679    0.885897
    120          6           0      -11.900475    3.478607   -0.294949
    121          8           0      -11.140840    3.514920   -1.287869
    122          8           0      -12.984053    4.284977   -0.268671
    123          6           0      -13.116978    5.385258   -1.283565
    124          1           0       -4.975715    1.961954    0.868190
    125          1           0       -5.720717   -4.344628   -0.902374
    126          1           0      -12.081470   -3.603707   -0.179254
    127          1           0       -8.970632    4.288748    0.225484
    128          1           0       -6.617292    3.830703    1.584502
    129          1           0       -6.311369    3.217690   -1.252348
    130          1           0       -5.576327    4.403184   -0.283673
    131          1           0       -7.162087    4.774395   -1.069352
    132          1           0       -8.087429    4.692437    2.799547
    133          1           0       -9.157160    3.342653    3.139303
    134          1           0      -11.011153    4.706126    2.857919
    135          1           0      -10.354492    5.740458    1.664739
    136          1           0       -2.512192   -0.592625    1.651877
    137          1           0       -3.070818    1.034118    1.226352
    138          1           0       -2.251281    0.071836    0.036375
    139          1           0       -1.796716   -1.728811   -1.098662
    140          1           0       -1.237452   -3.527123   -0.980593
    141          1           0       -1.380290   -2.435075    0.385329
    142          1           0       -7.715453   -5.729442   -0.082018
    143          1           0      -10.196563   -5.174340   -1.686383
    144          1           0       -7.171854   -6.701851   -2.115179
    145          1           0       -7.216553   -5.142302   -2.877835
    146          1           0       -8.666652   -6.071551   -2.853318
    147          1           0       -9.741114   -6.939061    0.203303
    148          1           0      -11.348001   -6.221933   -0.148774
    149          1           0      -10.153648   -4.795929    2.170467
    150          1           0       -9.993541   -6.560527    2.492803
    151          1           0      -11.497804   -5.937458    2.089902
    152          1           0      -14.751256   -1.294308   -0.314774
    153          1           0      -14.458526   -1.585501    1.374801
    154          1           0      -14.022423   -2.835099    0.252807
    155          1           0      -11.912524    3.293155    1.716392
    156          1           0      -13.901378    5.940714   -0.769286
    157          1           0      -13.404013    5.060110   -2.283021
    158          1           0      -12.175999    5.931101   -1.358891
 ---------------------------------------------------------------------

 SCF Done:  E(RPBE1PBE) =  -4067.37685707     A.U. after   17 cycles

 Excitation energies and oscillator strengths:

 Excited State   1:      Singlet-A      1.6809 eV  737.61 nm  f=0.0000  <S**2>=0.000
     312 -> 313        0.70704
 This state for optimization and/or second-order correction.
 Total Energy, E(TD-HF/TD-DFT) =  -4067.31508523
 Copying the excited state density for this state as the 1-particle RhoCI density.

 Excited State   2:      Singlet-A      1.8221 eV  680.45 nm  f=0.5133  <S**2>=0.000
     309 -> 315       -0.16650
     311 -> 313        0.67659
     312 -> 314       -0.15725
     311 <- 313       -0.10583

 Excited State   3:      Singlet-A      1.8679 eV  663.75 nm  f=0.2487  <S**2>=0.000
     310 -> 316        0.16647
     311 -> 313        0.15675
     312 -> 314        0.67358
     312 <- 314       -0.10645

 Excited State   4:      Singlet-A      2.0152 eV  615.26 nm  f=0.0000  <S**2>=0.000
     311 -> 314        0.70702

 Excited State   5:      Singlet-A      2.1776 eV  569.37 nm  f=0.0987  <S**2>=0.000
     309 -> 313        0.65684
     311 -> 315        0.25050

 The electronic state is 1-A.
 Alpha  occ. eigenvalues --  -46.92159 -46.90739 -19.25331 -19.24501 -19.20403
 Alpha  occ. eigenvalues --  -19.19149 -19.18899 -19.18327 -19.18320 -19.17956
 Alpha  occ. eigenvalues --  -14.42847 -14.41275 -14.41203 -14.41190 -14.39366
 Alpha  occ. eigenvalues --  -14.39027 -14.38982 -14.37866 -10.36613 -10.35346
 Alpha  occ. eigenvalues --  -10.32285 -10.32168 -10.31372 -10.31173 -10.29479
 Alpha  occ. eigenvalues --  -10.29166 -10.29087 -10.29056 -10.28943 -10.28628
 Alpha  occ. eigenvalues --  -10.28535 -10.28393 -10.28389 -10.28080 -10.28045
 Alpha  occ. eigenvalues --  -10.27935 -10.27625 -10.27605 -10.27485 -10.26865
 Alpha  occ. eigenvalues --  -10.26801 -10.26521 -10.26484 -10.26256 -10.26214
 Alpha  occ. eigenvalues --  -10.26126 -10.26090 -10.25961 -10.25765 -10.25761
 Alpha  occ. eigenvalues --  -10.25760 -10.25702 -10.25511 -10.25406 -10.25384
 Alpha  occ. eigenvalues --  -10.25260 -10.25129 -10.25086 -10.25035 -10.25023
 Alpha  occ. eigenvalues --  -10.25009 -10.24914 -10.24753 -10.24741 -10.24688
 Alpha  occ. eigenvalues --  -10.24677 -10.24643 -10.24294 -10.24159 -10.24097
 Alpha  occ. eigenvalues --  -10.23966 -10.23905 -10.23763 -10.23608 -10.23473
 Alpha  occ. eigenvalues --  -10.23303 -10.23259 -10.23185 -10.23163 -10.23024
 Alpha  occ. eigenvalues --  -10.22955 -10.22661 -10.22648 -10.22555 -10.22223
 Alpha  occ. eigenvalues --  -10.22006  -3.14236  -3.13031  -1.87100  -1.86587
 Alpha  occ. eigenvalues --   -1.86476  -1.85884  -1.85410  -1.85259  -1.10518
 Alpha  occ. eigenvalues --   -1.09696  -1.06739  -1.04146  -1.02395  -1.02392
 Alpha  occ. eigenvalues --   -1.01738  -0.99966  -0.99693  -0.99339  -0.98572
 Alpha  occ. eigenvalues --   -0.98099  -0.97976  -0.97659  -0.96669  -0.96535
 Alpha  occ. eigenvalues --   -0.87565  -0.87294  -0.84378  -0.83839  -0.83115
 Alpha  occ. eigenvalues --   -0.83064  -0.82559  -0.82419  -0.82126  -0.81608
 Alpha  occ. eigenvalues --   -0.81414  -0.81118  -0.80937  -0.80269  -0.79027
 Alpha  occ. eigenvalues --   -0.78419  -0.78010  -0.77756  -0.76952  -0.76745
 Alpha  occ. eigenvalues --   -0.76675  -0.76525  -0.75632  -0.75112  -0.74682
 Alpha  occ. eigenvalues --   -0.74363  -0.73103  -0.72669  -0.71808  -0.71651
 Alpha  occ. eigenvalues --   -0.71628  -0.70928  -0.70711  -0.70330  -0.69454
 Alpha  occ. eigenvalues --   -0.69448  -0.67365  -0.67141  -0.65877  -0.65575
 Alpha  occ. eigenvalues --   -0.64331  -0.64155  -0.63428  -0.62918  -0.62444
 Alpha  occ. eigenvalues --   -0.62249  -0.61537  -0.61293  -0.60341  -0.59574
 Alpha  occ. eigenvalues --   -0.59502  -0.59296  -0.59018  -0.58965  -0.58705
 Alpha  occ. eigenvalues --   -0.58003  -0.56530  -0.55894  -0.54885  -0.54594
 Alpha  occ. eigenvalues --   -0.54273  -0.53976  -0.53891  -0.53737  -0.53526
 Alpha  occ. eigenvalues --   -0.53229  -0.53068  -0.52415  -0.52060  -0.51644
 Alpha  occ. eigenvalues --   -0.51037  -0.50569  -0.50454  -0.49931  -0.49381
 Alpha  occ. eigenvalues --   -0.49257  -0.49171  -0.48793  -0.48744  -0.48624
 Alpha  occ. eigenvalues --   -0.48230  -0.48192  -0.48048  -0.47833  -0.47648
 Alpha  occ. eigenvalues --   -0.47243  -0.47023  -0.46917  -0.46801  -0.46639
 Alpha  occ. eigenvalues --   -0.46421  -0.46309  -0.46175  -0.46053  -0.45609
 Alpha  occ. eigenvalues --   -0.45495  -0.45465  -0.45220  -0.44844  -0.44762
 Alpha  occ. eigenvalues --   -0.44720  -0.44583  -0.44436  -0.44117  -0.44080
 Alpha  occ. eigenvalues --   -0.43999  -0.43987  -0.43857  -0.43777  -0.43404
 Alpha  occ. eigenvalues --   -0.43261  -0.43147  -0.42956  -0.42867  -0.42635
 Alpha  occ. eigenvalues --   -0.42534  -0.42396  -0.42311  -0.42198  -0.42048
 Alpha  occ. eigenvalues --   -0.41690  -0.41578  -0.41245  -0.41171  -0.40974
 Alpha  occ. eigenvalues --   -0.40892  -0.40790  -0.40579  -0.40569  -0.40262
 Alpha  occ. eigenvalues --   -0.40233  -0.40150  -0.39986  -0.39874  -0.39742
 Alpha  occ. eigenvalues --   -0.39735  -0.39395  -0.39257  -0.38990  -0.38834
 Alpha  occ. eigenvalues --   -0.38694  -0.38580  -0.38521  -0.38383  -0.38348
 Alpha  occ. eigenvalues --   -0.38137  -0.37963  -0.37955  -0.37773  -0.37576
 Alpha  occ. eigenvalues --   -0.37493  -0.37459  -0.37412  -0.37180  -0.36824
 Alpha  occ. eigenvalues --   -0.36528  -0.36263  -0.36074  -0.36026  -0.35952
 Alpha  occ. eigenvalues --   -0.35814  -0.35452  -0.35396  -0.35318  -0.34986
 Alpha  occ. eigenvalues --   -0.34820  -0.34591  -0.34577  -0.34420  -0.33603
 Alpha  occ. eigenvalues --   -0.33411  -0.33039  -0.32826  -0.32656  -0.32470
 Alpha  occ. eigenvalues --   -0.32249  -0.31713  -0.31588  -0.31402  -0.31353
 Alpha  occ. eigenvalues --   -0.31288  -0.30341  -0.29934  -0.29678  -0.29334
 Alpha  occ. eigenvalues --   -0.28944  -0.28581  -0.27383  -0.27249  -0.26463
 Alpha  occ. eigenvalues --   -0.26092  -0.25709  -0.25463  -0.25420  -0.25404
 Alpha  occ. eigenvalues --   -0.24994  -0.24831  -0.24707  -0.21156  -0.20414
 Alpha  occ. eigenvalues --   -0.19089  -0.18508
 Alpha virt. eigenvalues --   -0.11565  -0.10882  -0.05375  -0.04683  -0.03953
 Alpha virt. eigenvalues --   -0.03312  -0.02364  -0.01832  -0.00101   0.00590
 Alpha virt. eigenvalues --    0.00793   0.00794   0.01018   0.01188   0.01612

 Mulliken charges:
               1
     1  Mg  12.000000
     2  C    6.000000
     3  C    6.000000
     4  C    6.000000
     5  C    6.000000
     6  N    7.000000
     7  C    6.000000
     8  C    6.000000
     9  C    6.000000
    10  C    6.000000
    11  C    6.000000
    12  C    6.000000
    13  C    6.000000
    14  H    1.000000
    15  N    7.000000
    16  C    6.000000
    17  C    6.000000
    18  C    6.000000
    19  C    6.000000
    20  C    6.000000
    21  C    6.000000
    22  O    8.000000
    23  C    6.000000
    24  N    7.000000
    25  C    6.000000
    26  C    6.000000
    27  C    6.000000
    28  C    6.000000
    29  C    6.000000
    30  C    6.000000
    31  C    6.000000
    32  N    7.000000
    33  C    6.000000
    34  C    6.000000
    35  C    6.000000
    36  C    6.000000
    37  C    6.000000
    38  C    6.000000
    39  O    8.000000
    40  C    6.000000
    41  C    6.000000
    42  O    8.000000
    43  O    8.000000
    44  C    6.000000
    45  H    1.000000
    46  H    1.000000
    47  H    1.000000
    48  H    1.000000
    49  H    1.000000
    50  H    1.000000
    51  H    1.000000
    52  H    1.000000
    53  H    1.000000
    54  H    1.000000
    55  H    1.000000
    56  H    1.000000
    57  H    1.000000
    58  H    1.000000
    59  H    1.000000
    60  H    1.000000
    61  H    1.000000
    62  H    1.000000
    63  H    1.000000
    64  H    1.000000
    65  H    1.000000
    66  H    1.000000
    67  H    1.000000
    68  H    1.000000
    69  H    1.000000
    70  H    1.000000
    71  H    1.000000
    72  H    1.000000
    73  H    1.000000
    74  H    1.000000
    75  H    1.000000
    76  H    1.000000
    77  H    1.000000
    78  H    1.000000
    79  H    1.000000
    80  Mg  12.000000
    81  C    6.000000
    82  C    6.000000
    83  C    6.000000
    84  C    6.000000
    85  N    7.000000
    86  C    6.000000
    87  C    6.000000
    88  C    6.000000
    89  C    6.000000
    90  C    6.000000
    91  C    6.000000
    92  C    6.000000
    93  H    1.000000
    94  N    7.000000
    95  C    6.000000
    96  C    5.999999
    97  C    6.000000
    98  C    6.000001
    99  C    6.000000
   100  C    6.000000
   101  O    7.999999
   102  C    6.000001
   103  N    7.000000
   104  C    6.000000
   105  C    6.000000
   106  C    6.000000
   107  C    6.000000
   108  C    6.000000
   109  C    6.000000
   110  C    6.000000
   111  N    7.000000
   112  C    6.000000
   113  C    6.000000
   114  C    6.000000
   115  C    6.000000
   116  C    6.000000
   117  C    6.000000
   118  O    8.000000
   119  C    6.000000
   120  C    6.000000
   121  O    8.000000
   122  O    8.000000
   123  C    6.000000
   124  H    1.000000
   125  H    1.000000
   126  H    1.000000
   127  H    1.000000
   128  H    1.000000
   129  H    1.000000
   130  H    1.000000
   131  H    1.000000
   132  H    1.000000
   133  H    1.000000
   134  H    1.000000
   135  H    1.000000
   136  H    1.000000
   137  H    1.000000
   138  H    0.999999
   139  H    1.000001
   140  H    1.000000
   141  H    1.000000
   142  H    1.000000
   143  H    1.000000
   144  H    1.000000
   145  H    1.000000
   146  H    1.000000
   147  H    1.000000
   148  H    1.000000
   149  H    1.000000
   150  H    1.000000
   151  H    1.000000
   152  H    1.000000
   153  H    1.000000
   154  H    1.000000
   155  H    1.000000
   156  H    1.000000
   157  H    1.000000
   158  H    1.000000
 Sum of Mulliken charges = 624.00000

 Dipole moment (field-independent basis, Debye):
    X=             -0.0001    Y=              0.0000    Z=             -0.0000  Tot=              0.0001
 Quadrupole moment (field-independent basis, Debye-Ang):
   XX=              0.0010   YY=              0.0000   ZZ=              0.0000
   XY=              0.0000   XZ=             -0.0000   YZ=             -0.0000

 Normal termination of Gaussian 16 at Wed Oct 13 20:33:59 2021.
