 Gaussian 16, Revision A.03,
 Gaussian 16:  ES64L-G16RevA.03 25-Dec-2016

 --------------------------------------------------------
 #p PBE1PBE/Def2SVP td=(nstates=5) density=(transition=1)
 --------------------------------------------------------

 --------------------------------
 TDDFT excited states in gaussian
 --------------------------------
 Symbolic Z-matrix:
 Charge =  0 Multiplicity = 1

                         Standard orientation:
 ---------------------------------------------------------------------
 Center     Atomic      Atomic             Coordinates (Angstroms)
 Number     Number       Type             X           Y           Z
 ---------------------------------------------------------------------
      1         12           0       25.007640   -0.200036   -0.694765
      2          6           0       23.927590    1.283133    2.330074
      3          6           0       25.234065   -3.228538    0.944924
      4          6           0       26.316633   -1.531153   -3.522536
      5          6           0       24.966268    2.936520   -2.259920
      6          7           0       24.700852   -0.766896    1.423386
      7          6           0       24.052363   -0.064263    2.436209
      8          6           0       23.804100   -0.977292    3.705917
      9          6           0       24.491850   -2.302754    3.283231
     10          6           0       24.894064   -2.102248    1.804914
     11          6           0       25.720723   -2.804315    4.130250
     12          6           0       22.318004   -1.052982    4.247666
     13          6           0       22.129040   -0.589503    5.660410
     14          1           0       21.068407   -1.388246    6.516889
     15          7           0       25.661474   -2.079323   -1.152777
     16          6           0       25.623813   -3.229144   -0.390386
     17          6           0       26.195061   -4.331146   -1.148651
     18          6           0       26.525707   -3.890543   -2.461411
     19          6           0       26.147292   -2.429654   -2.443582
     20          6           0       26.253782   -5.786994   -0.643948
     21          6           0       27.083415   -4.668833   -3.648730
     22          8           0       27.242915   -4.193166   -4.754024
     23          6           0       27.422203   -6.215565   -3.619969
     24          7           0       25.656791    0.628308   -2.609440
     25          6           0       26.149747   -0.122694   -3.585592
     26          6           0       26.460601    0.717202   -4.875575
     27          6           0       25.836916    2.124992   -4.521490
     28          6           0       25.426866    1.899312   -3.034812
     29          6           0       27.968561    0.665088   -5.256086
     30          6           0       24.719583    2.510798   -5.470517
     31          6           0       24.744355    3.976816   -5.899356
     32          7           0       24.690833    1.783704   -0.143652
     33          6           0       24.609282    2.942212   -0.892226
     34          6           0       24.345406    4.016990    0.014267
     35          6           0       24.025621    3.446558    1.271275
     36          6           0       24.254052    2.047301    1.151803
     37          6           0       24.313485    5.458102   -0.328604
     38          6           0       23.514971    3.737950    2.622210
     39          8           0       23.295194    4.786002    3.222362
     40          6           0       23.403317    2.198667    3.369069
     41          6           0       24.181917    2.188147    4.568054
     42          8           0       25.258326    1.644078    4.686808
     43          8           0       23.486364    2.762735    5.607777
     44          6           0       24.278763    2.825167    6.861135
     45          1           0       25.202714   -4.226445    1.387678
     46          1           0       26.779471   -1.895150   -4.441612
     47          1           0       24.897301    3.855551   -2.846762
     48          1           0       24.494431   -0.584961    4.451880
     49          1           0       23.778749   -3.127069    3.296792
     50          1           0       25.613207   -3.885551    4.222136
     51          1           0       25.698767   -2.304127    5.098149
     52          1           0       26.691661   -2.600661    3.678258
     53          1           0       22.005839   -2.088536    4.111741
     54          1           0       21.722599   -0.389511    3.620219
     55          1           0       21.795446    0.449018    5.664584
     56          1           0       23.129647   -0.662444    6.085579
     57          1           0       25.564177   -6.334254   -1.285659
     58          1           0       25.797563   -5.837317    0.344989
     59          1           0       27.229077   -6.271888   -0.701581
     60          1           0       26.518440   -6.750452   -3.326078
     61          1           0       28.363204   -6.433196   -3.113875
     62          1           0       27.769282   -6.433737   -4.629494
     63          1           0       25.917449    0.376919   -5.756990
     64          1           0       26.671007    2.826973   -4.523740
     65          1           0       28.320178    1.686968   -5.401125
     66          1           0       28.177767    0.019045   -6.109081
     67          1           0       28.537554    0.233637   -4.434188
     68          1           0       23.735580    2.286626   -5.060014
     69          1           0       24.685703    1.918875   -6.386483
     70          1           0       25.461734    4.551609   -5.313535
     71          1           0       23.748714    4.370313   -5.692598
     72          1           0       24.873496    4.094427   -6.975386
     73          1           0       24.528378    5.732858   -1.361239
     74          1           0       24.855324    5.969237    0.468081
     75          1           0       23.245011    5.674134   -0.347792
     76          1           0       22.358688    1.996583    3.607451
     77          1           0       25.183209    3.411600    6.697845
     78          1           0       24.442558    1.791093    7.164275
     79          1           0       23.755540    3.334917    7.669203
     80         12           0      -25.414367    0.401298    0.291148
     81          6           0      -23.282171   -2.248066    0.241985
     82          6           0      -22.610762    2.551259    0.452251
     83          6           0      -27.386684    2.895297   -0.730675
     84          6           0      -28.164975   -1.828533   -0.419225
     85          7           0      -23.257108    0.132144    0.364354
     86          6           0      -22.571744   -0.962208    0.327055
     87          6           0      -21.052909   -0.756073    0.667321
     88          6           0      -20.928242    0.775250    1.019003
     89          6           0      -22.372994    1.241932    0.628926
     90          6           0      -20.371772    1.112093    2.403096
     91          6           0      -20.069854   -1.293405   -0.533423
     92          6           0      -20.630196   -1.400015   -1.942470
     93          1           0      -19.693623   -1.458978   -3.149210
     94          7           0      -25.032487    2.439782   -0.092337
     95          6           0      -23.866881    3.144183    0.090889
     96          6           0      -24.058179    4.477058   -0.286256
     97          6           0      -25.442562    4.626981   -0.684323
     98          6           0      -26.029310    3.267377   -0.552220
     99          6           0      -22.970324    5.512325   -0.066704
    100          6           0      -26.069539    5.953464   -1.150330
    101          8           0      -25.332663    6.964370   -1.188839
    102          6           0      -27.434194    6.139050   -1.551228
    103          7           0      -27.506691    0.503358   -0.644359
    104          6           0      -28.054007    1.680725   -0.751602
    105          6           0      -29.580416    1.617844   -1.042970
    106          6           0      -29.851589    0.104947   -0.892686
    107          6           0      -28.428871   -0.525954   -0.607933
    108          6           0      -30.420251    2.417568   -0.113548
    109          6           0      -30.591589   -0.523420   -2.165878
    110          6           0      -32.087841   -0.992736   -1.942093
    111          7           0      -25.767938   -1.618500    0.078660
    112          6           0      -26.899913   -2.405953   -0.166181
    113          6           0      -26.494372   -3.845778   -0.137626
    114          6           0      -25.098049   -3.787240   -0.024675
    115          6           0      -24.687721   -2.424345    0.070400
    116          6           0      -27.316743   -5.033456   -0.268947
    117          6           0      -23.987878   -4.624953   -0.020437
    118          8           0      -23.840665   -5.854994   -0.069067
    119          6           0      -22.772916   -3.691162    0.244872
    120          6           0      -22.052006   -4.190356    1.519617
    121          8           0      -20.872602   -4.473882    1.642773
    122          8           0      -22.908217   -4.295086    2.594435
    123          6           0      -22.355124   -4.796431    3.858156
    124          1           0      -21.684579    3.129463    0.454399
    125          1           0      -28.115665    3.687574   -0.912139
    126          1           0      -29.028741   -2.495013   -0.463366
    127          1           0      -20.887069   -1.254513    1.622761
    128          1           0      -20.301428    1.311048    0.305497
    129          1           0      -21.144612    1.594839    3.000922
    130          1           0      -19.532595    1.806819    2.352313
    131          1           0      -19.952045    0.274924    2.960912
    132          1           0      -19.730452   -2.242246   -0.117291
    133          1           0      -19.201776   -0.666751   -0.739113
    134          1           0      -21.262992   -0.516200   -2.019034
    135          1           0      -21.298670   -2.260787   -1.917195
    136          1           0      -23.177869    6.399182    0.532618
    137          1           0      -22.562375    5.797481   -1.036711
    138          1           0      -22.127131    5.036382    0.433529
    139          1           0      -28.212613    5.943925   -0.813816
    140          1           0      -27.709308    5.405686   -2.308579
    141          1           0      -27.620040    7.093277   -2.043205
    142          1           0      -29.942537    1.965975   -2.010236
    143          1           0      -30.399352   -0.146065    0.015715
    144          1           0      -30.811591    3.346338   -0.528394
    145          1           0      -29.814976    2.825223    0.696910
    146          1           0      -31.249500    1.815030    0.256761
    147          1           0      -30.070182   -1.442579   -2.436480
    148          1           0      -30.697998    0.159540   -3.007611
    149          1           0      -32.708775   -0.636832   -2.763251
    150          1           0      -32.473962   -0.469378   -1.067294
    151          1           0      -32.047123   -2.081314   -1.984316
    152          1           0      -28.276087   -4.744637    0.161041
    153          1           0      -26.894860   -5.858947    0.305481
    154          1           0      -27.288588   -5.307350   -1.323184
    155          1           0      -21.938720   -3.868560   -0.433521
    156          1           0      -23.170247   -5.223709    4.442510
    157          1           0      -21.900895   -4.079388    4.541795
    158          1           0      -21.538529   -5.507577    3.730061
 ---------------------------------------------------------------------

 SCF Done:  E(RPBE1PBE) =  -4067.34340489     A.U. after   19 cycles

 Excitation energies and oscillator strengths:

 Excited State   1:      Singlet-A      1.8134 eV  683.70 nm  f=0.0000  <S**2>=0.000
     312 -> 313        0.70711
 This state for optimization and/or second-order correction.
 Total Energy, E(TD-HF/TD-DFT) =  -4067.27676236
 Copying the excited state density for this state as the 1-particle RhoCI density.

 Excited State   2:      Singlet-A      1.8537 eV  668.86 nm  f=0.4094  <S**2>=0.000
     309 -> 315        0.15879
     311 -> 313        0.69705
     311 <- 313       -0.12237

 Excited State   3:      Singlet-A      1.8743 eV  661.48 nm  f=0.3690  <S**2>=0.000
     310 -> 316        0.17475
     312 -> 314        0.69056

 Excited State   4:      Singlet-A      2.1733 eV  570.49 nm  f=0.0000  <S**2>=0.000
     311 -> 314        0.70711

 Excited State   5:      Singlet-A      2.2446 eV  552.37 nm  f=0.1089  <S**2>=0.000
     310 -> 314        0.65157
     312 -> 316       -0.26006

 The electronic state is 1-A.
 Alpha  occ. eigenvalues --  -46.93717 -46.91657 -19.25486 -19.25011 -19.20316
 Alpha  occ. eigenvalues --  -19.19973 -19.19752 -19.19505 -19.19023 -19.17866
 Alpha  occ. eigenvalues --  -14.42703 -14.41800 -14.41409 -14.41232 -14.40116
 Alpha  occ. eigenvalues --  -14.39877 -14.39607 -14.38654 -10.36738 -10.35333
 Alpha  occ. eigenvalues --  -10.33455 -10.33242 -10.31653 -10.31596 -10.30554
 Alpha  occ. eigenvalues --  -10.29951 -10.29315 -10.29262 -10.28870 -10.28708
 Alpha  occ. eigenvalues --  -10.28690 -10.28689 -10.28598 -10.28575 -10.28525
 Alpha  occ. eigenvalues --  -10.28321 -10.28185 -10.27841 -10.27839 -10.27362
 Alpha  occ. eigenvalues --  -10.27135 -10.27074 -10.27049 -10.26974 -10.26780
 Alpha  occ. eigenvalues --  -10.26737 -10.26333 -10.26307 -10.26194 -10.26165
 Alpha  occ. eigenvalues --  -10.26154 -10.25857 -10.25731 -10.25674 -10.25553
 Alpha  occ. eigenvalues --  -10.25456 -10.25370 -10.25340 -10.25277 -10.25116
 Alpha  occ. eigenvalues --  -10.25093 -10.25066 -10.25065 -10.25049 -10.24815
 Alpha  occ. eigenvalues --  -10.24813 -10.24801 -10.24767 -10.24399 -10.24382
 Alpha  occ. eigenvalues --  -10.24131 -10.24100 -10.24021 -10.23935 -10.23749
 Alpha  occ. eigenvalues --  -10.23667 -10.23629 -10.23587 -10.23529 -10.23224
 Alpha  occ. eigenvalues --  -10.23099 -10.23087 -10.23082 -10.22896 -10.22785
 Alpha  occ. eigenvalues --  -10.22568  -3.15706  -3.13766  -1.88522  -1.88113
 Alpha  occ. eigenvalues --   -1.87894  -1.86615  -1.86133  -1.85997  -1.10857
 Alpha  occ. eigenvalues --   -1.10662  -1.05936  -1.04334  -1.03602  -1.02531
 Alpha  occ. eigenvalues --   -1.02301  -1.02147  -0.99602  -0.99121  -0.98696
 Alpha  occ. eigenvalues --   -0.98206  -0.97130  -0.96997  -0.96636  -0.95642
 Alpha  occ. eigenvalues --   -0.87242  -0.86368  -0.84035  -0.83737  -0.83444
 Alpha  occ. eigenvalues --   -0.83333  -0.82661  -0.82459  -0.82207  -0.82099
 Alpha  occ. eigenvalues --   -0.81249  -0.81185  -0.80249  -0.79760  -0.79011
 Alpha  occ. eigenvalues --   -0.78607  -0.78431  -0.77977  -0.77228  -0.76826
 Alpha  occ. eigenvalues --   -0.76789  -0.75691  -0.75339  -0.75003  -0.74565
 Alpha  occ. eigenvalues --   -0.74163  -0.72855  -0.72482  -0.71713  -0.71299
 Alpha  occ. eigenvalues --   -0.71262  -0.70800  -0.70655  -0.70098  -0.69719
 Alpha  occ. eigenvalues --   -0.69076  -0.67849  -0.66795  -0.66439  -0.65739
 Alpha  occ. eigenvalues --   -0.63982  -0.63319  -0.63278  -0.63247  -0.62762
 Alpha  occ. eigenvalues --   -0.61982  -0.61521  -0.61384  -0.60423  -0.60154
 Alpha  occ. eigenvalues --   -0.60051  -0.59371  -0.59340  -0.59117  -0.59050
 Alpha  occ. eigenvalues --   -0.58960  -0.57841  -0.55790  -0.55410  -0.54588
 Alpha  occ. eigenvalues --   -0.54404  -0.53802  -0.53590  -0.53296  -0.53172
 Alpha  occ. eigenvalues --   -0.52672  -0.52607  -0.52395  -0.51784  -0.51699
 Alpha  occ. eigenvalues --   -0.51026  -0.50490  -0.50276  -0.50266  -0.49990
 Alpha  occ. eigenvalues --   -0.49374  -0.49295  -0.48970  -0.48871  -0.48426
 Alpha  occ. eigenvalues --   -0.48306  -0.48053  -0.47776  -0.47734  -0.47638
 Alpha  occ. eigenvalues --   -0.47500  -0.47215  -0.47158  -0.47128  -0.46769
 Alpha  occ. eigenvalues --   -0.46739  -0.46294  -0.46107  -0.46046  -0.45722
 Alpha  occ. eigenvalues --   -0.45635  -0.45556  -0.45364  -0.45314  -0.45214
 Alpha  occ. eigenvalues --   -0.44853  -0.44853  -0.44514  -0.44242  -0.44194
 Alpha  occ. eigenvalues --   -0.44105  -0.43980  -0.43882  -0.43672  -0.43436
 Alpha  occ. eigenvalues --   -0.43283  -0.43254  -0.43023  -0.42911  -0.42729
 Alpha  occ. eigenvalues --   -0.42676  -0.42397  -0.42391  -0.42109  -0.41939
 Alpha  occ. eigenvalues --   -0.41908  -0.41559  -0.41455  -0.41380  -0.41156
 Alpha  occ. eigenvalues --   -0.41009  -0.40901  -0.40839  -0.40682  -0.40500
 Alpha  occ. eigenvalues --   -0.40280  -0.40075  -0.39939  -0.39842  -0.39661
 Alpha  occ. eigenvalues --   -0.39593  -0.39374  -0.39331  -0.39184  -0.39157
 Alpha  occ. eigenvalues --   -0.38889  -0.38681  -0.38569  -0.38506  -0.38460
 Alpha  occ. eigenvalues --   -0.38169  -0.37941  -0.37616  -0.37532  -0.37483
 Alpha  occ. eigenvalues --   -0.37392  -0.37202  -0.37197  -0.36901  -0.36857
 Alpha  occ. eigenvalues --   -0.36754  -0.36363  -0.36324  -0.36076  -0.35833
 Alpha  occ. eigenvalues --   -0.35712  -0.35578  -0.35431  -0.35191  -0.34998
 Alpha  occ. eigenvalues --   -0.34909  -0.34755  -0.34598  -0.34355  -0.34025
 Alpha  occ. eigenvalues --   -0.33638  -0.33602  -0.33047  -0.32892  -0.32640
 Alpha  occ. eigenvalues --   -0.32238  -0.31928  -0.31849  -0.31586  -0.31312
 Alpha  occ. eigenvalues --   -0.31240  -0.30989  -0.29789  -0.29638  -0.29306
 Alpha  occ. eigenvalues --   -0.29302  -0.28973  -0.28705  -0.27155  -0.27127
 Alpha  occ. eigenvalues --   -0.26394  -0.26189  -0.25916  -0.25866  -0.25576
 Alpha  occ. eigenvalues --   -0.25058  -0.24845  -0.24666  -0.21812  -0.20931
 Alpha  occ. eigenvalues --   -0.19327  -0.18873
 Alpha virt. eigenvalues --   -0.11946  -0.11080  -0.05439  -0.05319  -0.04200
 Alpha virt. eigenvalues --   -0.04119  -0.02371  -0.02345  -0.02049   0.00130
 Alpha virt. eigenvalues --    0.00238   0.00475   0.00832   0.01131   0.01409

 Mulliken charges:
               1
     1  Mg  12.000000
     2  C    6.000000
     3  C    6.000000
     4  C    6.000000
     5  C    6.000000
     6  N    7.000000
     7  C    6.000000
     8  C    6.000000
     9  C    6.000000
    10  C    6.000000
    11  C    6.000000
    12  C    6.000000
    13  C    6.000000
    14  H    1.000000
    15  N    7.000000
    16  C    6.000000
    17  C    6.000000
    18  C    6.000000
    19  C    6.000000
    20  C    6.000000
    21  C    6.000000
    22  O    8.000000
    23  C    6.000000
    24  N    7.000000
    25  C    6.000000
    26  C    6.000000
    27  C    6.000000
    28  C    6.000000
    29  C    6.000000
    30  C    6.000000
    31  C    6.000000
    32  N    7.000000
    33  C    6.000000
    34  C    6.000000
    35  C    6.000000
    36  C    6.000000
    37  C    6.000000
    38  C    6.000000
    39  O    8.000000
    40  C    6.000000
    41  C    6.000000
    42  O    8.000000
    43  O    8.000000
    44  C    6.000000
    45  H    1.000000
    46  H    1.000000
    47  H    1.000000
    48  H    1.000000
    49  H    1.000000
    50  H    1.000000
    51  H    1.000000
    52  H    1.000000
    53  H    1.000000
    54  H    1.000000
    55  H    1.000000
    56  H    1.000000
    57  H    1.000000
    58  H    1.000000
    59  H    1.000000
    60  H    1.000000
    61  H    1.000000
    62  H    1.000000
    63  H    1.000000
    64  H    1.000000
    65  H    1.000000
    66  H    1.000000
    67  H    1.000000
    68  H    1.000000
    69  H    1.000000
    70  H    1.000000
    71  H    1.000000
    72  H    1.000000
    73  H    1.000000
    74  H    1.000000
    75  H    1.000000
    76  H    1.000000
    77  H    1.000000
    78  H    1.000000
    79  H    1.000000
    80  Mg  12.000000
    81  C    6.000000
    82  C    6.000000
    83  C    6.000000
    84  C    6.000000
    85  N    7.000000
    86  C    6.000000
    87  C    6.000000
    88  C    6.000000
    89  C    6.000000
    90  C    6.000000
    91  C    6.000000
    92  C    6.000000
    93  H    1.000000
    94  N    7.000000
    95  C    6.000000
    96  C    6.000000
    97  C    6.000000
    98  C    6.000000
    99  C    6.000000
   100  C    6.000000
   101  O    8.000000
   102  C    6.000000
   103  N    7.000000
   104  C    6.000000
   105  C    6.000000
   106  C    6.000000
   107  C    6.000000
   108  C    6.000000
   109  C    6.000000
   110  C    6.000000
   111  N    7.000000
   112  C    6.000000
   113  C    6.000000
   114  C    6.000000
   115  C    6.000000
   116  C    6.000000
   117  C    6.000000
   118  O    8.000000
   119  C    6.000000
   120  C    6.000000
   121  O    8.000000
   122  O    8.000000
   123  C    6.000000
   124  H    1.000000
   125  H    1.000000
   126  H    1.000000
   127  H    1.000000
   128  H    1.000000
   129  H    1.000000
   130  H    1.000000
   131  H    1.000000
   132  H    1.000000
   133  H    1.000000
   134  H    1.000000
   135  H    1.000000
   136  H    1.000000
   137  H    1.000000
   138  H    1.000000
   139  H    1.000000
   140  H    1.000000
   141  H    1.000000
   142  H    1.000000
   143  H    1.000000
   144  H    1.000000
   145  H    1.000000
   146  H    1.000000
   147  H    1.000000
   148  H    1.000000
   149  H    1.000000
   150  H    1.000000
   151  H    1.000000
   152  H    1.000000
   153  H    1.000000
   154  H    1.000000
   155  H    1.000000
   156  H    1.000000
   157  H    1.000000
   158  H    1.000000
 Sum of Mulliken charges = 624.00000

 Dipole moment (field-independent basis, Debye):
    X=             -0.0000    Y=              0.0000    Z=             -0.0000  Tot=              0.0000
 Quadrupole moment (field-independent basis, Debye-Ang):
   XX=              0.0000   YY=              0.0000   ZZ=             -0.0000
   XY=             -0.0000   XZ=              0.0000   YZ=             -0.0000

 Normal termination of Gaussian 16 at Fri Oct 15 12:32:50 2021.
