 Gaussian 16, Revision A.03,
 Gaussian 16:  ES64L-G16RevA.03 25-Dec-2016

 --------------------------------------------------------
 #p PBE1PBE/Def2SVP td=(nstates=5) density=(transition=1)
 --------------------------------------------------------

 --------------------------------
 TDDFT excited states in gaussian
 --------------------------------
 Symbolic Z-matrix:
 Charge =  0 Multiplicity = 1

                         Standard orientation:
 ---------------------------------------------------------------------
 Center     Atomic      Atomic             Coordinates (Angstroms)
 Number     Number       Type             X           Y           Z
 ---------------------------------------------------------------------
      1         12           0       13.795629   -0.091267   -0.008487
      2          6           0       10.405019   -0.642769   -0.883894
      3          6           0       13.630212    2.844856   -1.705378
      4          6           0       16.709212    0.783345    1.509892
      5          6           0       13.594765   -2.844960    2.086643
      6          7           0       12.065064    0.961572   -1.010105
      7          6           0       10.805690    0.548767   -1.356013
      8          6           0       10.119481    1.528976   -2.233086
      9          6           0       11.316606    2.463537   -2.739217
     10          6           0       12.391908    2.097891   -1.773900
     11          6           0       11.668807    2.195871   -4.193623
     12          6           0        9.010892    2.190000   -1.398999
     13          6           0        7.535111    2.157124   -1.981154
     14          1           0        6.710284    3.465511   -2.172176
     15          7           0       15.063528    1.532954   -0.078417
     16          6           0       14.840738    2.621161   -0.933512
     17          6           0       16.016339    3.438735   -0.911507
     18          6           0       16.943166    2.897395    0.042204
     19          6           0       16.278733    1.641336    0.481960
     20          6           0       16.138138    4.654933   -1.820584
     21          6           0       18.290307    3.435297    0.470142
     22          8           0       18.666511    4.440985   -0.198842
     23          6           0       19.184289    2.985499    1.660223
     24          7           0       15.025851   -0.915169    1.593313
     25          6           0       16.196182   -0.381483    2.007335
     26          6           0       16.851048   -1.172520    3.170576
     27          6           0       15.891424   -2.407904    3.273633
     28          6           0       14.714082   -1.995853    2.270152
     29          6           0       18.282847   -1.523134    2.807305
     30          6           0       15.349513   -2.688308    4.642017
     31          6           0       15.864627   -3.964177    5.250901
     32          7           0       12.458912   -1.558492    0.406639
     33          6           0       12.480017   -2.682428    1.242156
     34          6           0       11.411025   -3.514066    1.014769
     35          6           0       10.576954   -2.772607    0.153267
     36          6           0       11.222021   -1.568466   -0.119422
     37          6           0       11.334547   -4.940294    1.517139
     38          6           0        9.316976   -2.842662   -0.633554
     39          8           0        8.528153   -3.732132   -0.717715
     40          6           0        9.195268   -1.392240   -1.236661
     41          6           0        8.686221   -1.545246   -2.653383
     42          8           0        7.530697   -1.315669   -3.010461
     43          8           0        9.739249   -1.937965   -3.514867
     44          6           0        9.326793   -1.977697   -4.917555
     45          1           0       13.666931    3.670930   -2.418971
     46          1           0       17.690351    0.973128    1.951474
     47          1           0       13.375111   -3.578728    2.864147
     48          1           0        9.660831    1.005577   -3.072106
     49          1           0       10.994659    3.501182   -2.655358
     50          1           0       11.601579    1.143382   -4.465589
     51          1           0       12.719015    2.449031   -4.342575
     52          1           0       11.109838    2.807990   -4.901376
     53          1           0        9.301556    3.229874   -1.250444
     54          1           0        8.967921    1.840760   -0.367355
     55          1           0        7.047459    1.553587   -1.215183
     56          1           0        7.478334    1.502989   -2.850406
     57          1           0       15.262227    5.298001   -1.734747
     58          1           0       16.171817    4.267375   -2.838729
     59          1           0       16.947013    5.357821   -1.616480
     60          1           0       19.535325    2.002644    1.347407
     61          1           0       18.562956    2.915409    2.553121
     62          1           0       19.994739    3.685943    1.863588
     63          1           0       16.897804   -0.623623    4.110782
     64          1           0       16.350472   -3.274588    2.798686
     65          1           0       18.775344   -0.605872    2.484100
     66          1           0       18.257913   -2.239942    1.985908
     67          1           0       18.902230   -2.056965    3.527068
     68          1           0       14.266235   -2.806452    4.667655
     69          1           0       15.508487   -1.920986    5.399420
     70          1           0       16.289305   -3.721788    6.224285
     71          1           0       16.693361   -4.395808    4.689656
     72          1           0       15.121625   -4.759534    5.318688
     73          1           0       10.568188   -5.429140    0.914758
     74          1           0       11.059202   -4.994055    2.570148
     75          1           0       12.334899   -5.342301    1.358112
     76          1           0        8.328822   -1.001486   -0.701852
     77          1           0       10.181892   -1.808070   -5.572012
     78          1           0        8.683425   -1.135036   -5.166734
     79          1           0        8.800342   -2.894956   -5.182779
     80         12           0      -13.238586    0.860507    0.159968
     81          6           0      -13.312359   -2.504517   -0.553317
     82          6           0       -9.807281    0.828949   -0.535543
     83          6           0      -13.057981    4.141625    0.931999
     84          6           0      -16.474352    0.738400    1.175923
     85          7           0      -11.686043   -0.766250   -0.223731
     86          6           0      -12.036262   -2.032844   -0.707828
     87          6           0      -10.852181   -2.735732   -1.400729
     88          6           0       -9.735924   -1.637195   -1.252950
     89          6           0      -10.412961   -0.409735   -0.682030
     90          6           0       -8.556180   -2.094223   -0.404261
     91          6           0      -11.004472   -3.230753   -2.882560
     92          6           0      -10.990471   -4.835523   -3.131960
     93          1           0       -9.845801   -5.241989   -4.065241
     94          7           0      -11.679846    2.246314    0.297090
     95          6           0      -10.364831    2.063717   -0.160446
     96          6           0       -9.640278    3.337232   -0.224985
     97          6           0      -10.566032    4.393658    0.295966
     98          6           0      -11.873973    3.647426    0.482708
     99          6           0       -8.207697    3.451030   -0.697556
    100          6           0      -10.368233    5.815198    0.539260
    101          8           0      -11.268286    6.478610    1.075045
    102          6           0       -9.067920    6.535990    0.229486
    103          7           0      -14.531747    2.146289    0.994584
    104          6           0      -14.308502    3.530397    1.115415
    105          6           0      -15.576097    4.378026    1.537049
    106          6           0      -16.659351    3.183717    1.630394
    107          6           0      -15.832140    1.943978    1.221473
    108          6           0      -15.405437    5.197771    2.909688
    109          6           0      -17.890677    3.443159    0.695840
    110          6           0      -19.244939    3.043681    1.192180
    111          7           0      -14.602389   -0.649209    0.381660
    112          6           0      -15.940864   -0.535166    0.768196
    113          6           0      -16.632600   -1.763653    0.574973
    114          6           0      -15.619619   -2.575550   -0.057234
    115          6           0      -14.420927   -1.851053   -0.059819
    116          6           0      -18.038592   -2.133010    0.800302
    117          6           0      -15.344767   -3.899896   -0.519683
    118          8           0      -16.015007   -4.924859   -0.686511
    119          6           0      -13.762645   -3.935854   -0.726020
    120          6           0      -13.178424   -4.915434    0.227935
    121          8           0      -12.658928   -4.712574    1.254130
    122          8           0      -13.208606   -6.195972   -0.319377
    123          6           0      -12.202394   -7.104319    0.190114
    124          1           0       -8.758387    0.829767   -0.839411
    125          1           0      -13.149644    5.208121    1.147659
    126          1           0      -17.550956    0.729452    1.358189
    127          1           0      -10.557829   -3.593733   -0.797295
    128          1           0       -9.261077   -1.413047   -2.208539
    129          1           0       -8.526879   -1.494452    0.505026
    130          1           0       -7.702436   -1.856893   -1.037853
    131          1           0       -8.507493   -3.162438   -0.194024
    132          1           0      -10.198051   -2.786122   -3.466268
    133          1           0      -11.955938   -2.913532   -3.309620
    134          1           0      -11.926040   -4.988841   -3.670122
    135          1           0      -10.921524   -5.367420   -2.183310
    136          1           0       -7.585131    3.037825    0.096993
    137          1           0       -7.982470    4.507684   -0.833545
    138          1           0       -7.985365    2.828928   -1.564807
    139          1           0       -9.106425    7.462346    0.802988
    140          1           0       -8.912014    6.726704   -0.832830
    141          1           0       -8.151334    6.112882    0.640045
    142          1           0      -15.890019    5.009644    0.706652
    143          1           0      -17.116954    3.053851    2.611391
    144          1           0      -16.346220    5.147300    3.458247
    145          1           0      -15.271026    6.275332    2.823564
    146          1           0      -14.592427    4.823155    3.531920
    147          1           0      -17.778256    3.033217   -0.307725
    148          1           0      -18.064538    4.504713    0.520889
    149          1           0      -19.541935    2.221468    0.541329
    150          1           0      -20.104195    3.697438    1.042539
    151          1           0      -19.173610    2.707036    2.226951
    152          1           0      -18.647742   -1.233112    0.710976
    153          1           0      -18.058133   -2.473162    1.835613
    154          1           0      -18.274912   -2.997743    0.179939
    155          1           0      -13.525859   -4.253528   -1.741150
    156          1           0      -12.586445   -7.395495    1.167182
    157          1           0      -11.298291   -6.505925    0.301322
    158          1           0      -12.099774   -7.986018   -0.443130
 ---------------------------------------------------------------------

 SCF Done:  E(RPBE1PBE) =  -4067.36295219     A.U. after   16 cycles

 Excitation energies and oscillator strengths:

 Excited State   1:      Singlet-A      1.8151 eV  683.07 nm  f=0.3966  <S**2>=0.000
     310 -> 315        0.14954
     312 -> 314        0.69580
     312 <- 314       -0.11532
 This state for optimization and/or second-order correction.
 Total Energy, E(TD-HF/TD-DFT) =  -4067.29624868
 Copying the excited state density for this state as the 1-particle RhoCI density.

 Excited State   2:      Singlet-A      1.8195 eV  681.40 nm  f=0.0000  <S**2>=0.000
     312 -> 313        0.70710

 Excited State   3:      Singlet-A      1.8485 eV  670.73 nm  f=0.3412  <S**2>=0.000
     309 -> 316       -0.16641
     311 -> 313        0.69424
     311 <- 313       -0.11259

 Excited State   4:      Singlet-A      1.9654 eV  630.83 nm  f=0.0000  <S**2>=0.000
     311 -> 314        0.70710

 Excited State   5:      Singlet-A      2.1894 eV  566.30 nm  f=0.1167  <S**2>=0.000
     310 -> 314        0.65561
     312 -> 315       -0.22793

 The electronic state is 1-A.
 Alpha  occ. eigenvalues --  -46.92494 -46.91286 -19.26392 -19.22814 -19.21372
 Alpha  occ. eigenvalues --  -19.20189 -19.19725 -19.18816 -19.18592 -19.18376
 Alpha  occ. eigenvalues --  -14.42010 -14.41973 -14.41762 -14.41481 -14.39799
 Alpha  occ. eigenvalues --  -14.39785 -14.38810 -14.38296 -10.37524 -10.35077
 Alpha  occ. eigenvalues --  -10.32905 -10.32768 -10.32159 -10.31480 -10.29769
 Alpha  occ. eigenvalues --  -10.29359 -10.29006 -10.28986 -10.28759 -10.28611
 Alpha  occ. eigenvalues --  -10.28558 -10.28473 -10.28383 -10.28382 -10.28369
 Alpha  occ. eigenvalues --  -10.28360 -10.28107 -10.27808 -10.27763 -10.27263
 Alpha  occ. eigenvalues --  -10.27006 -10.26995 -10.26875 -10.26730 -10.26422
 Alpha  occ. eigenvalues --  -10.26261 -10.26255 -10.26253 -10.26127 -10.26101
 Alpha  occ. eigenvalues --  -10.26098 -10.26063 -10.26017 -10.25985 -10.25887
 Alpha  occ. eigenvalues --  -10.25622 -10.25511 -10.25465 -10.25386 -10.25277
 Alpha  occ. eigenvalues --  -10.25121 -10.25041 -10.24990 -10.24828 -10.24781
 Alpha  occ. eigenvalues --  -10.24749 -10.24733 -10.24710 -10.24426 -10.24332
 Alpha  occ. eigenvalues --  -10.24150 -10.24127 -10.24024 -10.23884 -10.23845
 Alpha  occ. eigenvalues --  -10.23823 -10.23630 -10.23526 -10.23501 -10.23282
 Alpha  occ. eigenvalues --  -10.23207 -10.22984 -10.22880 -10.22764 -10.22678
 Alpha  occ. eigenvalues --  -10.22452  -3.14636  -3.13620  -1.87457  -1.87015
 Alpha  occ. eigenvalues --   -1.86864  -1.86431  -1.86005  -1.85862  -1.11512
 Alpha  occ. eigenvalues --   -1.10450  -1.06947  -1.04008  -1.02994  -1.02909
 Alpha  occ. eigenvalues --   -1.02561  -1.02384  -0.99958  -0.99425  -0.99034
 Alpha  occ. eigenvalues --   -0.98078  -0.98008  -0.97488  -0.96537  -0.95023
 Alpha  occ. eigenvalues --   -0.87785  -0.87012  -0.84268  -0.83716  -0.83459
 Alpha  occ. eigenvalues --   -0.83395  -0.82834  -0.82671  -0.82280  -0.81694
 Alpha  occ. eigenvalues --   -0.81497  -0.81493  -0.80715  -0.80318  -0.79180
 Alpha  occ. eigenvalues --   -0.78698  -0.78387  -0.77762  -0.77025  -0.76587
 Alpha  occ. eigenvalues --   -0.76180  -0.75866  -0.75167  -0.75101  -0.74923
 Alpha  occ. eigenvalues --   -0.74529  -0.72877  -0.72224  -0.71833  -0.71677
 Alpha  occ. eigenvalues --   -0.71282  -0.70933  -0.70891  -0.69951  -0.69541
 Alpha  occ. eigenvalues --   -0.69502  -0.68073  -0.67495  -0.66759  -0.66036
 Alpha  occ. eigenvalues --   -0.63866  -0.63539  -0.63451  -0.63064  -0.62344
 Alpha  occ. eigenvalues --   -0.62224  -0.61865  -0.61769  -0.60769  -0.60246
 Alpha  occ. eigenvalues --   -0.60060  -0.60031  -0.59720  -0.59590  -0.59369
 Alpha  occ. eigenvalues --   -0.58437  -0.57782  -0.55406  -0.55161  -0.54721
 Alpha  occ. eigenvalues --   -0.54554  -0.54293  -0.53920  -0.53727  -0.53537
 Alpha  occ. eigenvalues --   -0.53077  -0.52808  -0.52802  -0.52150  -0.51475
 Alpha  occ. eigenvalues --   -0.50972  -0.50914  -0.50434  -0.50300  -0.50024
 Alpha  occ. eigenvalues --   -0.49708  -0.49526  -0.49072  -0.48541  -0.48450
 Alpha  occ. eigenvalues --   -0.48311  -0.48232  -0.47898  -0.47689  -0.47500
 Alpha  occ. eigenvalues --   -0.47476  -0.47239  -0.46924  -0.46725  -0.46592
 Alpha  occ. eigenvalues --   -0.46338  -0.46281  -0.46144  -0.45910  -0.45825
 Alpha  occ. eigenvalues --   -0.45757  -0.45618  -0.45309  -0.45224  -0.45069
 Alpha  occ. eigenvalues --   -0.44918  -0.44761  -0.44710  -0.44590  -0.44396
 Alpha  occ. eigenvalues --   -0.44361  -0.44329  -0.44057  -0.43661  -0.43402
 Alpha  occ. eigenvalues --   -0.43393  -0.43199  -0.43172  -0.43081  -0.42745
 Alpha  occ. eigenvalues --   -0.42685  -0.42609  -0.42495  -0.41970  -0.41866
 Alpha  occ. eigenvalues --   -0.41709  -0.41584  -0.41469  -0.41406  -0.41254
 Alpha  occ. eigenvalues --   -0.41085  -0.40909  -0.40889  -0.40737  -0.40731
 Alpha  occ. eigenvalues --   -0.40564  -0.40304  -0.40170  -0.40081  -0.40028
 Alpha  occ. eigenvalues --   -0.39984  -0.39776  -0.39725  -0.39381  -0.39028
 Alpha  occ. eigenvalues --   -0.38974  -0.38754  -0.38585  -0.38369  -0.38279
 Alpha  occ. eigenvalues --   -0.38219  -0.38079  -0.37727  -0.37693  -0.37657
 Alpha  occ. eigenvalues --   -0.37398  -0.37342  -0.37318  -0.37167  -0.36977
 Alpha  occ. eigenvalues --   -0.36741  -0.36656  -0.36501  -0.36485  -0.36289
 Alpha  occ. eigenvalues --   -0.36221  -0.36108  -0.35989  -0.35839  -0.35447
 Alpha  occ. eigenvalues --   -0.35131  -0.35035  -0.34751  -0.34144  -0.33929
 Alpha  occ. eigenvalues --   -0.33844  -0.33616  -0.33280  -0.32866  -0.32716
 Alpha  occ. eigenvalues --   -0.32631  -0.32473  -0.32305  -0.32081  -0.31555
 Alpha  occ. eigenvalues --   -0.31108  -0.30400  -0.29939  -0.29760  -0.29596
 Alpha  occ. eigenvalues --   -0.29109  -0.28936  -0.28539  -0.27505  -0.27021
 Alpha  occ. eigenvalues --   -0.26252  -0.25991  -0.25750  -0.25568  -0.25458
 Alpha  occ. eigenvalues --   -0.25181  -0.25172  -0.24742  -0.21461  -0.21218
 Alpha  occ. eigenvalues --   -0.19356  -0.19006
 Alpha virt. eigenvalues --   -0.11825  -0.11633  -0.05721  -0.05447  -0.04184
 Alpha virt. eigenvalues --   -0.04063  -0.02200  -0.02122  -0.01037  -0.00569
 Alpha virt. eigenvalues --   -0.00487   0.00619   0.00893   0.01283   0.01296

 Mulliken charges:
               1
     1  Mg  11.999938
     2  C    6.000368
     3  C    6.000301
     4  C    5.999739
     5  C    5.999565
     6  N    7.000194
     7  C    5.999954
     8  C    6.000086
     9  C    5.999980
    10  C    5.999911
    11  C    6.000001
    12  C    5.999811
    13  C    5.999694
    14  H    1.001039
    15  N    7.000018
    16  C    5.999853
    17  C    6.000068
    18  C    5.999895
    19  C    6.000021
    20  C    5.999941
    21  C    5.999914
    22  O    7.999868
    23  C    6.000003
    24  N    6.999831
    25  C    6.000049
    26  C    6.000041
    27  C    5.999920
    28  C    6.000204
    29  C    6.000087
    30  C    6.000087
    31  C    6.000063
    32  N    6.999982
    33  C    6.000211
    34  C    5.999854
    35  C    6.000142
    36  C    5.999891
    37  C    6.000042
    38  C    6.000073
    39  O    8.000045
    40  C    5.999954
    41  C    5.999949
    42  O    8.000403
    43  O    7.999870
    44  C    5.999972
    45  H    1.000101
    46  H    0.999836
    47  H    0.999817
    48  H    1.000052
    49  H    1.000226
    50  H    0.999901
    51  H    0.999842
    52  H    1.000181
    53  H    1.000128
    54  H    1.000047
    55  H    1.000203
    56  H    0.999921
    57  H    1.000111
    58  H    0.999917
    59  H    0.999926
    60  H    0.999900
    61  H    1.000019
    62  H    0.999842
    63  H    0.999920
    64  H    0.999847
    65  H    0.999948
    66  H    0.999889
    67  H    0.999780
    68  H    1.000057
    69  H    0.999972
    70  H    0.999884
    71  H    0.999869
    72  H    0.999909
    73  H    0.999914
    74  H    0.999951
    75  H    0.999844
    76  H    1.000418
    77  H    0.999852
    78  H    1.000250
    79  H    0.999889
    80  Mg  12.002318
    81  C    5.990482
    82  C    6.010520
    83  C    6.015147
    84  C    5.993181
    85  N    6.995018
    86  C    6.024520
    87  C    5.988119
    88  C    6.008413
    89  C    5.975034
    90  C    6.001009
    91  C    5.998938
    92  C    5.996233
    93  H    1.008435
    94  N    7.000542
    95  C    5.966125
    96  C    5.971333
    97  C    5.987584
    98  C    5.971979
    99  C    6.001996
   100  C    5.988804
   101  O    7.970015
   102  C    6.006335
   103  N    7.001386
   104  C    5.967398
   105  C    6.013279
   106  C    5.987739
   107  C    6.030818
   108  C    6.002632
   109  C    5.994473
   110  C    6.000354
   111  N    7.000678
   112  C    6.034991
   113  C    6.027050
   114  C    6.004897
   115  C    6.024592
   116  C    5.999939
   117  C    6.016151
   118  O    8.032348
   119  C    5.999632
   120  C    6.000775
   121  O    8.008099
   122  O    7.999655
   123  C    5.997994
   124  H    0.991828
   125  H    0.993473
   126  H    1.009507
   127  H    1.002617
   128  H    1.000150
   129  H    1.002894
   130  H    1.000061
   131  H    0.987658
   132  H    1.009044
   133  H    0.997416
   134  H    0.997118
   135  H    0.997970
   136  H    0.980397
   137  H    0.986073
   138  H    0.980716
   139  H    0.986570
   140  H    0.990042
   141  H    0.992284
   142  H    0.997508
   143  H    1.003301
   144  H    0.989599
   145  H    1.001732
   146  H    1.001506
   147  H    1.000630
   148  H    1.011129
   149  H    0.995149
   150  H    1.004950
   151  H    1.000110
   152  H    1.017365
   153  H    1.017865
   154  H    1.012674
   155  H    1.010969
   156  H    1.002132
   157  H    1.006044
   158  H    1.004560
 Sum of Mulliken charges = 624.00000

 Dipole moment (field-independent basis, Debye):
    X=             -7.5062    Y=             -7.6736    Z=              0.1290  Tot=             10.7352
 Quadrupole moment (field-independent basis, Debye-Ang):
   XX=            191.6355   YY=            -11.0513   ZZ=              0.6060
   XY=             93.1960   XZ=             -4.1665   YZ=             -0.7541

 Normal termination of Gaussian 16 at Fri Oct 15 00:29:25 2021.
