 Gaussian 16, Revision A.03,
 Gaussian 16:  ES64L-G16RevA.03 25-Dec-2016

 --------------------------------------------------------
 #p PBE1PBE/Def2SVP td=(nstates=5) density=(transition=1)
 --------------------------------------------------------

 --------------------------------
 TDDFT excited states in gaussian
 --------------------------------
 Symbolic Z-matrix:
 Charge =  0 Multiplicity = 1

                         Standard orientation:
 ---------------------------------------------------------------------
 Center     Atomic      Atomic             Coordinates (Angstroms)
 Number     Number       Type             X           Y           Z
 ---------------------------------------------------------------------
      1         12           0       25.363975   -0.153669   -0.302732
      2          6           0       22.019884   -0.467369    0.520796
      3          6           0       24.469435    2.369561   -2.632094
      4          6           0       28.668955    0.627692   -0.759623
      5          6           0       26.261146   -2.253110    2.288878
      6          7           0       23.436630    0.709761   -1.034957
      7          6           0       22.201850    0.486915   -0.462746
      8          6           0       21.076093    1.462572   -0.973044
      9          6           0       21.787784    2.088009   -2.263968
     10          6           0       23.352586    1.693372   -2.044100
     11          6           0       21.276401    1.682555   -3.698714
     12          6           0       20.650209    2.505495   -0.000499
     13          6           0       19.217723    2.567321    0.493814
     14          1           0       18.703340    3.958107    0.898637
     15          7           0       26.432077    1.247721   -1.609010
     16          6           0       25.824567    2.139530   -2.512884
     17          6           0       26.830852    2.817567   -3.266474
     18          6           0       28.107603    2.429017   -2.611756
     19          6           0       27.793950    1.390475   -1.582083
     20          6           0       26.540817    3.913461   -4.297310
     21          6           0       29.448447    3.047504   -3.044296
     22          8           0       29.628831    3.904221   -3.904890
     23          6           0       30.610778    2.839179   -2.139368
     24          7           0       27.284325   -0.614744    0.787907
     25          6           0       28.472630   -0.299164    0.255008
     26          6           0       29.526091   -0.651409    1.304239
     27          6           0       28.813010   -1.682911    2.297684
     28          6           0       27.319118   -1.554223    1.757659
     29          6           0       30.735776   -1.375757    0.614057
     30          6           0       28.900162   -1.457875    3.863027
     31          6           0       29.644216   -2.448093    4.746468
     32          7           0       24.342612   -1.255039    1.112014
     33          6           0       24.836178   -2.110627    2.101881
     34          6           0       23.755364   -2.619505    2.889668
     35          6           0       22.593055   -2.007757    2.326312
     36          6           0       23.053112   -1.219100    1.200689
     37          6           0       23.811232   -3.553583    4.057189
     38          6           0       21.192148   -1.909590    2.358329
     39          8           0       20.420908   -2.461517    3.117386
     40          6           0       20.762845   -0.859484    1.261752
     41          6           0       19.615699   -1.401797    0.517027
     42          8           0       18.464268   -1.013482    0.678413
     43          8           0       20.035571   -2.404978   -0.343690
     44          6           0       18.921950   -3.027144   -1.094539
     45          1           0       24.314398    3.125763   -3.403918
     46          1           0       29.698226    0.873770   -1.030379
     47          1           0       26.566810   -2.879899    3.129063
     48          1           0       20.207861    0.881930   -1.282757
     49          1           0       21.754731    3.170870   -2.138632
     50          1           0       20.317788    1.181228   -3.565546
     51          1           0       21.958746    1.044936   -4.260963
     52          1           0       21.187888    2.603222   -4.274256
     53          1           0       20.793813    3.465219   -0.499177
     54          1           0       21.241934    2.427158    0.910914
     55          1           0       19.160265    1.983816    1.412220
     56          1           0       18.491211    2.227204   -0.243807
     57          1           0       25.527360    4.273446   -4.473145
     58          1           0       27.010754    3.508201   -5.193087
     59          1           0       27.253562    4.694036   -4.033155
     60          1           0       31.255813    1.972989   -2.280455
     61          1           0       30.336498    2.930176   -1.088264
     62          1           0       31.295868    3.663443   -2.341176
     63          1           0       29.889206    0.220174    1.849317
     64          1           0       29.095960   -2.704053    2.044531
     65          1           0       31.639165   -0.869933    0.954807
     66          1           0       30.710416   -1.398428   -0.476143
     67          1           0       30.809657   -2.431942    0.874146
     68          1           0       27.857664   -1.400088    4.175233
     69          1           0       29.441267   -0.518167    3.982108
     70          1           0       29.205505   -2.326257    5.737137
     71          1           0       30.690108   -2.146985    4.809923
     72          1           0       29.596047   -3.515013    4.531181
     73          1           0       22.777482   -3.697936    4.372319
     74          1           0       24.449984   -3.091213    4.809115
     75          1           0       24.211433   -4.544338    3.841160
     76          1           0       20.399179   -0.014761    1.847782
     77          1           0       18.522108   -3.874452   -0.537596
     78          1           0       19.321425   -3.255987   -2.082519
     79          1           0       18.117862   -2.317941   -1.288874
     80         12           0      -25.459999    0.119869    0.403209
     81          6           0      -22.242688   -1.055809   -0.480584
     82          6           0      -26.694320   -2.195837   -1.568376
     83          6           0      -28.238854    1.910849    0.451983
     84          6           0      -23.776344    2.890421    1.858447
     85          7           0      -24.461180   -1.562776   -0.738080
     86          6           0      -23.235315   -1.906585   -0.897277
     87          6           0      -23.135187   -3.299641   -1.552151
     88          6           0      -24.542022   -3.435659   -2.329224
     89          6           0      -25.298415   -2.273179   -1.561313
     90          6           0      -24.508445   -3.224178   -3.894578
     91          6           0      -23.027031   -4.455731   -0.426698
     92          6           0      -22.205580   -5.756557   -0.702742
     93          1           0      -22.113400   -6.214360   -2.204998
     94          7           0      -27.289872   -0.213649   -0.270040
     95          6           0      -27.607207   -1.315021   -1.050699
     96          6           0      -29.078947   -1.262914   -1.362974
     97          6           0      -29.535555   -0.039487   -0.715977
     98          6           0      -28.398914    0.671574   -0.124467
     99          6           0      -29.737424   -2.320191   -2.228992
    100          6           0      -30.957398    0.471165   -0.636332
    101          8           0      -31.292553    1.541745   -0.110659
    102          6           0      -32.041637   -0.365218   -1.184395
    103          7           0      -25.976616    2.148910    1.183109
    104          6           0      -27.198673    2.618679    1.009097
    105          6           0      -27.417531    3.916840    1.906500
    106          6           0      -25.882194    4.222360    2.338338
    107          6           0      -25.166598    2.990267    1.791037
    108          6           0      -28.160444    5.079436    1.168910
    109          6           0      -25.575420    4.439984    3.856422
    110          6           0      -25.172655    5.828857    4.280978
    111          7           0      -23.415875    0.737124    0.863745
    112          6           0      -22.947507    1.892408    1.457326
    113          6           0      -21.545906    1.929030    1.399477
    114          6           0      -21.232743    0.807347    0.608564
    115          6           0      -22.367886    0.113258    0.262444
    116          6           0      -20.652100    2.928609    1.939066
    117          6           0      -20.110365    0.100791    0.125637
    118          8           0      -18.859121    0.195043    0.250889
    119          6           0      -20.740142   -0.999644   -0.841549
    120          6           0      -20.029016   -2.293207   -0.682369
    121          8           0      -19.964373   -3.001045    0.320582
    122          8           0      -19.507884   -2.646668   -1.966921
    123          6           0      -18.746582   -3.899001   -2.058903
    124          1           0      -27.062092   -3.063784   -2.120389
    125          1           0      -29.179370    2.461204    0.512851
    126          1           0      -23.267864    3.706513    2.377318
    127          1           0      -22.415463   -3.216869   -2.366137
    128          1           0      -24.886301   -4.464529   -2.230104
    129          1           0      -23.565221   -2.791231   -4.227026
    130          1           0      -25.267079   -2.512661   -4.220174
    131          1           0      -24.644660   -4.214598   -4.328734
    132          1           0      -24.016715   -4.755617   -0.081824
    133          1           0      -22.624172   -4.003216    0.479629
    134          1           0      -22.573809   -6.630600   -0.164608
    135          1           0      -21.159543   -5.506306   -0.521561
    136          1           0      -30.686144   -2.660414   -1.812370
    137          1           0      -29.105101   -3.191956   -2.397343
    138          1           0      -29.805478   -1.954233   -3.253168
    139          1           0      -31.881418   -0.573330   -2.242657
    140          1           0      -32.999401    0.137840   -1.050943
    141          1           0      -32.189884   -1.326776   -0.692934
    142          1           0      -27.948959    3.702040    2.833545
    143          1           0      -25.432501    5.006919    1.727996
    144          1           0      -28.311590    4.827479    0.119102
    145          1           0      -27.511336    5.920004    1.415110
    146          1           0      -29.076537    5.268577    1.726965
    147          1           0      -24.746783    3.780692    4.115813
    148          1           0      -26.432183    4.117827    4.448599
    149          1           0      -25.356591    6.424684    3.387948
    150          1           0      -24.097835    5.819948    4.465714
    151          1           0      -25.782231    6.228885    5.090276
    152          1           0      -20.923995    3.058388    2.986262
    153          1           0      -20.818931    3.951447    1.601199
    154          1           0      -19.622769    2.576877    1.866888
    155          1           0      -20.642706   -0.643217   -1.867505
    156          1           0      -18.324729   -4.021790   -3.056775
    157          1           0      -19.446433   -4.732766   -1.999825
    158          1           0      -17.917424   -3.865946   -1.352935
 ---------------------------------------------------------------------

 SCF Done:  E(RPBE1PBE) =  -4067.33039654     A.U. after   16 cycles

 Excitation energies and oscillator strengths:

 Excited State   1:      Singlet-A      1.8585 eV  667.13 nm  f=0.3598  <S**2>=0.000
     309 -> 316        0.17024
     311 -> 313        0.69188
     311 <- 313       -0.10673
 This state for optimization and/or second-order correction.
 Total Energy, E(TD-HF/TD-DFT) =  -4067.26209907
 Copying the excited state density for this state as the 1-particle RhoCI density.

 Excited State   2:      Singlet-A      1.8794 eV  659.70 nm  f=0.0000  <S**2>=0.000
     312 -> 313        0.70711

 Excited State   3:      Singlet-A      1.9488 eV  636.21 nm  f=0.3535  <S**2>=0.000
     310 -> 315        0.20421
     312 -> 314        0.68090

 Excited State   4:      Singlet-A      2.1844 eV  567.60 nm  f=0.1540  <S**2>=0.000
     309 -> 313        0.65883
     311 -> 316       -0.23360

 Excited State   5:      Singlet-A      2.2125 eV  560.39 nm  f=0.0832  <S**2>=0.000
     310 -> 314        0.64636
     312 -> 315       -0.26600

 The electronic state is 1-A.
 Alpha  occ. eigenvalues --  -46.93847 -46.92781 -19.25806 -19.24608 -19.20395
 Alpha  occ. eigenvalues --  -19.20124 -19.19171 -19.19148 -19.18777 -19.18753
 Alpha  occ. eigenvalues --  -14.42941 -14.41647 -14.41534 -14.41141 -14.39654
 Alpha  occ. eigenvalues --  -14.39618 -14.39615 -14.38290 -10.36286 -10.36183
 Alpha  occ. eigenvalues --  -10.32231 -10.32196 -10.31656 -10.31520 -10.30663
 Alpha  occ. eigenvalues --  -10.29531 -10.29495 -10.29236 -10.29231 -10.28755
 Alpha  occ. eigenvalues --  -10.28755 -10.28655 -10.28393 -10.28388 -10.28336
 Alpha  occ. eigenvalues --  -10.28296 -10.28193 -10.28062 -10.27919 -10.27795
 Alpha  occ. eigenvalues --  -10.27220 -10.27172 -10.26993 -10.26830 -10.26504
 Alpha  occ. eigenvalues --  -10.26494 -10.26480 -10.26477 -10.26284 -10.26276
 Alpha  occ. eigenvalues --  -10.26265 -10.26204 -10.26149 -10.26084 -10.26065
 Alpha  occ. eigenvalues --  -10.26062 -10.25753 -10.25662 -10.25602 -10.25479
 Alpha  occ. eigenvalues --  -10.25477 -10.25418 -10.25400 -10.25123 -10.25117
 Alpha  occ. eigenvalues --  -10.25106 -10.25094 -10.24730 -10.24616 -10.24366
 Alpha  occ. eigenvalues --  -10.24113 -10.23957 -10.23880 -10.23853 -10.23813
 Alpha  occ. eigenvalues --  -10.23677 -10.23654 -10.23619 -10.23379 -10.23343
 Alpha  occ. eigenvalues --  -10.23292 -10.23058 -10.22944 -10.22840 -10.22619
 Alpha  occ. eigenvalues --  -10.22381  -3.15649  -3.14817  -1.88516  -1.87997
 Alpha  occ. eigenvalues --   -1.87872  -1.87660  -1.87200  -1.87026  -1.10326
 Alpha  occ. eigenvalues --   -1.08670  -1.04741  -1.04620  -1.04089  -1.02357
 Alpha  occ. eigenvalues --   -1.02027  -1.01529  -1.00428  -0.99850  -0.99658
 Alpha  occ. eigenvalues --   -0.98755  -0.98220  -0.97039  -0.96245  -0.96077
 Alpha  occ. eigenvalues --   -0.87360  -0.87029  -0.83825  -0.83760  -0.83617
 Alpha  occ. eigenvalues --   -0.82930  -0.82477  -0.82185  -0.82004  -0.81897
 Alpha  occ. eigenvalues --   -0.81698  -0.81634  -0.81109  -0.79936  -0.78707
 Alpha  occ. eigenvalues --   -0.78584  -0.78259  -0.78202  -0.77136  -0.76992
 Alpha  occ. eigenvalues --   -0.76360  -0.76221  -0.75779  -0.75249  -0.75103
 Alpha  occ. eigenvalues --   -0.75010  -0.73268  -0.72242  -0.72042  -0.71464
 Alpha  occ. eigenvalues --   -0.71265  -0.71171  -0.70502  -0.70214  -0.69850
 Alpha  occ. eigenvalues --   -0.69571  -0.68010  -0.67696  -0.66737  -0.66721
 Alpha  occ. eigenvalues --   -0.63764  -0.63540  -0.63400  -0.62940  -0.62403
 Alpha  occ. eigenvalues --   -0.62304  -0.61613  -0.61519  -0.60423  -0.60083
 Alpha  occ. eigenvalues --   -0.60061  -0.60019  -0.59881  -0.59753  -0.59304
 Alpha  occ. eigenvalues --   -0.59151  -0.57585  -0.55819  -0.55069  -0.54802
 Alpha  occ. eigenvalues --   -0.54720  -0.54374  -0.54007  -0.53900  -0.53670
 Alpha  occ. eigenvalues --   -0.53026  -0.52439  -0.52309  -0.51869  -0.51486
 Alpha  occ. eigenvalues --   -0.51481  -0.51132  -0.50495  -0.50335  -0.50004
 Alpha  occ. eigenvalues --   -0.49994  -0.49334  -0.48824  -0.48543  -0.48494
 Alpha  occ. eigenvalues --   -0.48277  -0.48086  -0.47808  -0.47729  -0.47530
 Alpha  occ. eigenvalues --   -0.47382  -0.47320  -0.47068  -0.47015  -0.47014
 Alpha  occ. eigenvalues --   -0.46689  -0.46649  -0.46125  -0.46085  -0.45941
 Alpha  occ. eigenvalues --   -0.45719  -0.45671  -0.45492  -0.45057  -0.44976
 Alpha  occ. eigenvalues --   -0.44961  -0.44796  -0.44472  -0.44299  -0.44229
 Alpha  occ. eigenvalues --   -0.44166  -0.43763  -0.43631  -0.43528  -0.43417
 Alpha  occ. eigenvalues --   -0.43340  -0.43254  -0.43031  -0.42952  -0.42659
 Alpha  occ. eigenvalues --   -0.42643  -0.42462  -0.42332  -0.42296  -0.42007
 Alpha  occ. eigenvalues --   -0.41918  -0.41754  -0.41654  -0.41524  -0.41441
 Alpha  occ. eigenvalues --   -0.41325  -0.41061  -0.40884  -0.40794  -0.40746
 Alpha  occ. eigenvalues --   -0.40500  -0.40351  -0.40296  -0.40152  -0.40139
 Alpha  occ. eigenvalues --   -0.39959  -0.39725  -0.39434  -0.39304  -0.39016
 Alpha  occ. eigenvalues --   -0.38983  -0.38780  -0.38726  -0.38666  -0.38480
 Alpha  occ. eigenvalues --   -0.38394  -0.38130  -0.37779  -0.37768  -0.37530
 Alpha  occ. eigenvalues --   -0.37482  -0.37275  -0.37022  -0.36761  -0.36465
 Alpha  occ. eigenvalues --   -0.36416  -0.36381  -0.36366  -0.36027  -0.35959
 Alpha  occ. eigenvalues --   -0.35857  -0.35639  -0.35510  -0.35299  -0.35262
 Alpha  occ. eigenvalues --   -0.35002  -0.34945  -0.34654  -0.34394  -0.33962
 Alpha  occ. eigenvalues --   -0.33487  -0.33364  -0.32868  -0.32862  -0.32443
 Alpha  occ. eigenvalues --   -0.32431  -0.32195  -0.31767  -0.31550  -0.31030
 Alpha  occ. eigenvalues --   -0.30920  -0.30666  -0.29781  -0.29769  -0.29344
 Alpha  occ. eigenvalues --   -0.28944  -0.28781  -0.28755  -0.27425  -0.27411
 Alpha  occ. eigenvalues --   -0.26095  -0.26038  -0.25938  -0.25806  -0.25546
 Alpha  occ. eigenvalues --   -0.25282  -0.25017  -0.25005  -0.21567  -0.21101
 Alpha  occ. eigenvalues --   -0.19754  -0.19303
 Alpha virt. eigenvalues --   -0.12134  -0.11164  -0.06058  -0.05853  -0.04415
 Alpha virt. eigenvalues --   -0.04130  -0.02220  -0.02136  -0.00533  -0.00390
 Alpha virt. eigenvalues --   -0.00021   0.00382   0.00632   0.01163   0.01423

 Mulliken charges:
               1
     1  Mg  11.997883
     2  C    5.978485
     3  C    5.997270
     4  C    6.030652
     5  C    6.003944
     6  N    6.985103
     7  C    6.028188
     8  C    5.989885
     9  C    6.003998
    10  C    5.972802
    11  C    6.004022
    12  C    6.001191
    13  C    5.998131
    14  H    1.003476
    15  N    7.009965
    16  C    5.965022
    17  C    5.982357
    18  C    5.988195
    19  C    5.960694
    20  C    6.001371
    21  C    5.988971
    22  O    7.980640
    23  C    6.005431
    24  N    7.009056
    25  C    5.966306
    26  C    6.008846
    27  C    5.996488
    28  C    6.022925
    29  C    6.001853
    30  C    5.996016
    31  C    5.999284
    32  N    6.997177
    33  C    6.034394
    34  C    6.024590
    35  C    6.003113
    36  C    6.029703
    37  C    6.000243
    38  C    6.017134
    39  O    8.030167
    40  C    6.003032
    41  C    6.004868
    42  O    8.006817
    43  O    7.997657
    44  C    5.997450
    45  H    0.986993
    46  H    1.000406
    47  H    1.012975
    48  H    0.997217
    49  H    0.998247
    50  H    0.986204
    51  H    0.999675
    52  H    0.997982
    53  H    1.008000
    54  H    0.995169
    55  H    0.993509
    56  H    1.001170
    57  H    0.984568
    58  H    0.984591
    59  H    0.986847
    60  H    0.986735
    61  H    0.990175
    62  H    0.989865
    63  H    0.999524
    64  H    1.000799
    65  H    1.000362
    66  H    1.005416
    67  H    0.993752
    68  H    0.993622
    69  H    1.010526
    70  H    1.000710
    71  H    1.007113
    72  H    1.000469
    73  H    1.011315
    74  H    1.016511
    75  H    1.018121
    76  H    1.005353
    77  H    0.999940
    78  H    1.006118
    79  H    1.005226
    80  Mg  11.999990
    81  C    5.999946
    82  C    5.999891
    83  C    6.000127
    84  C    6.000044
    85  N    7.000040
    86  C    5.999954
    87  C    6.000032
    88  C    5.999973
    89  C    6.000078
    90  C    5.999990
    91  C    6.000016
    92  C    5.999992
    93  H    0.999997
    94  N    6.999978
    95  C    6.000086
    96  C    6.000060
    97  C    6.000052
    98  C    5.999935
    99  C    6.000017
   100  C    6.000025
   101  O    8.000115
   102  C    5.999986
   103  N    6.999946
   104  C    6.000072
   105  C    5.999980
   106  C    6.000015
   107  C    5.999939
   108  C    5.999987
   109  C    6.000001
   110  C    6.000002
   111  N    7.000048
   112  C    5.999941
   113  C    5.999943
   114  C    6.000085
   115  C    5.999907
   116  C    5.999980
   117  C    5.999833
   118  O    7.999939
   119  C    6.000027
   120  C    5.999944
   121  O    8.000014
   122  O    7.999997
   123  C    6.000007
   124  H    1.000035
   125  H    1.000012
   126  H    0.999987
   127  H    0.999995
   128  H    0.999999
   129  H    1.000028
   130  H    1.000013
   131  H    1.000012
   132  H    0.999983
   133  H    0.999990
   134  H    0.999981
   135  H    0.999987
   136  H    1.000028
   137  H    1.000016
   138  H    1.000044
   139  H    1.000019
   140  H    1.000041
   141  H    1.000006
   142  H    1.000008
   143  H    1.000022
   144  H    1.000009
   145  H    1.000029
   146  H    1.000011
   147  H    0.999995
   148  H    0.999987
   149  H    1.000010
   150  H    0.999991
   151  H    0.999995
   152  H    0.999952
   153  H    0.999973
   154  H    0.999952
   155  H    1.000004
   156  H    0.999997
   157  H    0.999992
   158  H    0.999964
 Sum of Mulliken charges = 624.00000

 Dipole moment (field-independent basis, Debye):
    X=             -3.7197    Y=             -6.2126    Z=              7.0486  Tot=             10.1052
 Quadrupole moment (field-independent basis, Debye-Ang):
   XX=           -184.1303   YY=             -1.3803   ZZ=             -2.0695
   XY=           -157.8889   XZ=            179.3846   YZ=              2.0927

 Normal termination of Gaussian 16 at Fri Oct 15 07:16:23 2021.
