 Gaussian 16, Revision A.03,
 Gaussian 16:  ES64L-G16RevA.03 25-Dec-2016

 --------------------------------------------------------
 #p PBE1PBE/Def2SVP td=(nstates=5) density=(transition=1)
 --------------------------------------------------------

 --------------------------------
 TDDFT excited states in gaussian
 --------------------------------
 Symbolic Z-matrix:
 Charge =  0 Multiplicity = 1

                         Standard orientation:
 ---------------------------------------------------------------------
 Center     Atomic      Atomic             Coordinates (Angstroms)
 Number     Number       Type             X           Y           Z
 ---------------------------------------------------------------------
      1         12           0      -12.247779    0.098172   -0.695931
      2          6           0       -8.990552   -1.225543   -0.954432
      3          6           0      -13.317429   -3.031372    0.121973
      4          6           0      -15.206808    1.497291    0.287973
      5          6           0      -10.739077    3.306057   -1.061039
      6          7           0      -11.214630   -1.906843   -0.303074
      7          6           0       -9.936615   -2.281292   -0.604595
      8          6           0       -9.650323   -3.742371   -0.217082
      9          6           0      -11.169996   -4.262752   -0.265255
     10          6           0      -11.961400   -2.984296   -0.143499
     11          6           0      -11.570411   -5.056251   -1.537873
     12          6           0       -9.019680   -3.932581    1.235326
     13          6           0       -8.208892   -5.185882    1.526817
     14          1           0       -8.714361   -6.288585    2.481318
     15          7           0      -14.116778   -0.618994    0.088997
     16          6           0      -14.355495   -1.957522    0.205512
     17          6           0      -15.703620   -2.206562    0.468296
     18          6           0      -16.323235   -0.900775    0.502632
     19          6           0      -15.227953    0.093767    0.323207
     20          6           0      -16.322675   -3.588718    0.638067
     21          6           0      -17.807307   -0.710340    0.720196
     22          8           0      -18.546911   -1.716944    0.870019
     23          6           0      -18.523898    0.684600    0.662188
     24          7           0      -12.813751    2.085630   -0.452515
     25          6           0      -14.138851    2.416577   -0.059579
     26          6           0      -14.397884    3.876416   -0.308719
     27          6           0      -12.990735    4.506666   -0.392236
     28          6           0      -12.115664    3.265140   -0.732405
     29          6           0      -15.170348    4.315911   -1.573050
     30          6           0      -12.518912    5.147815    1.017161
     31          6           0      -12.964604    6.562016    1.357215
     32          7           0      -10.279932    0.850245   -1.139244
     33          6           0       -9.832422    2.156840   -1.264799
     34          6           0       -8.464780    2.212309   -1.456761
     35          6           0       -8.061089    0.867348   -1.399106
     36          6           0       -9.206966    0.084521   -1.179055
     37          6           0       -7.672610    3.463952   -1.667354
     38          6           0       -6.996682    0.027252   -1.571449
     39          8           0       -5.864318    0.263357   -1.944013
     40          6           0       -7.508692   -1.326827   -1.036907
     41          6           0       -6.806932   -1.513055    0.275203
     42          8           0       -6.875688   -0.745565    1.184216
     43          8           0       -6.013540   -2.661130    0.239225
     44          6           0       -5.199129   -2.790622    1.397215
     45          1           0      -13.738578   -4.037279    0.182953
     46          1           0      -16.177810    1.986608    0.393272
     47          1           0      -10.375507    4.306759   -1.302738
     48          1           0       -9.134107   -4.289231   -1.005403
     49          1           0      -11.282907   -4.953624    0.569776
     50          1           0      -11.484270   -6.091001   -1.205062
     51          1           0      -10.871430   -4.900543   -2.359541
     52          1           0      -12.603244   -4.859142   -1.825574
     53          1           0       -9.806202   -3.963189    1.989405
     54          1           0       -8.458228   -3.022408    1.447293
     55          1           0       -7.262653   -4.800692    1.909525
     56          1           0       -7.988000   -5.654728    0.568051
     57          1           0      -17.329781   -3.779253    0.265697
     58          1           0      -16.206869   -3.673275    1.718343
     59          1           0      -15.756720   -4.321798    0.063233
     60          1           0      -18.412704    1.107570   -0.335861
     61          1           0      -18.009732    1.239513    1.446676
     62          1           0      -19.561740    0.706238    0.994363
     63          1           0      -14.882983    4.257035    0.589533
     64          1           0      -12.926251    5.274801   -1.162978
     65          1           0      -14.583491    4.869756   -2.305611
     66          1           0      -16.195885    4.597730   -1.333498
     67          1           0      -15.351577    3.380079   -2.101463
     68          1           0      -11.437799    5.093450    0.890934
     69          1           0      -12.818943    4.513169    1.851225
     70          1           0      -13.429303    6.562272    2.342825
     71          1           0      -13.690647    6.897430    0.616114
     72          1           0      -12.114732    7.242011    1.421227
     73          1           0       -6.835264    3.407028   -0.972464
     74          1           0       -8.225929    4.363174   -1.393735
     75          1           0       -7.272563    3.547970   -2.677948
     76          1           0       -7.208825   -2.101386   -1.741926
     77          1           0       -4.227736   -2.332233    1.213830
     78          1           0       -4.903669   -3.819149    1.607894
     79          1           0       -5.646275   -2.325609    2.274149
     80         12           0       11.082704    0.880529   -0.231463
     81          6           0       12.724335   -2.280325   -0.032108
     82          6           0        8.670676   -0.487736    1.591161
     83          6           0        9.962039    3.982807    0.504390
     84          6           0       14.236004    2.161479   -1.287904
     85          7           0       10.697201   -1.106631    0.539398
     86          6           0       11.449242   -2.297528    0.443409
     87          6           0       10.761130   -3.515345    1.136790
     88          6           0        9.418731   -2.880602    1.598383
     89          6           0        9.542638   -1.410849    1.144032
     90          6           0        8.280215   -3.708554    0.979517
     91          6           0       11.536685   -4.218047    2.333270
     92          6           0       11.998005   -5.652485    2.102853
     93          1           0       11.528779   -6.720138    3.112216
     94          7           0        9.520891    1.653671    0.783025
     95          6           0        8.606588    0.882957    1.500877
     96          6           0        7.557832    1.685754    1.985930
     97          6           0        7.789261    2.986106    1.576870
     98          6           0        9.095073    2.960291    0.949528
     99          6           0        6.288707    1.257207    2.812098
    100          6           0        6.822380    4.116684    1.839980
    101          8           0        5.733923    3.974134    2.312311
    102          6           0        7.286412    5.560324    1.306818
    103          7           0       11.983299    2.804246   -0.297519
    104          6           0       11.276296    3.929502    0.028071
    105          6           0       12.285389    5.147157   -0.051624
    106          6           0       13.571322    4.635705   -0.722156
    107          6           0       13.271728    3.088823   -0.766820
    108          6           0       11.706377    6.412853   -0.617085
    109          6           0       14.759714    4.892572    0.196101
    110          6           0       16.122450    4.960927   -0.440498
    111          7           0       13.024707    0.089066   -0.835123
    112          6           0       14.165459    0.729652   -1.256489
    113          6           0       15.167753   -0.218090   -1.584052
    114          6           0       14.667469   -1.484572   -1.199400
    115          6           0       13.392696   -1.192738   -0.637114
    116          6           0       16.537416    0.050083   -2.064530
    117          6           0       14.878071   -2.932083   -1.062410
    118          8           0       15.840815   -3.611552   -1.443155
    119          6           0       13.621899   -3.532493   -0.322011
    120          6           0       12.879068   -4.351749   -1.242167
    121          8           0       12.171558   -3.838635   -2.141120
    122          8           0       13.157404   -5.637326   -0.949493
    123          6           0       12.371118   -6.707360   -1.622396
    124          1           0        7.840291   -0.914249    2.158345
    125          1           0        9.536723    4.969865    0.698065
    126          1           0       15.181577    2.483854   -1.728092
    127          1           0       10.554759   -4.289895    0.398218
    128          1           0        9.295916   -2.860947    2.680839
    129          1           0        7.356228   -3.163667    1.170854
    130          1           0        8.160935   -4.719981    1.367731
    131          1           0        8.389538   -3.823420   -0.099472
    132          1           0       10.777460   -4.321070    3.108583
    133          1           0       12.352507   -3.581349    2.675718
    134          1           0       13.087846   -5.639128    2.066195
    135          1           0       11.621741   -5.998187    1.139390
    136          1           0        6.284085    1.898039    3.694045
    137          1           0        6.337657    0.213928    3.123599
    138          1           0        5.342251    1.270675    2.271661
    139          1           0        6.435047    6.220026    1.471681
    140          1           0        7.521446    5.368232    0.259666
    141          1           0        8.160691    5.756787    1.927341
    142          1           0       12.493946    5.362616    0.996912
    143          1           0       13.809717    5.042682   -1.704777
    144          1           0       12.508484    6.968198   -1.102443
    145          1           0       11.291343    6.955379    0.232567
    146          1           0       10.844589    6.263937   -1.266612
    147          1           0       14.829131    4.177639    1.016463
    148          1           0       14.643698    5.811133    0.771292
    149          1           0       16.080940    5.010962   -1.528405
    150          1           0       16.668754    4.062826   -0.151565
    151          1           0       16.723065    5.746985    0.017082
    152          1           0       16.591593    0.981613   -2.628821
    153          1           0       16.792410   -0.796887   -2.701955
    154          1           0       17.144595    0.148772   -1.164408
    155          1           0       13.841431   -4.021163    0.627268
    156          1           0       13.135375   -7.482016   -1.700164
    157          1           0       11.940741   -6.408123   -2.577628
    158          1           0       11.658271   -7.169475   -0.938630
 ---------------------------------------------------------------------

 SCF Done:  E(RPBE1PBE) =  -4067.35251502     A.U. after   16 cycles

 Excitation energies and oscillator strengths:

 Excited State   1:      Singlet-A      1.7049 eV  727.23 nm  f=0.0000  <S**2>=0.000
     312 -> 313        0.70709
 This state for optimization and/or second-order correction.
 Total Energy, E(TD-HF/TD-DFT) =  -4067.28986177
 Copying the excited state density for this state as the 1-particle RhoCI density.

 Excited State   2:      Singlet-A      1.8600 eV  666.59 nm  f=0.6475  <S**2>=0.000
     309 -> 315       -0.16364
     311 -> 313        0.62255
     312 -> 314       -0.29742

 Excited State   3:      Singlet-A      1.8712 eV  662.60 nm  f=0.1254  <S**2>=0.000
     310 -> 316        0.15154
     311 -> 313        0.29444
     312 -> 314        0.62721

 Excited State   4:      Singlet-A      2.1415 eV  578.97 nm  f=0.0000  <S**2>=0.000
     311 -> 314        0.70708

 Excited State   5:      Singlet-A      2.1542 eV  575.55 nm  f=0.1149  <S**2>=0.000
     309 -> 313        0.65684
     311 -> 315        0.24328

 The electronic state is 1-A.
 Alpha  occ. eigenvalues --  -46.93677 -46.91870 -19.27107 -19.25997 -19.21060
 Alpha  occ. eigenvalues --  -19.19875 -19.19632 -19.19080 -19.18333 -19.18147
 Alpha  occ. eigenvalues --  -14.42486 -14.42320 -14.41899 -14.41704 -14.39426
 Alpha  occ. eigenvalues --  -14.39020 -14.38816 -14.38177 -10.36659 -10.36452
 Alpha  occ. eigenvalues --  -10.32641 -10.32413 -10.32216 -10.30436 -10.30092
 Alpha  occ. eigenvalues --  -10.30084 -10.30019 -10.29434 -10.29411 -10.29178
 Alpha  occ. eigenvalues --  -10.28520 -10.28432 -10.28371 -10.28343 -10.28187
 Alpha  occ. eigenvalues --  -10.27906 -10.27903 -10.27668 -10.27041 -10.26965
 Alpha  occ. eigenvalues --  -10.26612 -10.26587 -10.26473 -10.26196 -10.26114
 Alpha  occ. eigenvalues --  -10.25950 -10.25861 -10.25829 -10.25815 -10.25800
 Alpha  occ. eigenvalues --  -10.25679 -10.25645 -10.25603 -10.25590 -10.25585
 Alpha  occ. eigenvalues --  -10.25549 -10.25482 -10.25442 -10.25330 -10.25230
 Alpha  occ. eigenvalues --  -10.25198 -10.25004 -10.24995 -10.24970 -10.24964
 Alpha  occ. eigenvalues --  -10.24921 -10.24674 -10.24472 -10.24267 -10.24150
 Alpha  occ. eigenvalues --  -10.24050 -10.23974 -10.23775 -10.23652 -10.23515
 Alpha  occ. eigenvalues --  -10.23496 -10.23460 -10.23381 -10.23370 -10.23273
 Alpha  occ. eigenvalues --  -10.23202 -10.23081 -10.22977 -10.22766 -10.22600
 Alpha  occ. eigenvalues --  -10.21853  -3.15556  -3.14041  -1.88394  -1.87923
 Alpha  occ. eigenvalues --   -1.87774  -1.86858  -1.86396  -1.86291  -1.12340
 Alpha  occ. eigenvalues --   -1.11367  -1.06508  -1.04804  -1.04268  -1.03487
 Alpha  occ. eigenvalues --   -1.02141  -1.02045  -1.00317  -0.99326  -0.98609
 Alpha  occ. eigenvalues --   -0.98581  -0.97800  -0.97413  -0.96506  -0.96310
 Alpha  occ. eigenvalues --   -0.88700  -0.86566  -0.83909  -0.83505  -0.83210
 Alpha  occ. eigenvalues --   -0.83006  -0.82973  -0.82905  -0.81906  -0.81575
 Alpha  occ. eigenvalues --   -0.81404  -0.80959  -0.80753  -0.80201  -0.78987
 Alpha  occ. eigenvalues --   -0.78637  -0.78515  -0.77898  -0.77473  -0.77157
 Alpha  occ. eigenvalues --   -0.76136  -0.76091  -0.75432  -0.74994  -0.74567
 Alpha  occ. eigenvalues --   -0.74435  -0.72374  -0.72028  -0.71684  -0.71582
 Alpha  occ. eigenvalues --   -0.71206  -0.70835  -0.70508  -0.70258  -0.70030
 Alpha  occ. eigenvalues --   -0.69367  -0.68048  -0.67195  -0.66676  -0.66103
 Alpha  occ. eigenvalues --   -0.63896  -0.63476  -0.62970  -0.62893  -0.62782
 Alpha  occ. eigenvalues --   -0.62162  -0.61628  -0.61554  -0.60669  -0.60007
 Alpha  occ. eigenvalues --   -0.59939  -0.59780  -0.59448  -0.59266  -0.59088
 Alpha  occ. eigenvalues --   -0.58752  -0.57336  -0.56788  -0.55006  -0.54703
 Alpha  occ. eigenvalues --   -0.54573  -0.54158  -0.54124  -0.53842  -0.53758
 Alpha  occ. eigenvalues --   -0.53533  -0.52966  -0.52762  -0.52693  -0.51758
 Alpha  occ. eigenvalues --   -0.51107  -0.50869  -0.50498  -0.50170  -0.49838
 Alpha  occ. eigenvalues --   -0.49644  -0.49506  -0.49226  -0.48832  -0.48429
 Alpha  occ. eigenvalues --   -0.48369  -0.48144  -0.47790  -0.47694  -0.47378
 Alpha  occ. eigenvalues --   -0.47316  -0.47205  -0.46863  -0.46670  -0.46661
 Alpha  occ. eigenvalues --   -0.46405  -0.46177  -0.46046  -0.46039  -0.45779
 Alpha  occ. eigenvalues --   -0.45768  -0.45459  -0.45136  -0.45124  -0.44980
 Alpha  occ. eigenvalues --   -0.44749  -0.44695  -0.44459  -0.44429  -0.44315
 Alpha  occ. eigenvalues --   -0.44270  -0.43966  -0.43686  -0.43621  -0.43529
 Alpha  occ. eigenvalues --   -0.43494  -0.43079  -0.43001  -0.42872  -0.42634
 Alpha  occ. eigenvalues --   -0.42629  -0.42142  -0.42001  -0.41918  -0.41874
 Alpha  occ. eigenvalues --   -0.41678  -0.41596  -0.41263  -0.41110  -0.41066
 Alpha  occ. eigenvalues --   -0.41053  -0.40933  -0.40771  -0.40705  -0.40527
 Alpha  occ. eigenvalues --   -0.40249  -0.40048  -0.39976  -0.39846  -0.39818
 Alpha  occ. eigenvalues --   -0.39494  -0.39477  -0.39429  -0.39384  -0.39039
 Alpha  occ. eigenvalues --   -0.38808  -0.38638  -0.38610  -0.38310  -0.38238
 Alpha  occ. eigenvalues --   -0.38139  -0.38054  -0.37988  -0.37831  -0.37760
 Alpha  occ. eigenvalues --   -0.37599  -0.37397  -0.37300  -0.37278  -0.37098
 Alpha  occ. eigenvalues --   -0.37068  -0.36754  -0.36525  -0.36462  -0.36387
 Alpha  occ. eigenvalues --   -0.36190  -0.35992  -0.35825  -0.35465  -0.35361
 Alpha  occ. eigenvalues --   -0.35195  -0.35132  -0.35030  -0.34352  -0.34011
 Alpha  occ. eigenvalues --   -0.33468  -0.33323  -0.33103  -0.32805  -0.32611
 Alpha  occ. eigenvalues --   -0.32558  -0.32145  -0.32065  -0.31899  -0.31704
 Alpha  occ. eigenvalues --   -0.31586  -0.31003  -0.30366  -0.30233  -0.29350
 Alpha  occ. eigenvalues --   -0.29046  -0.28993  -0.28515  -0.27315  -0.27064
 Alpha  occ. eigenvalues --   -0.26072  -0.25712  -0.25674  -0.25421  -0.25315
 Alpha  occ. eigenvalues --   -0.25215  -0.24683  -0.24607  -0.21288  -0.21099
 Alpha  occ. eigenvalues --   -0.19610  -0.18803
 Alpha virt. eigenvalues --   -0.11970  -0.11162  -0.05963  -0.05176  -0.04253
 Alpha virt. eigenvalues --   -0.03646  -0.01839  -0.01600  -0.01379  -0.00437
 Alpha virt. eigenvalues --    0.00067   0.00119   0.00619   0.00774   0.01254

 Mulliken charges:
               1
     1  Mg  12.000000
     2  C    6.000000
     3  C    6.000000
     4  C    6.000000
     5  C    6.000000
     6  N    7.000000
     7  C    6.000000
     8  C    6.000000
     9  C    6.000000
    10  C    6.000000
    11  C    6.000000
    12  C    6.000000
    13  C    6.000000
    14  H    1.000000
    15  N    7.000000
    16  C    6.000000
    17  C    6.000000
    18  C    6.000000
    19  C    6.000000
    20  C    6.000000
    21  C    6.000000
    22  O    8.000000
    23  C    6.000000
    24  N    7.000000
    25  C    6.000000
    26  C    6.000000
    27  C    6.000000
    28  C    6.000000
    29  C    6.000000
    30  C    6.000000
    31  C    6.000000
    32  N    7.000000
    33  C    6.000000
    34  C    6.000000
    35  C    6.000000
    36  C    6.000000
    37  C    6.000000
    38  C    6.000000
    39  O    8.000000
    40  C    6.000000
    41  C    6.000000
    42  O    8.000000
    43  O    8.000000
    44  C    6.000000
    45  H    1.000000
    46  H    1.000000
    47  H    1.000000
    48  H    1.000000
    49  H    1.000000
    50  H    1.000000
    51  H    1.000000
    52  H    1.000000
    53  H    1.000000
    54  H    1.000000
    55  H    1.000000
    56  H    1.000000
    57  H    1.000000
    58  H    1.000000
    59  H    1.000000
    60  H    1.000000
    61  H    1.000000
    62  H    1.000000
    63  H    1.000000
    64  H    1.000000
    65  H    1.000000
    66  H    1.000000
    67  H    1.000000
    68  H    1.000000
    69  H    1.000000
    70  H    1.000000
    71  H    1.000000
    72  H    1.000000
    73  H    1.000000
    74  H    1.000000
    75  H    1.000000
    76  H    1.000000
    77  H    1.000000
    78  H    1.000000
    79  H    1.000000
    80  Mg  12.000000
    81  C    6.000000
    82  C    6.000000
    83  C    6.000000
    84  C    6.000000
    85  N    7.000000
    86  C    6.000000
    87  C    6.000000
    88  C    6.000000
    89  C    6.000000
    90  C    6.000000
    91  C    6.000000
    92  C    6.000000
    93  H    1.000000
    94  N    7.000000
    95  C    6.000000
    96  C    6.000000
    97  C    6.000000
    98  C    6.000000
    99  C    6.000000
   100  C    6.000000
   101  O    8.000000
   102  C    6.000000
   103  N    7.000000
   104  C    6.000000
   105  C    6.000000
   106  C    6.000000
   107  C    6.000000
   108  C    6.000000
   109  C    6.000000
   110  C    6.000000
   111  N    7.000000
   112  C    6.000000
   113  C    6.000000
   114  C    6.000000
   115  C    6.000000
   116  C    6.000000
   117  C    6.000000
   118  O    8.000000
   119  C    6.000000
   120  C    6.000000
   121  O    8.000000
   122  O    8.000000
   123  C    6.000000
   124  H    1.000000
   125  H    1.000000
   126  H    1.000000
   127  H    1.000000
   128  H    1.000000
   129  H    1.000000
   130  H    1.000000
   131  H    1.000000
   132  H    1.000000
   133  H    1.000000
   134  H    1.000000
   135  H    1.000000
   136  H    1.000000
   137  H    1.000000
   138  H    1.000000
   139  H    1.000000
   140  H    1.000000
   141  H    1.000000
   142  H    1.000000
   143  H    1.000000
   144  H    1.000000
   145  H    1.000000
   146  H    1.000000
   147  H    1.000000
   148  H    1.000000
   149  H    1.000000
   150  H    1.000000
   151  H    1.000000
   152  H    1.000000
   153  H    1.000000
   154  H    1.000000
   155  H    1.000000
   156  H    1.000000
   157  H    1.000000
   158  H    1.000000
 Sum of Mulliken charges = 624.00000

 Dipole moment (field-independent basis, Debye):
    X=              0.0000    Y=              0.0000    Z=             -0.0000  Tot=              0.0000
 Quadrupole moment (field-independent basis, Debye-Ang):
   XX=             -0.0000   YY=             -0.0000   ZZ=             -0.0000
   XY=             -0.0000   XZ=             -0.0000   YZ=             -0.0000

 Normal termination of Gaussian 16 at Thu Oct 14 17:38:26 2021.
