 Gaussian 16, Revision A.03,
 Gaussian 16:  ES64L-G16RevA.03 25-Dec-2016

 --------------------------------------------------------
 #p PBE1PBE/Def2SVP td=(nstates=5) density=(transition=1)
 --------------------------------------------------------

 --------------------------------
 TDDFT excited states in gaussian
 --------------------------------
 Symbolic Z-matrix:
 Charge =  0 Multiplicity = 1

                         Standard orientation:
 ---------------------------------------------------------------------
 Center     Atomic      Atomic             Coordinates (Angstroms)
 Number     Number       Type             X           Y           Z
 ---------------------------------------------------------------------
      1         12           0       26.014664   -0.836110    0.143996
      2          6           0       26.781092    2.440326   -0.573752
      3          6           0       25.099582    0.189900    3.364013
      4          6           0       25.327092   -4.037969    0.962366
      5          6           0       27.266689   -1.809188   -2.856472
      6          7           0       26.211530    1.098446    1.336761
      7          6           0       26.333115    2.348317    0.716839
      8          6           0       25.896673    3.499656    1.644281
      9          6           0       25.474282    2.694078    2.927745
     10          6           0       25.537141    1.228217    2.555875
     11          6           0       26.329850    3.018820    4.145731
     12          6           0       24.776413    4.492709    1.172134
     13          6           0       25.219722    6.029960    0.892811
     14          1           0       24.445528    7.002107    1.788384
     15          7           0       25.424096   -1.801185    1.901493
     16          6           0       24.971857   -1.180340    3.077067
     17          6           0       24.318526   -2.141826    3.971318
     18          6           0       24.429295   -3.487493    3.322198
     19          6           0       25.023848   -3.169133    1.962935
     20          6           0       23.718671   -1.755532    5.305302
     21          6           0       24.038506   -4.813627    3.777990
     22          8           0       24.324561   -5.807936    3.094764
     23          6           0       23.343965   -5.062495    5.105390
     24          7           0       26.345394   -2.587862   -0.774735
     25          6           0       25.857255   -3.827009   -0.320391
     26          6           0       25.995192   -5.018960   -1.351544
     27          6           0       26.672781   -4.215423   -2.577809
     28          6           0       26.748476   -2.770504   -2.034734
     29          6           0       26.879498   -6.255875   -0.828773
     30          6           0       25.826557   -4.340478   -3.891251
     31          6           0       26.560371   -4.463881   -5.189809
     32          7           0       26.964504    0.140065   -1.383496
     33          6           0       27.383201   -0.396483   -2.604456
     34          6           0       27.781734    0.632896   -3.502545
     35          6           0       27.460625    1.821829   -2.748674
     36          6           0       27.051237    1.427505   -1.468567
     37          6           0       28.262365    0.578080   -4.891790
     38          6           0       27.571401    3.246869   -2.765509
     39          8           0       27.906948    4.088257   -3.606386
     40          6           0       27.261835    3.694182   -1.265156
     41          6           0       28.482740    4.319523   -0.691343
     42          8           0       29.280876    3.844499    0.016778
     43          8           0       28.525066    5.674284   -1.012384
     44          6           0       29.277433    6.499586   -0.090451
     45          1           0       24.732944    0.530022    4.334791
     46          1           0       25.084804   -5.096592    1.076114
     47          1           0       27.529154   -2.100111   -3.875714
     48          1           0       26.775057    4.092679    1.896683
     49          1           0       24.474995    2.969136    3.266330
     50          1           0       26.899255    2.130972    4.419391
     51          1           0       25.583249    3.235585    4.908780
     52          1           0       26.961806    3.902589    4.060664
     53          1           0       23.992495    4.494345    1.929891
     54          1           0       24.340662    4.175658    0.224560
     55          1           0       24.878581    6.181058   -0.131497
     56          1           0       26.293821    6.147894    1.034255
     57          1           0       24.555556   -1.566393    5.978713
     58          1           0       23.134812   -2.600286    5.667568
     59          1           0       23.174667   -0.811079    5.280108
     60          1           0       23.479211   -6.125046    5.308407
     61          1           0       22.289921   -4.782927    5.110489
     62          1           0       23.812048   -4.651554    5.999670
     63          1           0       25.007767   -5.324331   -1.696202
     64          1           0       27.654176   -4.581207   -2.880607
     65          1           0       27.478752   -6.624857   -1.661408
     66          1           0       26.339927   -7.158107   -0.543356
     67          1           0       27.527812   -5.993364    0.007453
     68          1           0       25.080256   -3.555570   -4.012857
     69          1           0       25.240211   -5.258579   -3.923227
     70          1           0       26.340935   -3.534996   -5.715989
     71          1           0       26.226966   -5.171658   -5.948757
     72          1           0       27.630624   -4.554033   -5.001129
     73          1           0       27.858923   -0.320885   -5.358646
     74          1           0       29.342495    0.471667   -4.792038
     75          1           0       28.082968    1.545857   -5.360496
     76          1           0       26.455702    4.427311   -1.253147
     77          1           0       30.316218    6.295253   -0.347576
     78          1           0       29.049308    6.111221    0.902009
     79          1           0       29.063915    7.559176   -0.233979
     80         12           0      -26.690842   -0.369443   -0.127577
     81          6           0      -24.960976    2.487917   -0.771127
     82          6           0      -27.928148    0.961288    2.793916
     83          6           0      -28.209552   -3.335306    0.470708
     84          6           0      -25.028615   -1.858689   -2.868181
     85          7           0      -26.285164    1.447424    1.007589
     86          6           0      -25.817144    2.558001    0.377809
     87          6           0      -26.112046    3.823719    1.108911
     88          6           0      -26.864039    3.215514    2.403368
     89          6           0      -27.052428    1.772016    2.069654
     90          6           0      -26.028191    3.407549    3.748920
     91          6           0      -27.085833    4.722543    0.212978
     92          6           0      -27.101380    6.227866    0.487516
     93          1           0      -26.494653    6.893560    1.747768
     94          7           0      -27.984972   -1.102031    1.343117
     95          6           0      -28.354512   -0.383836    2.492083
     96          6           0      -29.208672   -1.248016    3.273303
     97          6           0      -29.322839   -2.480792    2.599071
     98          6           0      -28.520683   -2.301917    1.396670
     99          6           0      -29.873344   -0.748673    4.577405
    100          6           0      -30.084186   -3.815729    3.103965
    101          8           0      -30.249499   -4.805117    2.379225
    102          6           0      -30.698982   -3.979013    4.484217
    103          7           0      -26.659233   -2.332744   -1.149553
    104          6           0      -27.358959   -3.376730   -0.644516
    105          6           0      -26.969625   -4.689595   -1.321965
    106          6           0      -26.173324   -4.150942   -2.645688
    107          6           0      -26.002148   -2.663138   -2.301082
    108          6           0      -26.221824   -5.760881   -0.403402
    109          6           0      -26.987656   -4.183811   -4.036856
    110          6           0      -26.347239   -4.789760   -5.272106
    111          7           0      -25.311899    0.145161   -1.609650
    112          6           0      -24.726934   -0.523144   -2.619106
    113          6           0      -23.868459    0.409838   -3.414203
    114          6           0      -24.007761    1.627461   -2.706774
    115          6           0      -24.793938    1.346952   -1.562574
    116          6           0      -23.086678    0.194659   -4.661629
    117          6           0      -23.565103    2.970214   -2.760755
    118          8           0      -22.821265    3.542172   -3.583886
    119          6           0      -24.159666    3.595930   -1.501594
    120          6           0      -23.082593    4.075722   -0.666194
    121          8           0      -22.132073    3.512290   -0.221024
    122          8           0      -23.404485    5.388896   -0.336331
    123          6           0      -22.543715    6.223742    0.586427
    124          1           0      -28.530351    1.383820    3.600442
    125          1           0      -28.624375   -4.313861    0.722694
    126          1           0      -24.341571   -2.294124   -3.595927
    127          1           0      -25.317041    4.495428    1.432148
    128          1           0      -27.836922    3.683754    2.552750
    129          1           0      -26.612017    3.604896    4.647679
    130          1           0      -25.237504    4.137397    3.575707
    131          1           0      -25.526677    2.457038    3.933782
    132          1           0      -28.118828    4.380403    0.278877
    133          1           0      -26.757304    4.557290   -0.813427
    134          1           0      -28.148742    6.524868    0.420224
    135          1           0      -26.639325    6.737472   -0.357149
    136          1           0      -29.681619    0.299655    4.805824
    137          1           0      -29.515419   -1.398046    5.375659
    138          1           0      -30.944418   -0.925419    4.476433
    139          1           0      -31.551179   -3.300418    4.482764
    140          1           0      -30.101934   -3.509020    5.265973
    141          1           0      -30.804833   -5.035074    4.731634
    142          1           0      -27.886684   -5.160680   -1.677785
    143          1           0      -25.242581   -4.699680   -2.790913
    144          1           0      -25.245008   -6.020220   -0.812344
    145          1           0      -26.836365   -6.653750   -0.294192
    146          1           0      -26.006521   -5.340492    0.579240
    147          1           0      -27.375951   -3.200675   -4.302484
    148          1           0      -27.899919   -4.744720   -3.835987
    149          1           0      -26.360462   -4.014453   -6.037360
    150          1           0      -26.846165   -5.698135   -5.608642
    151          1           0      -25.292955   -4.990990   -5.077035
    152          1           0      -23.202176   -0.791272   -5.111552
    153          1           0      -22.019297    0.320069   -4.477935
    154          1           0      -23.399429    0.939078   -5.393563
    155          1           0      -24.825351    4.428743   -1.730149
    156          1           0      -21.711577    5.631759    0.968096
    157          1           0      -23.128127    6.526747    1.456220
    158          1           0      -22.199890    7.061866   -0.019677
 ---------------------------------------------------------------------

 SCF Done:  E(RPBE1PBE) =  -4067.36351047     A.U. after   16 cycles

 Excitation energies and oscillator strengths:

 Excited State   1:      Singlet-A      1.8151 eV  683.08 nm  f=0.3926  <S**2>=0.000
     309 -> 315        0.14969
     311 -> 313        0.69580
     311 <- 313       -0.11534
 This state for optimization and/or second-order correction.
 Total Energy, E(TD-HF/TD-DFT) =  -4067.29680760
 Copying the excited state density for this state as the 1-particle RhoCI density.

 Excited State   2:      Singlet-A      1.8597 eV  666.69 nm  f=0.0000  <S**2>=0.000
     312 -> 313        0.70711

 Excited State   3:      Singlet-A      1.8923 eV  655.20 nm  f=0.3852  <S**2>=0.000
     310 -> 316       -0.18640
     312 -> 314        0.68963
     312 <- 314       -0.10199

 Excited State   4:      Singlet-A      2.1258 eV  583.25 nm  f=0.0000  <S**2>=0.000
     311 -> 314        0.70711

 Excited State   5:      Singlet-A      2.1895 eV  566.27 nm  f=0.1152  <S**2>=0.000
     309 -> 313        0.65563
     311 -> 315       -0.22796

 The electronic state is 1-A.
 Alpha  occ. eigenvalues --  -46.92792 -46.91359 -19.24343 -19.22892 -19.19802
 Alpha  occ. eigenvalues --  -19.19738 -19.19512 -19.18960 -19.18885 -19.18447
 Alpha  occ. eigenvalues --  -14.42043 -14.42017 -14.41558 -14.41160 -14.39872
 Alpha  occ. eigenvalues --  -14.39246 -14.38970 -14.38367 -10.35594 -10.35155
 Alpha  occ. eigenvalues --  -10.33512 -10.32229 -10.31551 -10.31534 -10.29427
 Alpha  occ. eigenvalues --  -10.29416 -10.29113 -10.28838 -10.28635 -10.28544
 Alpha  occ. eigenvalues --  -10.28461 -10.28457 -10.28357 -10.28175 -10.28012
 Alpha  occ. eigenvalues --  -10.27890 -10.27836 -10.27735 -10.27622 -10.27511
 Alpha  occ. eigenvalues --  -10.27334 -10.27098 -10.27054 -10.26526 -10.26402
 Alpha  occ. eigenvalues --  -10.26341 -10.26160 -10.26150 -10.26138 -10.26106
 Alpha  occ. eigenvalues --  -10.26064 -10.26058 -10.26015 -10.25848 -10.25693
 Alpha  occ. eigenvalues --  -10.25693 -10.25556 -10.25538 -10.25372 -10.25361
 Alpha  occ. eigenvalues --  -10.25130 -10.25100 -10.25092 -10.25078 -10.24917
 Alpha  occ. eigenvalues --  -10.24903 -10.24860 -10.24407 -10.24196 -10.24026
 Alpha  occ. eigenvalues --  -10.23988 -10.23940 -10.23876 -10.23777 -10.23714
 Alpha  occ. eigenvalues --  -10.23603 -10.23587 -10.23579 -10.23572 -10.23554
 Alpha  occ. eigenvalues --  -10.23352 -10.23318 -10.22812 -10.22793 -10.22523
 Alpha  occ. eigenvalues --  -10.22389  -3.14784  -3.13693  -1.87645  -1.87140
 Alpha  occ. eigenvalues --   -1.87018  -1.86504  -1.86078  -1.85934  -1.11590
 Alpha  occ. eigenvalues --   -1.10332  -1.04337  -1.04077  -1.03064  -1.02979
 Alpha  occ. eigenvalues --   -1.02639  -1.02004  -1.00213  -0.99497  -0.99117
 Alpha  occ. eigenvalues --   -0.98311  -0.98077  -0.97297  -0.96615  -0.95097
 Alpha  occ. eigenvalues --   -0.87828  -0.87086  -0.83462  -0.82965  -0.82910
 Alpha  occ. eigenvalues --   -0.82750  -0.82522  -0.81856  -0.81765  -0.81567
 Alpha  occ. eigenvalues --   -0.81351  -0.81204  -0.80791  -0.80541  -0.78664
 Alpha  occ. eigenvalues --   -0.78465  -0.77824  -0.77755  -0.76662  -0.76640
 Alpha  occ. eigenvalues --   -0.75944  -0.75834  -0.75465  -0.75241  -0.74683
 Alpha  occ. eigenvalues --   -0.74604  -0.72951  -0.72770  -0.71820  -0.71745
 Alpha  occ. eigenvalues --   -0.71397  -0.71010  -0.70492  -0.69620  -0.69580
 Alpha  occ. eigenvalues --   -0.69569  -0.67568  -0.67042  -0.66462  -0.66112
 Alpha  occ. eigenvalues --   -0.63735  -0.63617  -0.63123  -0.63020  -0.62633
 Alpha  occ. eigenvalues --   -0.62423  -0.61940  -0.60452  -0.60121  -0.59800
 Alpha  occ. eigenvalues --   -0.59729  -0.59679  -0.59450  -0.59085  -0.58821
 Alpha  occ. eigenvalues --   -0.58510  -0.56339  -0.55482  -0.55086  -0.54625
 Alpha  occ. eigenvalues --   -0.54471  -0.53995  -0.53810  -0.53612  -0.53395
 Alpha  occ. eigenvalues --   -0.53152  -0.52903  -0.52880  -0.52327  -0.52224
 Alpha  occ. eigenvalues --   -0.51048  -0.50676  -0.50165  -0.50098  -0.49815
 Alpha  occ. eigenvalues --   -0.49784  -0.48670  -0.48519  -0.48347  -0.48311
 Alpha  occ. eigenvalues --   -0.47766  -0.47706  -0.47574  -0.47513  -0.47358
 Alpha  occ. eigenvalues --   -0.47315  -0.46801  -0.46734  -0.46645  -0.46411
 Alpha  occ. eigenvalues --   -0.46250  -0.46208  -0.46165  -0.45999  -0.45979
 Alpha  occ. eigenvalues --   -0.45827  -0.45393  -0.45391  -0.45154  -0.45134
 Alpha  occ. eigenvalues --   -0.44780  -0.44478  -0.44474  -0.44402  -0.44212
 Alpha  occ. eigenvalues --   -0.44130  -0.44065  -0.43732  -0.43557  -0.43477
 Alpha  occ. eigenvalues --   -0.43270  -0.43251  -0.42954  -0.42803  -0.42768
 Alpha  occ. eigenvalues --   -0.42674  -0.42616  -0.42321  -0.41964  -0.41929
 Alpha  occ. eigenvalues --   -0.41652  -0.41631  -0.41546  -0.41303  -0.41181
 Alpha  occ. eigenvalues --   -0.41169  -0.40965  -0.40962  -0.40883  -0.40803
 Alpha  occ. eigenvalues --   -0.40370  -0.40152  -0.40062  -0.39905  -0.39801
 Alpha  occ. eigenvalues --   -0.39452  -0.39449  -0.39165  -0.39054  -0.39042
 Alpha  occ. eigenvalues --   -0.38792  -0.38763  -0.38549  -0.38433  -0.38348
 Alpha  occ. eigenvalues --   -0.38152  -0.38088  -0.37801  -0.37766  -0.37529
 Alpha  occ. eigenvalues --   -0.37243  -0.37153  -0.36812  -0.36663  -0.36572
 Alpha  occ. eigenvalues --   -0.36487  -0.36288  -0.36172  -0.36051  -0.35997
 Alpha  occ. eigenvalues --   -0.35919  -0.35916  -0.35684  -0.35525  -0.35101
 Alpha  occ. eigenvalues --   -0.35093  -0.34840  -0.34699  -0.34354  -0.34008
 Alpha  occ. eigenvalues --   -0.33704  -0.33419  -0.32814  -0.32798  -0.32707
 Alpha  occ. eigenvalues --   -0.32573  -0.32154  -0.31849  -0.31606  -0.31172
 Alpha  occ. eigenvalues --   -0.31049  -0.29839  -0.29671  -0.29436  -0.29354
 Alpha  occ. eigenvalues --   -0.29183  -0.28689  -0.28614  -0.27095  -0.26824
 Alpha  occ. eigenvalues --   -0.26123  -0.26060  -0.26011  -0.25695  -0.25529
 Alpha  occ. eigenvalues --   -0.25493  -0.25253  -0.24812  -0.21291  -0.20806
 Alpha  occ. eigenvalues --   -0.19078  -0.18791
 Alpha virt. eigenvalues --   -0.11706  -0.11015  -0.05791  -0.05204  -0.04260
 Alpha virt. eigenvalues --   -0.04214  -0.02193  -0.02139  -0.00554  -0.00107
 Alpha virt. eigenvalues --    0.00760   0.00815   0.01203   0.01336   0.01592

 Mulliken charges:
               1
     1  Mg  12.002333
     2  C    5.990267
     3  C    6.010534
     4  C    6.015075
     5  C    5.993231
     6  N    6.995031
     7  C    6.024623
     8  C    5.988152
     9  C    6.008446
    10  C    5.975048
    11  C    6.001067
    12  C    5.998938
    13  C    5.996276
    14  H    1.008425
    15  N    7.000553
    16  C    5.966164
    17  C    5.971258
    18  C    5.987500
    19  C    5.972119
    20  C    6.002004
    21  C    5.988800
    22  O    7.970020
    23  C    6.006330
    24  N    7.001394
    25  C    5.967454
    26  C    6.013243
    27  C    5.987687
    28  C    6.030825
    29  C    6.002623
    30  C    5.994464
    31  C    6.000352
    32  N    7.000495
    33  C    6.035015
    34  C    6.027188
    35  C    6.004849
    36  C    6.024807
    37  C    5.999898
    38  C    6.015941
    39  O    8.032431
    40  C    5.999614
    41  C    6.000821
    42  O    8.008043
    43  O    7.999665
    44  C    5.997988
    45  H    0.991862
    46  H    0.993392
    47  H    1.009502
    48  H    1.002607
    49  H    1.000142
    50  H    1.002866
    51  H    1.000048
    52  H    0.987634
    53  H    1.009047
    54  H    0.997393
    55  H    0.997085
    56  H    0.997950
    57  H    0.980417
    58  H    0.986073
    59  H    0.980743
    60  H    0.986553
    61  H    0.990043
    62  H    0.992275
    63  H    0.997521
    64  H    1.003326
    65  H    0.989600
    66  H    1.001746
    67  H    1.001538
    68  H    1.000645
    69  H    1.011133
    70  H    0.995159
    71  H    1.004971
    72  H    1.000115
    73  H    1.017347
    74  H    1.017863
    75  H    1.012679
    76  H    1.010985
    77  H    1.002123
    78  H    1.006065
    79  H    1.004557
    80  Mg  12.000014
    81  C    6.000072
    82  C    6.000034
    83  C    5.999992
    84  C    5.999991
    85  N    7.000022
    86  C    5.999953
    87  C    6.000031
    88  C    5.999971
    89  C    6.000004
    90  C    6.000003
    91  C    6.000003
    92  C    6.000008
    93  H    0.999998
    94  N    6.999982
    95  C    6.000052
    96  C    5.999940
    97  C    6.000053
    98  C    6.000020
    99  C    6.000015
   100  C    5.999993
   101  O    8.000031
   102  C    6.000012
   103  N    6.999990
   104  C    5.999996
   105  C    5.999975
   106  C    6.000025
   107  C    5.999998
   108  C    5.999995
   109  C    6.000007
   110  C    5.999995
   111  N    7.000008
   112  C    5.999951
   113  C    6.000001
   114  C    6.000005
   115  C    5.999932
   116  C    5.999988
   117  C    5.999981
   118  O    7.999958
   119  C    5.999994
   120  C    5.999989
   121  O    8.000013
   122  O    7.999997
   123  C    5.999992
   124  H    1.000011
   125  H    1.000016
   126  H    0.999994
   127  H    0.999995
   128  H    0.999995
   129  H    1.000005
   130  H    1.000019
   131  H    1.000025
   132  H    0.999982
   133  H    0.999996
   134  H    0.999983
   135  H    0.999990
   136  H    1.000013
   137  H    1.000039
   138  H    1.000010
   139  H    0.999993
   140  H    1.000020
   141  H    1.000021
   142  H    0.999997
   143  H    1.000006
   144  H    1.000027
   145  H    1.000005
   146  H    1.000017
   147  H    0.999986
   148  H    0.999980
   149  H    0.999985
   150  H    0.999991
   151  H    1.000014
   152  H    0.999981
   153  H    0.999987
   154  H    0.999957
   155  H    0.999973
   156  H    1.000020
   157  H    0.999997
   158  H    0.999983
 Sum of Mulliken charges = 624.00000

 Dipole moment (field-independent basis, Debye):
    X=              4.0055    Y=              5.2593    Z=             -8.3880  Tot=             10.6800
 Quadrupole moment (field-independent basis, Debye-Ang):
   XX=            209.4480   YY=             -5.7101   ZZ=             -5.5240
   XY=            134.1558   XZ=           -217.2111   YZ=              9.2816

 Normal termination of Gaussian 16 at Fri Oct 15 13:29:51 2021.
