 Gaussian 16, Revision A.03,
 Gaussian 16:  ES64L-G16RevA.03 25-Dec-2016

 --------------------------------------------------------
 #p PBE1PBE/Def2SVP td=(nstates=5) density=(transition=1)
 --------------------------------------------------------

 --------------------------------
 TDDFT excited states in gaussian
 --------------------------------
 Symbolic Z-matrix:
 Charge =  0 Multiplicity = 1

                         Standard orientation:
 ---------------------------------------------------------------------
 Center     Atomic      Atomic             Coordinates (Angstroms)
 Number     Number       Type             X           Y           Z
 ---------------------------------------------------------------------
      1         12           0       18.826559   -0.197280    0.047346
      2          6           0       15.419091   -0.781380   -0.039505
      3          6           0       18.532635    1.496870   -3.056891
      4          6           0       22.053648    0.920830    0.326431
      5          6           0       19.014739   -1.419571    3.272188
      6          7           0       17.167277    0.160378   -1.407024
      7          6           0       15.833348   -0.090013   -1.162683
      8          6           0       14.859173    0.548848   -2.222155
      9          6           0       15.892207    0.926066   -3.386076
     10          6           0       17.335064    0.834215   -2.636136
     11          6           0       15.875395    0.101168   -4.729080
     12          6           0       14.087733    1.729010   -1.745703
     13          6           0       12.571780    1.702161   -1.708946
     14          1           0       11.868894    3.058807   -1.876933
     15          7           0       20.152443    0.970619   -1.252322
     16          6           0       19.796892    1.506225   -2.504556
     17          6           0       20.940461    2.112616   -3.108527
     18          6           0       21.975475    2.093912   -2.041701
     19          6           0       21.427457    1.314229   -0.888902
     20          6           0       20.912175    2.858076   -4.446890
     21          6           0       23.341439    2.773533   -2.241041
     22          8           0       23.722595    3.402365   -3.224106
     23          6           0       24.179069    2.973488   -1.027905
     24          7           0       20.342698   -0.080739    1.713950
     25          6           0       21.614406    0.261426    1.466314
     26          6           0       22.313521    0.344122    2.822465
     27          6           0       21.397125   -0.496709    3.828762
     28          6           0       20.137459   -0.729546    2.880644
     29          6           0       23.721219   -0.344854    2.732633
     30          6           0       20.982699    0.126187    5.224753
     31          6           0       21.480503   -0.488612    6.524302
     32          7           0       17.492202   -1.044001    1.374095
     33          6           0       17.710758   -1.540030    2.663151
     34          6           0       16.474979   -1.986967    3.229560
     35          6           0       15.505990   -1.714916    2.214860
     36          6           0       16.238688   -1.176900    1.085989
     37          6           0       16.228422   -2.577623    4.581989
     38          6           0       14.160186   -1.818975    1.826032
     39          8           0       13.229861   -2.268805    2.464584
     40          6           0       14.022950   -1.154371    0.401611
     41          6           0       13.198852   -2.029610   -0.446611
     42          8           0       12.031188   -1.786844   -0.729900
     43          8           0       13.927541   -3.144438   -0.833482
     44          6           0       13.142310   -4.092665   -1.655245
     45          1           0       18.574573    2.002629   -4.023347
     46          1           0       23.098090    1.239257    0.294733
     47          1           0       19.086320   -1.762162    4.306457
     48          1           0       14.168153   -0.212302   -2.582760
     49          1           0       15.752213    1.988494   -3.588657
     50          1           0       14.956927   -0.485701   -4.731219
     51          1           0       16.737552   -0.550141   -4.873160
     52          1           0       15.909328    0.823519   -5.543798
     53          1           0       14.315745    2.542242   -2.436382
     54          1           0       14.373406    1.971007   -0.722582
     55          1           0       12.271812    1.367296   -0.716406
     56          1           0       12.131645    1.083960   -2.491053
     57          1           0       19.981258    3.008977   -4.992989
     58          1           0       21.660548    2.313633   -5.022226
     59          1           0       21.456749    3.776088   -4.228316
     60          1           0       24.890743    2.204318   -0.730989
     61          1           0       23.588815    3.285318   -0.166109
     62          1           0       24.838230    3.811680   -1.256872
     63          1           0       22.433774    1.368618    3.175404
     64          1           0       21.809711   -1.495596    3.966145
     65          1           0       24.440873    0.357738    3.152803
     66          1           0       24.034725   -0.645263    1.732052
     67          1           0       23.779411   -1.278541    3.292519
     68          1           0       19.893286    0.106894    5.204261
     69          1           0       21.398814    1.134561    5.217135
     70          1           0       20.750828   -0.186713    7.276079
     71          1           0       22.434127   -0.030805    6.788115
     72          1           0       21.570112   -1.570427    6.617214
     73          1           0       15.159472   -2.788224    4.624175
     74          1           0       16.572954   -1.851795    5.317960
     75          1           0       16.738880   -3.520841    4.777432
     76          1           0       13.442532   -0.252119    0.597306
     77          1           0       12.645877   -4.821366   -1.014513
     78          1           0       13.840833   -4.501999   -2.385015
     79          1           0       12.393237   -3.581639   -2.259428
     80         12           0      -18.601659    0.623297    0.448080
     81          6           0      -16.062652   -1.552139   -1.175015
     82          6           0      -20.406947   -2.223991    0.688492
     83          6           0      -20.804411    2.617744    1.551569
     84          6           0      -16.689914    3.363040   -0.781944
     85          7           0      -18.263644   -1.585086   -0.225176
     86          6           0      -17.119384   -2.223448   -0.672764
     87          6           0      -17.185213   -3.754483   -0.632475
     88          6           0      -18.728134   -3.918907   -0.472138
     89          6           0      -19.206866   -2.500384    0.025476
     90          6           0      -19.456099   -4.343468   -1.708553
     91          6           0      -16.305162   -4.480804    0.439380
     92          6           0      -15.791076   -5.844583    0.119157
     93          1           0      -15.745830   -6.816988    1.293548
     94          7           0      -20.405209    0.252593    1.106464
     95          6           0      -20.999782   -1.023337    1.197594
     96          6           0      -22.228524   -0.880050    1.923906
     97          6           0      -22.245869    0.531473    2.305964
     98          6           0      -21.143838    1.149658    1.661600
     99          6           0      -23.177049   -2.064528    2.340027
    100          6           0      -23.260834    1.171398    3.202992
    101          8           0      -23.255836    2.403524    3.442251
    102          6           0      -24.313827    0.405329    3.917094
    103          7           0      -18.857740    2.671883    0.281516
    104          6           0      -19.879616    3.305640    0.860369
    105          6           0      -19.817798    4.861158    0.727671
    106          6           0      -18.287769    5.010032    0.388835
    107          6           0      -17.906952    3.592691   -0.119743
    108          6           0      -20.719939    5.391995   -0.432568
    109          6           0      -17.421049    5.381088    1.664697
    110          6           0      -17.811991    6.607053    2.516500
    111          7           0      -16.741833    0.891579   -0.691874
    112          6           0      -16.095640    2.074086   -1.033698
    113          6           0      -14.900033    1.773317   -1.785882
    114          6           0      -14.830653    0.375013   -1.829889
    115          6           0      -16.013810   -0.135437   -1.228593
    116          6           0      -13.876787    2.745966   -2.267808
    117          6           0      -14.021135   -0.741833   -2.299184
    118          8           0      -12.935876   -0.828948   -2.858273
    119          6           0      -14.821152   -2.040554   -1.765617
    120          6           0      -14.963720   -2.912268   -2.919091
    121          8           0      -15.586050   -2.668729   -3.964880
    122          8           0      -13.963232   -3.839903   -2.863996
    123          6           0      -13.830478   -4.790370   -3.921092
    124          1           0      -20.868626   -3.197747    0.865870
    125          1           0      -21.534553    3.340123    1.921897
    126          1           0      -16.138559    4.243705   -1.119079
    127          1           0      -16.893404   -4.112759   -1.619915
    128          1           0      -18.957689   -4.570164    0.370710
    129          1           0      -19.993387   -3.469195   -2.076126
    130          1           0      -20.210139   -5.087801   -1.453044
    131          1           0      -18.858081   -4.732133   -2.532585
    132          1           0      -16.929758   -4.609742    1.322865
    133          1           0      -15.499857   -3.799108    0.711695
    134          1           0      -14.774705   -5.657063   -0.226562
    135          1           0      -16.227671   -6.254018   -0.791908
    136          1           0      -23.150535   -2.339939    3.393911
    137          1           0      -23.017536   -2.940624    1.712017
    138          1           0      -24.152561   -1.657142    2.071591
    139          1           0      -25.084770    0.131922    3.196225
    140          1           0      -24.715127    1.088278    4.666349
    141          1           0      -23.810436   -0.426755    4.408247
    142          1           0      -20.136641    5.253766    1.693816
    143          1           0      -18.046133    5.718213   -0.403172
    144          1           0      -21.524924    5.956546    0.038606
    145          1           0      -21.101266    4.639532   -1.122088
    146          1           0      -20.038637    6.076778   -0.939537
    147          1           0      -16.407505    5.610192    1.336406
    148          1           0      -17.346148    4.466480    2.252633
    149          1           0      -17.984509    6.204040    3.514344
    150          1           0      -18.758104    6.936831    2.086337
    151          1           0      -17.026389    7.361698    2.551361
    152          1           0      -14.116265    3.669952   -1.740997
    153          1           0      -14.046835    2.853902   -3.339001
    154          1           0      -12.847657    2.412703   -2.134027
    155          1           0      -14.243246   -2.526693   -0.979829
    156          1           0      -14.611393   -4.671624   -4.672528
    157          1           0      -13.970657   -5.761249   -3.445697
    158          1           0      -12.817080   -4.799895   -4.319851
 ---------------------------------------------------------------------

 SCF Done:  E(RPBE1PBE) =  -4067.35987588     A.U. after   16 cycles

 Excitation energies and oscillator strengths:

 Excited State   1:      Singlet-A      1.8204 eV  681.08 nm  f=0.3699  <S**2>=0.000
     310 -> 316       -0.15129
     312 -> 314        0.70059
     312 <- 314       -0.12603
 This state for optimization and/or second-order correction.
 Total Energy, E(TD-HF/TD-DFT) =  -4067.29297750
 Copying the excited state density for this state as the 1-particle RhoCI density.

 Excited State   2:      Singlet-A      1.8412 eV  673.38 nm  f=0.0000  <S**2>=0.000
     312 -> 313        0.70710

 Excited State   3:      Singlet-A      2.0259 eV  611.98 nm  f=0.0000  <S**2>=0.000
     311 -> 314        0.70710

 Excited State   4:      Singlet-A      2.3677 eV  523.64 nm  f=0.0000  <S**2>=0.000
     310 -> 313        0.70710

 Excited State   5:      Singlet-A      2.5196 eV  492.09 nm  f=0.0000  <S**2>=0.000
     309 -> 314        0.70710

 The electronic state is 1-A.
 Alpha  occ. eigenvalues --  -46.93854 -46.92289 -19.25812 -19.25330 -19.20130
 Alpha  occ. eigenvalues --  -19.19990 -19.19505 -19.19154 -19.18784 -19.17758
 Alpha  occ. eigenvalues --  -14.42947 -14.41627 -14.41541 -14.41046 -14.39625
 Alpha  occ. eigenvalues --  -14.39622 -14.39368 -14.39173 -10.36189 -10.35990
 Alpha  occ. eigenvalues --  -10.33002 -10.32237 -10.31527 -10.31193 -10.30670
 Alpha  occ. eigenvalues --  -10.29537 -10.29502 -10.29238 -10.29079 -10.28762
 Alpha  occ. eigenvalues --  -10.28760 -10.28529 -10.28399 -10.28333 -10.28278
 Alpha  occ. eigenvalues --  -10.28233 -10.28200 -10.27952 -10.27802 -10.27611
 Alpha  occ. eigenvalues --  -10.27226 -10.27177 -10.27000 -10.26817 -10.26672
 Alpha  occ. eigenvalues --  -10.26500 -10.26485 -10.26346 -10.26283 -10.26272
 Alpha  occ. eigenvalues --  -10.26212 -10.26090 -10.26020 -10.25986 -10.25973
 Alpha  occ. eigenvalues --  -10.25757 -10.25728 -10.25690 -10.25668 -10.25609
 Alpha  occ. eigenvalues --  -10.25461 -10.25416 -10.25212 -10.25130 -10.25112
 Alpha  occ. eigenvalues --  -10.25083 -10.24988 -10.24738 -10.24553 -10.24527
 Alpha  occ. eigenvalues --  -10.24370 -10.24119 -10.24009 -10.23818 -10.23686
 Alpha  occ. eigenvalues --  -10.23662 -10.23535 -10.23451 -10.23428 -10.23388
 Alpha  occ. eigenvalues --  -10.23141 -10.23113 -10.23041 -10.22951 -10.22837
 Alpha  occ. eigenvalues --  -10.22625  -3.15656  -3.14526  -1.88523  -1.88004
 Alpha  occ. eigenvalues --   -1.87879  -1.87336  -1.86897  -1.86772  -1.11175
 Alpha  occ. eigenvalues --   -1.10332  -1.04843  -1.04749  -1.04626  -1.02363
 Alpha  occ. eigenvalues --   -1.02243  -1.01667  -0.99665  -0.99629  -0.98762
 Alpha  occ. eigenvalues --   -0.98561  -0.98308  -0.97125  -0.97046  -0.96252
 Alpha  occ. eigenvalues --   -0.87932  -0.87036  -0.83767  -0.83708  -0.83623
 Alpha  occ. eigenvalues --   -0.83092  -0.82485  -0.82338  -0.82011  -0.81764
 Alpha  occ. eigenvalues --   -0.81706  -0.81121  -0.80502  -0.79942  -0.78947
 Alpha  occ. eigenvalues --   -0.78713  -0.78266  -0.78210  -0.77380  -0.77143
 Alpha  occ. eigenvalues --   -0.76366  -0.76329  -0.75432  -0.75256  -0.75109
 Alpha  occ. eigenvalues --   -0.75069  -0.72860  -0.72250  -0.71704  -0.71566
 Alpha  occ. eigenvalues --   -0.71471  -0.71177  -0.70510  -0.70508  -0.69857
 Alpha  occ. eigenvalues --   -0.69790  -0.68017  -0.67727  -0.66727  -0.65327
 Alpha  occ. eigenvalues --   -0.63772  -0.63611  -0.63548  -0.62999  -0.62517
 Alpha  occ. eigenvalues --   -0.62409  -0.61524  -0.61373  -0.60068  -0.60050
 Alpha  occ. eigenvalues --   -0.59888  -0.59759  -0.59552  -0.59462  -0.59310
 Alpha  occ. eigenvalues --   -0.58937  -0.57591  -0.56536  -0.55371  -0.54809
 Alpha  occ. eigenvalues --   -0.54381  -0.54310  -0.54014  -0.53931  -0.53677
 Alpha  occ. eigenvalues --   -0.53276  -0.52856  -0.52446  -0.52321  -0.51493
 Alpha  occ. eigenvalues --   -0.51139  -0.50502  -0.50360  -0.50102  -0.50010
 Alpha  occ. eigenvalues --   -0.49383  -0.49341  -0.49167  -0.48698  -0.48502
 Alpha  occ. eigenvalues --   -0.48284  -0.48199  -0.47814  -0.47803  -0.47390
 Alpha  occ. eigenvalues --   -0.47326  -0.47271  -0.47019  -0.47006  -0.46973
 Alpha  occ. eigenvalues --   -0.46695  -0.46414  -0.46132  -0.45978  -0.45948
 Alpha  occ. eigenvalues --   -0.45731  -0.45679  -0.45489  -0.44968  -0.44856
 Alpha  occ. eigenvalues --   -0.44801  -0.44509  -0.44360  -0.44316  -0.44306
 Alpha  occ. eigenvalues --   -0.44173  -0.43993  -0.43822  -0.43638  -0.43535
 Alpha  occ. eigenvalues --   -0.43404  -0.43348  -0.42958  -0.42949  -0.42765
 Alpha  occ. eigenvalues --   -0.42665  -0.42477  -0.42339  -0.42250  -0.41925
 Alpha  occ. eigenvalues --   -0.41913  -0.41761  -0.41448  -0.41332  -0.41217
 Alpha  occ. eigenvalues --   -0.41009  -0.40846  -0.40800  -0.40753  -0.40685
 Alpha  occ. eigenvalues --   -0.40507  -0.40357  -0.40160  -0.40049  -0.39965
 Alpha  occ. eigenvalues --   -0.39882  -0.39592  -0.39485  -0.39441  -0.39310
 Alpha  occ. eigenvalues --   -0.39221  -0.39023  -0.38749  -0.38673  -0.38487
 Alpha  occ. eigenvalues --   -0.38452  -0.38103  -0.37838  -0.37774  -0.37601
 Alpha  occ. eigenvalues --   -0.37536  -0.37476  -0.37283  -0.37028  -0.36998
 Alpha  occ. eigenvalues --   -0.36811  -0.36423  -0.36387  -0.36337  -0.36092
 Alpha  occ. eigenvalues --   -0.36033  -0.35665  -0.35485  -0.35305  -0.34952
 Alpha  occ. eigenvalues --   -0.34660  -0.34656  -0.34399  -0.34325  -0.34176
 Alpha  occ. eigenvalues --   -0.33516  -0.33372  -0.33067  -0.32869  -0.32726
 Alpha  occ. eigenvalues --   -0.32450  -0.32203  -0.32201  -0.31773  -0.31455
 Alpha  occ. eigenvalues --   -0.30926  -0.30633  -0.29793  -0.29776  -0.29351
 Alpha  occ. eigenvalues --   -0.29044  -0.28762  -0.28622  -0.27432  -0.27173
 Alpha  occ. eigenvalues --   -0.26225  -0.26102  -0.25813  -0.25707  -0.25554
 Alpha  occ. eigenvalues --   -0.25454  -0.25024  -0.24680  -0.21574  -0.21198
 Alpha  occ. eigenvalues --   -0.19761  -0.19264
 Alpha virt. eigenvalues --   -0.12141  -0.11956  -0.05860  -0.04383  -0.04137
 Alpha virt. eigenvalues --   -0.03886  -0.02227  -0.02195  -0.00977  -0.00422
 Alpha virt. eigenvalues --   -0.00397   0.00375   0.00626   0.00980   0.01566

 Mulliken charges:
               1
     1  Mg  12.000043
     2  C    5.999971
     3  C    5.999807
     4  C    6.000015
     5  C    6.000163
     6  N    6.999968
     7  C    5.999876
     8  C    5.999992
     9  C    5.999944
    10  C    6.000272
    11  C    5.999986
    12  C    6.000066
    13  C    6.000142
    14  H    0.999698
    15  N    6.999951
    16  C    6.000324
    17  C    6.000102
    18  C    6.000179
    19  C    6.000185
    20  C    5.999961
    21  C    6.000104
    22  O    8.000209
    23  C    5.999896
    24  N    7.000071
    25  C    6.000145
    26  C    5.999920
    27  C    6.000059
    28  C    5.999756
    29  C    5.999944
    30  C    5.999986
    31  C    5.999994
    32  N    6.999991
    33  C    5.999707
    34  C    5.999922
    35  C    5.999875
    36  C    5.999877
    37  C    6.000024
    38  C    5.999821
    39  O    7.999679
    40  C    6.000053
    41  C    5.999961
    42  O    7.999757
    43  O    8.000098
    44  C    6.000046
    45  H    1.000035
    46  H    1.000100
    47  H    1.000013
    48  H    0.999948
    49  H    0.999963
    50  H    0.999996
    51  H    1.000068
    52  H    0.999975
    53  H    0.999905
    54  H    1.000057
    55  H    1.000011
    56  H    0.999896
    57  H    1.000074
    58  H    1.000155
    59  H    1.000108
    60  H    1.000163
    61  H    1.000060
    62  H    1.000149
    63  H    1.000049
    64  H    1.000058
    65  H    1.000078
    66  H    0.999996
    67  H    1.000123
    68  H    1.000008
    69  H    0.999966
    70  H    1.000016
    71  H    1.000025
    72  H    1.000045
    73  H    0.999897
    74  H    0.999914
    75  H    0.999948
    76  H    0.999837
    77  H    0.999980
    78  H    1.000012
    79  H    0.999832
    80  Mg  11.998055
    81  C    5.969042
    82  C    5.978620
    83  C    6.033387
    84  C    6.012442
    85  N    6.972154
    86  C    6.030680
    87  C    5.987419
    88  C    6.001476
    89  C    5.987400
    90  C    6.003485
    91  C    5.998092
    92  C    6.001306
    93  H    1.003388
    94  N    7.003514
    95  C    5.970748
    96  C    5.980659
    97  C    5.986790
    98  C    5.972115
    99  C    5.999508
   100  C    5.989145
   101  O    7.965037
   102  C    6.004464
   103  N    7.024719
   104  C    5.966388
   105  C    6.004791
   106  C    5.995465
   107  C    6.017442
   108  C    5.999937
   109  C    5.995593
   110  C    6.000933
   111  N    6.998699
   112  C    6.026241
   113  C    6.032855
   114  C    5.996385
   115  C    6.037849
   116  C    5.998200
   117  C    6.014014
   118  O    8.023833
   119  C    6.006603
   120  C    6.006233
   121  O    8.003216
   122  O    8.000421
   123  C    5.997127
   124  H    0.979750
   125  H    1.001971
   126  H    1.016425
   127  H    0.998537
   128  H    0.999461
   129  H    1.000012
   130  H    0.998385
   131  H    0.984931
   132  H    1.010174
   133  H    0.993674
   134  H    0.994700
   135  H    1.001675
   136  H    0.982487
   137  H    0.987916
   138  H    0.985814
   139  H    0.992125
   140  H    0.986092
   141  H    0.995513
   142  H    1.005647
   143  H    1.001953
   144  H    1.004759
   145  H    1.003300
   146  H    0.993304
   147  H    0.998359
   148  H    1.006296
   149  H    1.007386
   150  H    1.005300
   151  H    1.002472
   152  H    1.012427
   153  H    1.020106
   154  H    1.018081
   155  H    1.005142
   156  H    1.003428
   157  H    1.005655
   158  H    1.000870
 Sum of Mulliken charges = 624.00000

 Dipole moment (field-independent basis, Debye):
    X=              8.6569    Y=              3.8537    Z=             -4.1687  Tot=             10.3524
 Quadrupole moment (field-independent basis, Debye-Ang):
   XX=           -316.4523   YY=              7.2107   ZZ=             -1.5037
   XY=            -67.4794   XZ=             78.2925   YZ=             -1.1691

 Normal termination of Gaussian 16 at Fri Oct 15 06:47:30 2021.
