 Gaussian 16, Revision A.03,
 Gaussian 16:  ES64L-G16RevA.03 25-Dec-2016

 --------------------------------------------------------
 #p PBE1PBE/Def2SVP td=(nstates=5) density=(transition=1)
 --------------------------------------------------------

 --------------------------------
 TDDFT excited states in gaussian
 --------------------------------
 Symbolic Z-matrix:
 Charge =  0 Multiplicity = 1

                         Standard orientation:
 ---------------------------------------------------------------------
 Center     Atomic      Atomic             Coordinates (Angstroms)
 Number     Number       Type             X           Y           Z
 ---------------------------------------------------------------------
      1         12           0       -5.060647   -0.266224    0.983522
      2          6           0       -4.571141    3.008051   -0.209157
      3          6           0       -2.492771    0.321336    3.253187
      4          6           0       -5.338769   -3.459782    1.850355
      5          6           0       -7.033078   -0.971918   -1.932297
      6          7           0       -3.692729    1.432726    1.443102
      7          6           0       -3.783522    2.716781    0.887734
      8          6           0       -3.073682    3.703021    1.796709
      9          6           0       -2.189219    2.826900    2.728828
     10          6           0       -2.834855    1.433274    2.464626
     11          6           0       -0.645902    2.927429    2.517156
     12          6           0       -4.022816    4.695156    2.554076
     13          6           0       -3.377612    6.121589    2.843427
     14          1           0       -1.925410    6.349436    2.415401
     15          7           0       -4.170202   -1.331461    2.401330
     16          6           0       -3.195964   -0.902457    3.286184
     17          6           0       -2.897308   -1.924238    4.247689
     18          6           0       -3.610264   -3.080399    3.795391
     19          6           0       -4.427882   -2.635377    2.681001
     20          6           0       -1.850870   -1.755957    5.391302
     21          6           0       -3.564336   -4.475535    4.327216
     22          8           0       -4.127098   -5.423715    3.729529
     23          6           0       -2.807138   -5.029137    5.570081
     24          7           0       -5.811805   -2.048659   -0.036625
     25          6           0       -5.897850   -3.232690    0.598634
     26          6           0       -6.864700   -4.182140   -0.152639
     27          6           0       -7.390197   -3.409634   -1.367897
     28          6           0       -6.720931   -1.997879   -1.061094
     29          6           0       -6.253595   -5.529754   -0.388112
     30          6           0       -8.921604   -3.341722   -1.550979
     31          6           0       -9.701099   -2.700584   -0.376454
     32          7           0       -5.666512    0.745296   -0.800095
     33          6           0       -6.559151    0.377305   -1.748547
     34          6           0       -6.872306    1.580242   -2.518337
     35          6           0       -6.155552    2.680671   -1.970370
     36          6           0       -5.377296    2.111273   -0.933301
     37          6           0       -7.909676    1.678610   -3.633723
     38          6           0       -5.895407    4.080959   -2.075034
     39          8           0       -6.377301    4.989837   -2.745918
     40          6           0       -4.740919    4.360459   -0.908644
     41          6           0       -3.540632    5.033817   -1.547033
     42          8           0       -2.684142    4.434395   -2.166974
     43          8           0       -3.510296    6.375167   -1.239904
     44          6           0       -2.681060    7.265444   -2.045712
     45          1           0       -1.769916    0.655772    3.999991
     46          1           0       -5.462243   -4.471717    2.241034
     47          1           0       -7.747314   -1.229442   -2.716777
     48          1           0       -2.421678    4.338914    1.198028
     49          1           0       -2.417804    3.123709    3.752020
     50          1           0       -0.368421    1.889173    2.338262
     51          1           0       -0.148712    3.218562    3.443219
     52          1           0       -0.249963    3.528385    1.698541
     53          1           0       -4.267389    4.329413    3.550849
     54          1           0       -4.954655    4.777275    1.996057
     55          1           0       -3.315090    6.234254    3.925896
     56          1           0       -4.025773    6.867446    2.383979
     57          1           0       -1.321692   -2.704220    5.493093
     58          1           0       -2.313579   -1.547215    6.355299
     59          1           0       -1.089290   -0.977232    5.353119
     60          1           0       -3.089791   -4.479693    6.468480
     61          1           0       -1.725953   -5.034546    5.432097
     62          1           0       -3.181039   -5.985513    5.933733
     63          1           0       -7.631346   -4.446847    0.574435
     64          1           0       -6.806584   -3.788129   -2.207828
     65          1           0       -6.615555   -6.286217    0.308449
     66          1           0       -5.166438   -5.454168   -0.360950
     67          1           0       -6.430138   -5.932335   -1.386161
     68          1           0       -9.208986   -4.391513   -1.613179
     69          1           0       -9.166414   -2.837044   -2.486046
     70          1           0      -10.215654   -1.843647   -0.810717
     71          1           0       -8.960383   -2.400628    0.364859
     72          1           0      -10.357619   -3.388723    0.156265
     73          1           0       -8.519670    2.578535   -3.560683
     74          1           0       -8.655115    0.887673   -3.556153
     75          1           0       -7.393833    1.554146   -4.586230
     76          1           0       -5.206552    5.088680   -0.244089
     77          1           0       -1.755599    6.725921   -2.248763
     78          1           0       -2.412775    8.204480   -1.561506
     79          1           0       -3.284521    7.511602   -2.919442
     80         12           0        4.261715   -0.682284   -1.117648
     81          6           0        7.168198    0.782381   -0.048686
     82          6           0        2.663195    2.243347   -0.826470
     83          6           0        1.434010   -2.319417   -1.946521
     84          6           0        5.923880   -3.909173   -0.908665
     85          7           0        4.834423    1.264469   -0.226558
     86          6           0        6.080424    1.677904    0.034429
     87          6           0        6.094924    3.251170    0.395424
     88          6           0        4.590878    3.609789    0.098405
     89          6           0        3.930576    2.279724   -0.317193
     90          6           0        3.896504    4.368303    1.246207
     91          6           0        7.110112    4.078391   -0.443272
     92          6           0        6.970762    5.635773   -0.450841
     93          1           0        7.983816    6.465584    0.425759
     94          7           0        2.287542   -0.115505   -1.308339
     95          6           0        1.843938    1.123117   -1.253545
     96          6           0        0.422204    1.121326   -1.563148
     97          6           0       -0.023335   -0.214794   -1.794558
     98          6           0        1.254867   -0.952895   -1.693712
     99          6           0       -0.500266    2.326290   -1.480931
    100          6           0       -1.423460   -0.770937   -2.032111
    101          8           0       -1.655223   -1.971356   -1.921162
    102          6           0       -2.515226    0.172199   -2.399093
    103          7           0        3.749148   -2.829521   -1.343471
    104          6           0        2.539217   -3.213791   -1.732342
    105          6           0        2.487428   -4.715066   -2.060967
    106          6           0        3.960152   -5.089902   -1.917131
    107          6           0        4.564397   -3.873152   -1.322033
    108          6           0        1.521938   -5.597060   -1.255378
    109          6           0        4.565233   -5.698443   -3.156851
    110          6           0        5.063145   -7.182291   -3.029153
    111          7           0        6.110719   -1.423375   -0.657741
    112          6           0        6.689321   -2.736463   -0.689463
    113          6           0        8.110204   -2.687892   -0.423402
    114          6           0        8.291034   -1.296274   -0.189524
    115          6           0        7.078554   -0.609733   -0.331408
    116          6           0        9.170910   -3.726609   -0.524764
    117          6           0        9.373323   -0.357200   -0.035547
    118          8           0       10.608335   -0.440414   -0.110871
    119          6           0        8.755260    0.999304    0.194134
    120          6           0        8.950774    1.378659    1.678637
    121          8           0        8.813301    0.647614    2.671462
    122          8           0        9.302897    2.694937    1.722994
    123          6           0        9.586336    3.295219    3.065108
    124          1           0        2.060123    3.151321   -0.892521
    125          1           0        0.545471   -2.950222   -2.017548
    126          1           0        6.386591   -4.893401   -1.000982
    127          1           0        6.305780    3.268132    1.464086
    128          1           0        4.574650    4.232807   -0.795819
    129          1           0        3.313096    5.166726    0.788962
    130          1           0        4.614585    4.848278    1.911191
    131          1           0        3.252989    3.701544    1.820289
    132          1           0        6.884415    3.832375   -1.480871
    133          1           0        8.127138    3.859875   -0.117879
    134          1           0        6.014239    5.867593    0.018714
    135          1           0        7.083354    5.990407   -1.474790
    136          1           0        0.044010    3.224717   -1.189997
    137          1           0       -1.279156    2.139971   -0.741928
    138          1           0       -0.997230    2.522609   -2.430129
    139          1           0       -2.108201    0.774839   -3.211523
    140          1           0       -2.950859    0.879936   -1.694458
    141          1           0       -3.413802   -0.336698   -2.746257
    142          1           0        2.190809   -4.812201   -3.104767
    143          1           0        4.019096   -5.874387   -1.162880
    144          1           0        1.121055   -6.289943   -1.994767
    145          1           0        0.780425   -4.985331   -0.741728
    146          1           0        1.979188   -6.106453   -0.407178
    147          1           0        5.470974   -5.113129   -3.312195
    148          1           0        3.903004   -5.678110   -4.021900
    149          1           0        4.906646   -7.541391   -2.011624
    150          1           0        6.135721   -7.179704   -3.225669
    151          1           0        4.661342   -7.876270   -3.767565
    152          1           0        8.771947   -4.625588   -0.993881
    153          1           0        9.381521   -4.018254    0.503515
    154          1           0        9.963270   -3.257432   -1.109767
    155          1           0        9.310294    1.660148   -0.471959
    156          1           0        8.853578    3.067063    3.839517
    157          1           0        9.750267    4.372221    3.050808
    158          1           0       10.500199    2.810920    3.408795
 ---------------------------------------------------------------------

 SCF Done:  E(RPBE1PBE) =  -4067.39174167     A.U. after   16 cycles

 Excitation energies and oscillator strengths:

 Excited State   1:      Singlet-A      1.3228 eV  937.29 nm  f=0.0004  <S**2>=0.000
     312 -> 313        0.70687
 This state for optimization and/or second-order correction.
 Total Energy, E(TD-HF/TD-DFT) =  -4067.34313009
 Copying the excited state density for this state as the 1-particle RhoCI density.

 Excited State   2:      Singlet-A      1.8130 eV  683.87 nm  f=0.2734  <S**2>=0.000
     309 -> 315       -0.15564
     311 -> 313        0.68646
     312 -> 314       -0.11445
     311 <- 313       -0.11359

 Excited State   3:      Singlet-A      1.8797 eV  659.60 nm  f=0.5007  <S**2>=0.000
     310 -> 316       -0.16539
     311 -> 313        0.11577
     312 -> 314        0.68040
     312 <- 314       -0.10192

 Excited State   4:      Singlet-A      1.9305 eV  642.23 nm  f=0.0001  <S**2>=0.000
     310 -> 313        0.70660

 Excited State   5:      Singlet-A      2.0319 eV  610.18 nm  f=0.0003  <S**2>=0.000
     311 -> 314        0.70555

 The electronic state is 1-A.
 Alpha  occ. eigenvalues --  -46.92624 -46.92078 -19.26067 -19.25818 -19.20614
 Alpha  occ. eigenvalues --  -19.20180 -19.19467 -19.18705 -19.18640 -19.17560
 Alpha  occ. eigenvalues --  -14.42347 -14.41309 -14.40988 -14.40885 -14.40114
 Alpha  occ. eigenvalues --  -14.39581 -14.39038 -14.38487 -10.37119 -10.36362
 Alpha  occ. eigenvalues --  -10.33336 -10.32717 -10.32008 -10.30108 -10.29387
 Alpha  occ. eigenvalues --  -10.29369 -10.29256 -10.29067 -10.28942 -10.28935
 Alpha  occ. eigenvalues --  -10.28628 -10.28439 -10.28331 -10.28231 -10.28067
 Alpha  occ. eigenvalues --  -10.27773 -10.27499 -10.27375 -10.27316 -10.27264
 Alpha  occ. eigenvalues --  -10.27256 -10.27253 -10.27218 -10.26685 -10.26551
 Alpha  occ. eigenvalues --  -10.26438 -10.26272 -10.26222 -10.25928 -10.25901
 Alpha  occ. eigenvalues --  -10.25821 -10.25792 -10.25681 -10.25504 -10.25454
 Alpha  occ. eigenvalues --  -10.25445 -10.25392 -10.25311 -10.25259 -10.25243
 Alpha  occ. eigenvalues --  -10.25066 -10.24798 -10.24699 -10.24531 -10.24445
 Alpha  occ. eigenvalues --  -10.24394 -10.24322 -10.24118 -10.24101 -10.24002
 Alpha  occ. eigenvalues --  -10.23972 -10.23617 -10.23604 -10.23597 -10.23561
 Alpha  occ. eigenvalues --  -10.23514 -10.23474 -10.23424 -10.23238 -10.23211
 Alpha  occ. eigenvalues --  -10.22837 -10.22725 -10.22542 -10.22361 -10.21829
 Alpha  occ. eigenvalues --  -10.21698  -3.14774  -3.14186  -1.87582  -1.87148
 Alpha  occ. eigenvalues --   -1.87019  -1.87012  -1.86555  -1.86420  -1.11184
 Alpha  occ. eigenvalues --   -1.10111  -1.04782  -1.03981  -1.03324  -1.03206
 Alpha  occ. eigenvalues --   -1.02337  -1.01117  -0.99841  -0.99213  -0.98514
 Alpha  occ. eigenvalues --   -0.98378  -0.98188  -0.98032  -0.97249  -0.97196
 Alpha  occ. eigenvalues --   -0.87098  -0.85224  -0.83797  -0.83653  -0.83196
 Alpha  occ. eigenvalues --   -0.82695  -0.82693  -0.82015  -0.81998  -0.81238
 Alpha  occ. eigenvalues --   -0.81138  -0.80848  -0.80500  -0.80100  -0.78346
 Alpha  occ. eigenvalues --   -0.78031  -0.78017  -0.77200  -0.76875  -0.76147
 Alpha  occ. eigenvalues --   -0.75688  -0.75414  -0.75111  -0.74880  -0.74300
 Alpha  occ. eigenvalues --   -0.73846  -0.73065  -0.72188  -0.71598  -0.71463
 Alpha  occ. eigenvalues --   -0.71104  -0.70592  -0.70551  -0.70083  -0.69583
 Alpha  occ. eigenvalues --   -0.69118  -0.67381  -0.66538  -0.65795  -0.65696
 Alpha  occ. eigenvalues --   -0.64421  -0.63876  -0.63364  -0.63247  -0.62934
 Alpha  occ. eigenvalues --   -0.62231  -0.61783  -0.61183  -0.60156  -0.59838
 Alpha  occ. eigenvalues --   -0.59685  -0.59126  -0.59034  -0.58781  -0.58540
 Alpha  occ. eigenvalues --   -0.58031  -0.56912  -0.56848  -0.55616  -0.54474
 Alpha  occ. eigenvalues --   -0.54287  -0.53787  -0.53764  -0.53066  -0.52961
 Alpha  occ. eigenvalues --   -0.52761  -0.52579  -0.52130  -0.51958  -0.51522
 Alpha  occ. eigenvalues --   -0.50779  -0.50687  -0.50228  -0.49872  -0.49704
 Alpha  occ. eigenvalues --   -0.49395  -0.49362  -0.49204  -0.48737  -0.48444
 Alpha  occ. eigenvalues --   -0.48347  -0.48121  -0.47960  -0.47576  -0.47481
 Alpha  occ. eigenvalues --   -0.47335  -0.46965  -0.46813  -0.46600  -0.46407
 Alpha  occ. eigenvalues --   -0.46219  -0.46094  -0.45911  -0.45829  -0.45704
 Alpha  occ. eigenvalues --   -0.45316  -0.45237  -0.44891  -0.44703  -0.44536
 Alpha  occ. eigenvalues --   -0.44476  -0.44380  -0.44085  -0.43992  -0.43958
 Alpha  occ. eigenvalues --   -0.43856  -0.43755  -0.43675  -0.43574  -0.43258
 Alpha  occ. eigenvalues --   -0.43142  -0.42986  -0.42792  -0.42702  -0.42647
 Alpha  occ. eigenvalues --   -0.42474  -0.42287  -0.42079  -0.42019  -0.41805
 Alpha  occ. eigenvalues --   -0.41495  -0.41423  -0.41248  -0.41133  -0.40968
 Alpha  occ. eigenvalues --   -0.40886  -0.40570  -0.40527  -0.40408  -0.40329
 Alpha  occ. eigenvalues --   -0.40266  -0.39852  -0.39560  -0.39422  -0.39170
 Alpha  occ. eigenvalues --   -0.39143  -0.39046  -0.39007  -0.38862  -0.38700
 Alpha  occ. eigenvalues --   -0.38665  -0.38368  -0.38354  -0.38303  -0.38035
 Alpha  occ. eigenvalues --   -0.37847  -0.37665  -0.37615  -0.37423  -0.37345
 Alpha  occ. eigenvalues --   -0.37125  -0.37074  -0.36935  -0.36725  -0.36625
 Alpha  occ. eigenvalues --   -0.36465  -0.36414  -0.36285  -0.36075  -0.35961
 Alpha  occ. eigenvalues --   -0.35817  -0.35593  -0.35476  -0.35324  -0.35183
 Alpha  occ. eigenvalues --   -0.35008  -0.34736  -0.34509  -0.33816  -0.33795
 Alpha  occ. eigenvalues --   -0.33644  -0.33180  -0.32984  -0.32853  -0.32310
 Alpha  occ. eigenvalues --   -0.32266  -0.31820  -0.31699  -0.31667  -0.31402
 Alpha  occ. eigenvalues --   -0.30966  -0.30617  -0.29811  -0.29342  -0.29054
 Alpha  occ. eigenvalues --   -0.29021  -0.28690  -0.28306  -0.27429  -0.26536
 Alpha  occ. eigenvalues --   -0.26343  -0.26246  -0.25730  -0.25535  -0.25280
 Alpha  occ. eigenvalues --   -0.25126  -0.24899  -0.24378  -0.21384  -0.20384
 Alpha  occ. eigenvalues --   -0.19343  -0.18191
 Alpha virt. eigenvalues --   -0.11952  -0.10447  -0.05402  -0.04761  -0.04618
 Alpha virt. eigenvalues --   -0.02925  -0.02646  -0.01571  -0.01266  -0.00391
 Alpha virt. eigenvalues --   -0.00367   0.00681   0.01010   0.01238   0.01383

 Mulliken charges:
               1
     1  Mg  11.999839
     2  C    6.000319
     3  C    5.999643
     4  C    5.999660
     5  C    5.999025
     6  N    6.999624
     7  C    6.000184
     8  C    5.999916
     9  C    6.000402
    10  C    5.999388
    11  C    5.999912
    12  C    5.999962
    13  C    6.000054
    14  H    0.999917
    15  N    7.000075
    16  C    5.999328
    17  C    5.999401
    18  C    5.999640
    19  C    5.999561
    20  C    6.000152
    21  C    5.999793
    22  O    7.999275
    23  C    6.000115
    24  N    6.999524
    25  C    5.999677
    26  C    6.000062
    27  C    5.999866
    28  C    6.000560
    29  C    6.000174
    30  C    6.000048
    31  C    5.999971
    32  N    7.000320
    33  C    6.000641
    34  C    6.000515
    35  C    6.000008
    36  C    6.000293
    37  C    5.999956
    38  C    6.000177
    39  O    8.000323
    40  C    6.000074
    41  C    6.000045
    42  O    8.000145
    43  O    8.000004
    44  C    6.000018
    45  H    0.999499
    46  H    0.999649
    47  H    0.999788
    48  H    0.999849
    49  H    0.999813
    50  H    1.000533
    51  H    0.999802
    52  H    0.999626
    53  H    1.000160
    54  H    0.999804
    55  H    1.000021
    56  H    0.999895
    57  H    0.999538
    58  H    0.999493
    59  H    0.999463
    60  H    0.999755
    61  H    0.999643
    62  H    0.999608
    63  H    0.999874
    64  H    0.999896
    65  H    0.999892
    66  H    0.999951
    67  H    0.999649
    68  H    0.999958
    69  H    0.999815
    70  H    0.999815
    71  H    1.000177
    72  H    0.999958
    73  H    1.000159
    74  H    1.000326
    75  H    1.000245
    76  H    1.000108
    77  H    1.000014
    78  H    1.000016
    79  H    0.999972
    80  Mg  12.000205
    81  C    5.999779
    82  C    6.000156
    83  C    6.000028
    84  C    5.999984
    85  N    6.999866
    86  C    6.000653
    87  C    5.999898
    88  C    5.999968
    89  C    6.000114
    90  C    6.000082
    91  C    5.999902
    92  C    5.999939
    93  H    1.000188
    94  N    6.999850
    95  C    6.000477
    96  C    5.999238
    97  C    5.999573
    98  C    6.000252
    99  C    6.000056
   100  C    6.000082
   101  O    7.999691
   102  C    6.000081
   103  N    6.999882
   104  C    6.000096
   105  C    5.999976
   106  C    5.999778
   107  C    6.000642
   108  C    5.999908
   109  C    5.999917
   110  C    5.999960
   111  N    6.999974
   112  C    6.000557
   113  C    6.000450
   114  C    6.000127
   115  C    6.000484
   116  C    5.999949
   117  C    6.000274
   118  O    8.000590
   119  C    5.999916
   120  C    6.000097
   121  O    8.000129
   122  O    8.000002
   123  C    5.999941
   124  H    1.000179
   125  H    1.000193
   126  H    1.000361
   127  H    1.000184
   128  H    1.000168
   129  H    1.000115
   130  H    0.999992
   131  H    1.000104
   132  H    1.000060
   133  H    1.000005
   134  H    1.000117
   135  H    1.000095
   136  H    0.999826
   137  H    0.999935
   138  H    0.999936
   139  H    0.999823
   140  H    0.999993
   141  H    0.999912
   142  H    1.000187
   143  H    1.000205
   144  H    1.000105
   145  H    1.000403
   146  H    1.000067
   147  H    0.999942
   148  H    1.000260
   149  H    1.000110
   150  H    1.000008
   151  H    1.000191
   152  H    1.000291
   153  H    1.000353
   154  H    1.000243
   155  H    1.000225
   156  H    1.000130
   157  H    1.000135
   158  H    1.000082
 Sum of Mulliken charges = 624.00000

 Dipole moment (field-independent basis, Debye):
    X=              0.3416    Y=              0.0825    Z=             -0.1732  Tot=              0.3918
 Quadrupole moment (field-independent basis, Debye-Ang):
   XX=              1.6975   YY=              0.0895   ZZ=             -0.5207
   XY=             -0.9977   XZ=              0.5282   YZ=              0.3631

 Normal termination of Gaussian 16 at Thu Oct 14 11:25:14 2021.
