 Gaussian 16, Revision A.03,
 Gaussian 16:  ES64L-G16RevA.03 25-Dec-2016

 --------------------------------------------------------
 #p PBE1PBE/Def2SVP td=(nstates=5) density=(transition=1)
 --------------------------------------------------------

 --------------------------------
 TDDFT excited states in gaussian
 --------------------------------
 Symbolic Z-matrix:
 Charge =  0 Multiplicity = 1

                         Standard orientation:
 ---------------------------------------------------------------------
 Center     Atomic      Atomic             Coordinates (Angstroms)
 Number     Number       Type             X           Y           Z
 ---------------------------------------------------------------------
      1         12           0      -19.096872    0.323885    0.493742
      2          6           0      -16.199154   -1.141955   -0.822309
      3          6           0      -20.884104   -2.565474   -0.502953
      4          6           0      -21.976225    1.853822    1.441425
      5          6           0      -17.393794    3.318208    0.727367
      6          7           0      -18.533568   -1.636378   -0.373423
      7          6           0      -17.225053   -2.038846   -0.655922
      8          6           0      -17.186136   -3.603620   -0.792439
      9          6           0      -18.673189   -3.976152   -0.777325
     10          6           0      -19.439882   -2.621620   -0.582708
     11          6           0      -19.069069   -4.677582   -2.104544
     12          6           0      -16.336135   -4.169485    0.338619
     13          6           0      -15.617899   -5.487937    0.101954
     14          1           0      -16.028126   -6.334514   -1.124183
     15          7           0      -21.156637   -0.233525    0.504077
     16          6           0      -21.683658   -1.447969    0.025075
     17          6           0      -23.130629   -1.461303    0.149573
     18          6           0      -23.521587   -0.215564    0.781170
     19          6           0      -22.199657    0.534548    0.914775
     20          6           0      -24.013444   -2.679084   -0.151906
     21          6           0      -24.881456    0.290063    1.223138
     22          8           0      -24.988448    1.383284    1.762695
     23          6           0      -26.031215   -0.641824    1.185673
     24          7           0      -19.568010    2.319828    1.077167
     25          6           0      -20.812573    2.666773    1.508560
     26          6           0      -20.783712    4.105918    2.086539
     27          6           0      -19.286022    4.575029    1.922790
     28          6           0      -18.642549    3.308704    1.300846
     29          6           0      -21.800275    4.998411    1.352256
     30          6           0      -18.564777    4.934578    3.248929
     31          6           0      -18.516313    6.452105    3.397505
     32          7           0      -17.217393    1.078937   -0.030758
     33          6           0      -16.657192    2.310645    0.040315
     34          6           0      -15.366550    2.252261   -0.688108
     35          6           0      -15.096003    0.939701   -0.942951
     36          6           0      -16.286537    0.270861   -0.559701
     37          6           0      -14.494144    3.484781   -0.857030
     38          6           0      -14.118869   -0.034891   -1.446266
     39          8           0      -13.004533    0.158838   -1.916974
     40          6           0      -14.785519   -1.388136   -1.291095
     41          6           0      -14.648526   -2.046058   -2.600100
     42          8           0      -15.284685   -1.880631   -3.649706
     43          8           0      -13.570825   -2.904078   -2.520006
     44          6           0      -13.210734   -3.611010   -3.729844
     45          1           0      -21.385030   -3.503669   -0.749666
     46          1           0      -22.927990    2.230456    1.821967
     47          1           0      -16.956069    4.318439    0.750574
     48          1           0      -16.731839   -3.701653   -1.779134
     49          1           0      -18.774108   -4.761955   -0.028769
     50          1           0      -19.729243   -4.099035   -2.750952
     51          1           0      -19.757141   -5.476028   -1.828250
     52          1           0      -18.199243   -4.953073   -2.700556
     53          1           0      -17.014641   -4.198455    1.191741
     54          1           0      -15.607408   -3.417726    0.639500
     55          1           0      -15.692902   -6.090749    1.005983
     56          1           0      -14.583969   -5.150754    0.020511
     57          1           0      -23.481799   -3.504548   -0.625639
     58          1           0      -24.827474   -2.390632   -0.818266
     59          1           0      -24.516863   -2.977625    0.766870
     60          1           0      -25.847979   -1.446847    1.897773
     61          1           0      -26.288727   -0.906470    0.160152
     62          1           0      -26.939198   -0.180148    1.573771
     63          1           0      -21.115016    4.048873    3.123149
     64          1           0      -19.319356    5.369967    1.176618
     65          1           0      -21.407561    5.897221    0.877727
     66          1           0      -22.402890    5.307454    2.206065
     67          1           0      -22.320111    4.511240    0.527787
     68          1           0      -17.498664    4.722003    3.167494
     69          1           0      -19.023367    4.491432    4.133111
     70          1           0      -18.841326    6.618789    4.424368
     71          1           0      -19.275456    6.982964    2.823567
     72          1           0      -17.541791    6.909345    3.223963
     73          1           0      -14.976455    4.433558   -0.620441
     74          1           0      -14.080983    3.571519   -1.861209
     75          1           0      -13.718551    3.458465   -0.090802
     76          1           0      -14.259190   -1.926913   -0.503857
     77          1           0      -13.123568   -2.873298   -4.527929
     78          1           0      -13.941993   -4.361924   -4.029792
     79          1           0      -12.155370   -3.849628   -3.602489
     80         12           0       19.394124   -0.084234    0.012616
     81          6           0       15.939041   -0.174795   -0.438778
     82          6           0       19.562473    2.609138   -2.132608
     83          6           0       22.610566   -0.115862    0.662078
     84          6           0       18.943877   -2.146230    2.983810
     85          7           0       17.822867    1.053464   -1.225698
     86          6           0       16.469081    0.866848   -1.233653
     87          6           0       15.809836    1.794492   -2.191573
     88          6           0       16.983895    2.721182   -2.703020
     89          6           0       18.255120    2.114398   -1.990547
     90          6           0       17.047724    2.896999   -4.241155
     91          6           0       14.666636    2.617378   -1.549402
     92          6           0       13.385905    2.500385   -2.373960
     93          1           0       12.689260    3.823886   -2.812181
     94          7           0       20.893327    1.075945   -0.676448
     95          6           0       20.800676    2.120351   -1.595229
     96          6           0       22.172460    2.550980   -1.832305
     97          6           0       23.107323    1.734512   -1.041397
     98          6           0       22.216109    0.764741   -0.329669
     99          6           0       22.499113    3.733886   -2.597727
    100          6           0       24.542941    2.048374   -0.947932
    101          8           0       25.086607    2.946270   -1.556323
    102          6           0       25.483548    1.363844   -0.018662
    103          7           0       20.530539   -0.941253    1.574039
    104          6           0       21.892124   -1.027669    1.430245
    105          6           0       22.490679   -1.797506    2.588565
    106          6           0       21.357086   -1.984574    3.526218
    107          6           0       20.212021   -1.624337    2.717124
    108          6           0       23.291906   -3.102737    2.185792
    109          6           0       21.384033   -0.986697    4.734489
    110          6           0       20.791879   -1.453810    5.983071
    111          7           0       17.792102   -1.030447    1.086287
    112          6           0       17.758259   -1.871448    2.206320
    113          6           0       16.463263   -2.468818    2.301229
    114          6           0       15.702764   -1.822530    1.333922
    115          6           0       16.557269   -0.904563    0.625183
    116          6           0       16.098609   -3.502379    3.302016
    117          6           0       14.403845   -1.694286    0.803866
    118          8           0       13.378235   -2.261576    1.107733
    119          6           0       14.504616   -0.694916   -0.370063
    120          6           0       14.016177   -1.344421   -1.596860
    121          8           0       14.695398   -2.048308   -2.363152
    122          8           0       12.652007   -1.188766   -1.687880
    123          6           0       11.937364   -1.655267   -2.864923
    124          1           0       19.547672    3.416199   -2.867309
    125          1           0       23.641047   -0.191535    1.018089
    126          1           0       18.860813   -2.783224    3.866894
    127          1           0       15.616239    1.176942   -3.069096
    128          1           0       16.901193    3.754262   -2.366773
    129          1           0       16.045393    2.597425   -4.549625
    130          1           0       17.860403    2.386803   -4.758326
    131          1           0       17.173401    3.950963   -4.487877
    132          1           0       14.843372    3.692771   -1.541825
    133          1           0       14.547785    2.232040   -0.536900
    134          1           0       12.730064    2.073318   -1.615429
    135          1           0       13.585190    1.797426   -3.181462
    136          1           0       21.569595    4.149443   -2.987429
    137          1           0       23.099269    3.573017   -3.493793
    138          1           0       22.948799    4.477054   -1.938316
    139          1           0       25.208015    0.330032   -0.227107
    140          1           0       25.227594    1.643062    1.003748
    141          1           0       26.521113    1.566108   -0.285343
    142          1           0       23.239011   -1.108057    2.977673
    143          1           0       21.128871   -2.998521    3.854906
    144          1           0       23.441440   -3.141224    1.106622
    145          1           0       22.907961   -4.029005    2.614669
    146          1           0       24.339310   -3.071664    2.484640
    147          1           0       20.913323   -0.050256    4.434886
    148          1           0       22.409407   -0.716229    4.986101
    149          1           0       21.552471   -1.993943    6.547904
    150          1           0       19.900863   -2.060331    5.817492
    151          1           0       20.634594   -0.607654    6.652716
    152          1           0       16.917053   -4.204792    3.459122
    153          1           0       15.179060   -4.039489    3.068991
    154          1           0       16.034551   -2.941536    4.234509
    155          1           0       13.798159    0.130955   -0.285601
    156          1           0       11.803719   -2.726748   -3.014167
    157          1           0       12.381535   -1.215248   -3.757551
    158          1           0       10.920401   -1.295781   -2.712339
 ---------------------------------------------------------------------

 SCF Done:  E(RPBE1PBE) =  -4067.34562917     A.U. after   16 cycles

 Excitation energies and oscillator strengths:

 Excited State   1:      Singlet-A      1.8029 eV  687.70 nm  f=0.0000  <S**2>=0.000
     312 -> 313        0.70710
 This state for optimization and/or second-order correction.
 Total Energy, E(TD-HF/TD-DFT) =  -4067.27937438
 Copying the excited state density for this state as the 1-particle RhoCI density.

 Excited State   2:      Singlet-A      1.8263 eV  678.89 nm  f=0.4290  <S**2>=0.000
     310 -> 316        0.16135
     312 -> 314        0.69314
     312 <- 314       -0.11126

 Excited State   3:      Singlet-A      1.8374 eV  674.79 nm  f=0.3106  <S**2>=0.000
     309 -> 315        0.18211
     311 -> 313        0.68843
     311 <- 313       -0.10401

 Excited State   4:      Singlet-A      2.1082 eV  588.09 nm  f=0.0000  <S**2>=0.000
     311 -> 314        0.70710

 Excited State   5:      Singlet-A      2.1966 eV  564.43 nm  f=0.1002  <S**2>=0.000
     309 -> 313        0.64563
     311 -> 315       -0.27280

 The electronic state is 1-A.
 Alpha  occ. eigenvalues --  -46.92510 -46.92296 -19.25484 -19.25150 -19.20064
 Alpha  occ. eigenvalues --  -19.19634 -19.19548 -19.19221 -19.18601 -19.17567
 Alpha  occ. eigenvalues --  -14.41807 -14.41709 -14.41427 -14.41255 -14.39897
 Alpha  occ. eigenvalues --  -14.39684 -14.38927 -14.38829 -10.36409 -10.36057
 Alpha  occ. eigenvalues --  -10.32658 -10.32397 -10.31326 -10.30782 -10.29572
 Alpha  occ. eigenvalues --  -10.29301 -10.29295 -10.29158 -10.28848 -10.28827
 Alpha  occ. eigenvalues --  -10.28696 -10.28684 -10.28638 -10.28542 -10.28518
 Alpha  occ. eigenvalues --  -10.28224 -10.28210 -10.28003 -10.27673 -10.27349
 Alpha  occ. eigenvalues --  -10.26963 -10.26809 -10.26541 -10.26497 -10.26460
 Alpha  occ. eigenvalues --  -10.26375 -10.26170 -10.26127 -10.26115 -10.26076
 Alpha  occ. eigenvalues --  -10.26005 -10.25797 -10.25724 -10.25686 -10.25657
 Alpha  occ. eigenvalues --  -10.25576 -10.25534 -10.25506 -10.25501 -10.25421
 Alpha  occ. eigenvalues --  -10.25363 -10.25217 -10.25116 -10.25026 -10.24905
 Alpha  occ. eigenvalues --  -10.24869 -10.24755 -10.24737 -10.24384 -10.24269
 Alpha  occ. eigenvalues --  -10.24215 -10.24082 -10.23972 -10.23914 -10.23855
 Alpha  occ. eigenvalues --  -10.23672 -10.23615 -10.23061 -10.22967 -10.22966
 Alpha  occ. eigenvalues --  -10.22735 -10.22674 -10.22488 -10.22472 -10.22453
 Alpha  occ. eigenvalues --  -10.22231  -3.14491  -3.14368  -1.87345  -1.87212
 Alpha  occ. eigenvalues --   -1.86824  -1.86751  -1.86745  -1.86581  -1.10588
 Alpha  occ. eigenvalues --   -1.10171  -1.04995  -1.04852  -1.04822  -1.04549
 Alpha  occ. eigenvalues --   -1.01708  -1.01464  -0.99570  -0.99154  -0.98446
 Alpha  occ. eigenvalues --   -0.97606  -0.97392  -0.97203  -0.96172  -0.96145
 Alpha  occ. eigenvalues --   -0.87818  -0.86997  -0.85090  -0.83826  -0.83516
 Alpha  occ. eigenvalues --   -0.83358  -0.83074  -0.82203  -0.82029  -0.81582
 Alpha  occ. eigenvalues --   -0.81452  -0.81058  -0.80531  -0.79950  -0.79505
 Alpha  occ. eigenvalues --   -0.78843  -0.78588  -0.78138  -0.77713  -0.77026
 Alpha  occ. eigenvalues --   -0.76776  -0.76430  -0.75711  -0.75254  -0.75134
 Alpha  occ. eigenvalues --   -0.74377  -0.72993  -0.72262  -0.72253  -0.71612
 Alpha  occ. eigenvalues --   -0.71389  -0.71120  -0.70595  -0.70288  -0.69718
 Alpha  occ. eigenvalues --   -0.68898  -0.67846  -0.67014  -0.66466  -0.65449
 Alpha  occ. eigenvalues --   -0.63778  -0.63472  -0.63455  -0.62879  -0.62343
 Alpha  occ. eigenvalues --   -0.62323  -0.61839  -0.61424  -0.60912  -0.60388
 Alpha  occ. eigenvalues --   -0.59798  -0.59787  -0.59310  -0.59250  -0.59168
 Alpha  occ. eigenvalues --   -0.58463  -0.56744  -0.56587  -0.55276  -0.54565
 Alpha  occ. eigenvalues --   -0.54237  -0.54054  -0.53985  -0.53613  -0.53581
 Alpha  occ. eigenvalues --   -0.53326  -0.52999  -0.52517  -0.52255  -0.51826
 Alpha  occ. eigenvalues --   -0.50967  -0.50524  -0.50364  -0.50305  -0.50020
 Alpha  occ. eigenvalues --   -0.49715  -0.49642  -0.49309  -0.48995  -0.48795
 Alpha  occ. eigenvalues --   -0.48171  -0.48020  -0.47881  -0.47866  -0.47730
 Alpha  occ. eigenvalues --   -0.47516  -0.47447  -0.47443  -0.47069  -0.46742
 Alpha  occ. eigenvalues --   -0.46523  -0.46465  -0.46364  -0.46314  -0.46254
 Alpha  occ. eigenvalues --   -0.46012  -0.45947  -0.45792  -0.45408  -0.44988
 Alpha  occ. eigenvalues --   -0.44822  -0.44626  -0.44328  -0.44172  -0.44146
 Alpha  occ. eigenvalues --   -0.44080  -0.44012  -0.43773  -0.43748  -0.43652
 Alpha  occ. eigenvalues --   -0.43461  -0.43259  -0.43204  -0.43077  -0.42867
 Alpha  occ. eigenvalues --   -0.42492  -0.42279  -0.42070  -0.41815  -0.41701
 Alpha  occ. eigenvalues --   -0.41699  -0.41472  -0.41466  -0.41250  -0.41067
 Alpha  occ. eigenvalues --   -0.41003  -0.40861  -0.40812  -0.40575  -0.40475
 Alpha  occ. eigenvalues --   -0.40060  -0.39981  -0.39728  -0.39687  -0.39474
 Alpha  occ. eigenvalues --   -0.39302  -0.39230  -0.39217  -0.39158  -0.39032
 Alpha  occ. eigenvalues --   -0.38854  -0.38495  -0.38410  -0.38193  -0.38170
 Alpha  occ. eigenvalues --   -0.38068  -0.37948  -0.37867  -0.37815  -0.37790
 Alpha  occ. eigenvalues --   -0.37668  -0.37387  -0.37337  -0.37264  -0.36936
 Alpha  occ. eigenvalues --   -0.36745  -0.36589  -0.36378  -0.36331  -0.36151
 Alpha  occ. eigenvalues --   -0.36126  -0.36032  -0.35839  -0.35562  -0.35244
 Alpha  occ. eigenvalues --   -0.35130  -0.34815  -0.34062  -0.33875  -0.33493
 Alpha  occ. eigenvalues --   -0.33461  -0.32984  -0.32940  -0.32754  -0.32654
 Alpha  occ. eigenvalues --   -0.32290  -0.31995  -0.31561  -0.31370  -0.31253
 Alpha  occ. eigenvalues --   -0.31209  -0.30900  -0.29505  -0.29377  -0.29082
 Alpha  occ. eigenvalues --   -0.28897  -0.28243  -0.28197  -0.27006  -0.26916
 Alpha  occ. eigenvalues --   -0.26431  -0.26142  -0.25928  -0.25670  -0.25533
 Alpha  occ. eigenvalues --   -0.25460  -0.25030  -0.24305  -0.21237  -0.20720
 Alpha  occ. eigenvalues --   -0.19199  -0.18566
 Alpha virt. eigenvalues --   -0.11590  -0.11107  -0.05944  -0.05042  -0.04027
 Alpha virt. eigenvalues --   -0.03922  -0.02429  -0.02023  -0.00420  -0.00157
 Alpha virt. eigenvalues --   -0.00027   0.00578   0.00772   0.01096   0.01251

 Mulliken charges:
               1
     1  Mg  12.000000
     2  C    6.000000
     3  C    6.000000
     4  C    6.000000
     5  C    6.000000
     6  N    7.000000
     7  C    6.000000
     8  C    6.000000
     9  C    6.000000
    10  C    6.000000
    11  C    6.000000
    12  C    6.000000
    13  C    6.000000
    14  H    1.000000
    15  N    7.000000
    16  C    6.000000
    17  C    6.000000
    18  C    6.000000
    19  C    6.000000
    20  C    6.000000
    21  C    6.000000
    22  O    8.000000
    23  C    6.000000
    24  N    7.000000
    25  C    6.000000
    26  C    6.000000
    27  C    6.000000
    28  C    6.000000
    29  C    6.000000
    30  C    6.000000
    31  C    6.000000
    32  N    7.000000
    33  C    6.000000
    34  C    6.000000
    35  C    6.000000
    36  C    6.000000
    37  C    6.000000
    38  C    6.000000
    39  O    8.000000
    40  C    6.000000
    41  C    6.000000
    42  O    8.000000
    43  O    8.000000
    44  C    6.000000
    45  H    1.000000
    46  H    1.000000
    47  H    1.000000
    48  H    1.000000
    49  H    1.000000
    50  H    1.000000
    51  H    1.000000
    52  H    1.000000
    53  H    1.000000
    54  H    1.000000
    55  H    1.000000
    56  H    1.000000
    57  H    1.000000
    58  H    1.000000
    59  H    1.000000
    60  H    1.000000
    61  H    1.000000
    62  H    1.000000
    63  H    1.000000
    64  H    1.000000
    65  H    1.000000
    66  H    1.000000
    67  H    1.000000
    68  H    1.000000
    69  H    1.000000
    70  H    1.000000
    71  H    1.000000
    72  H    1.000000
    73  H    1.000000
    74  H    1.000000
    75  H    1.000000
    76  H    1.000000
    77  H    1.000000
    78  H    1.000000
    79  H    1.000000
    80  Mg  12.000000
    81  C    6.000000
    82  C    6.000000
    83  C    6.000000
    84  C    6.000000
    85  N    7.000000
    86  C    6.000000
    87  C    6.000000
    88  C    6.000000
    89  C    6.000000
    90  C    6.000000
    91  C    6.000000
    92  C    6.000000
    93  H    1.000000
    94  N    7.000000
    95  C    6.000000
    96  C    6.000000
    97  C    6.000000
    98  C    6.000000
    99  C    6.000000
   100  C    6.000000
   101  O    8.000000
   102  C    6.000000
   103  N    7.000000
   104  C    6.000000
   105  C    6.000000
   106  C    6.000000
   107  C    6.000000
   108  C    6.000000
   109  C    6.000000
   110  C    6.000000
   111  N    7.000000
   112  C    6.000000
   113  C    6.000000
   114  C    6.000000
   115  C    6.000000
   116  C    6.000000
   117  C    6.000000
   118  O    8.000000
   119  C    6.000000
   120  C    6.000000
   121  O    8.000000
   122  O    8.000000
   123  C    6.000000
   124  H    1.000000
   125  H    1.000000
   126  H    1.000000
   127  H    1.000000
   128  H    1.000000
   129  H    1.000000
   130  H    1.000000
   131  H    1.000000
   132  H    1.000000
   133  H    1.000000
   134  H    1.000000
   135  H    1.000000
   136  H    1.000000
   137  H    1.000000
   138  H    1.000000
   139  H    1.000000
   140  H    1.000000
   141  H    1.000000
   142  H    1.000000
   143  H    1.000000
   144  H    1.000000
   145  H    1.000000
   146  H    1.000000
   147  H    1.000000
   148  H    1.000000
   149  H    1.000000
   150  H    1.000000
   151  H    1.000000
   152  H    1.000000
   153  H    1.000000
   154  H    1.000000
   155  H    1.000000
   156  H    1.000000
   157  H    1.000000
   158  H    1.000000
 Sum of Mulliken charges = 624.00000

 Dipole moment (field-independent basis, Debye):
    X=             -0.0000    Y=             -0.0000    Z=              0.0000  Tot=              0.0000
 Quadrupole moment (field-independent basis, Debye-Ang):
   XX=              0.0000   YY=             -0.0000   ZZ=             -0.0000
   XY=              0.0000   XZ=             -0.0000   YZ=             -0.0000

 Normal termination of Gaussian 16 at Fri Oct 15 02:24:49 2021.
