 Gaussian 16, Revision A.03,
 Gaussian 16:  ES64L-G16RevA.03 25-Dec-2016

 --------------------------------------------------------
 #p PBE1PBE/Def2SVP td=(nstates=5) density=(transition=1)
 --------------------------------------------------------

 --------------------------------
 TDDFT excited states in gaussian
 --------------------------------
 Symbolic Z-matrix:
 Charge =  0 Multiplicity = 1

                         Standard orientation:
 ---------------------------------------------------------------------
 Center     Atomic      Atomic             Coordinates (Angstroms)
 Number     Number       Type             X           Y           Z
 ---------------------------------------------------------------------
      1         12           0      -31.709693   -0.183420   -0.289419
      2          6           0      -28.782833    1.535860   -0.029484
      3          6           0      -30.041288   -2.941750    0.990145
      4          6           0      -34.674951   -1.754965   -0.188986
      5          6           0      -33.433885    2.816587   -0.931987
      6          7           0      -29.690557   -0.559000    0.645464
      7          6           0      -28.674453    0.323859    0.571528
      8          6           0      -27.444648   -0.165628    1.244848
      9          6           0      -27.772074   -1.785792    1.225808
     10          6           0      -29.286975   -1.800255    0.931884
     11          6           0      -26.894040   -2.568168    0.205054
     12          6           0      -27.373456    0.396539    2.655756
     13          6           0      -28.601363    0.163522    3.652593
     14          1           0      -28.352271   -0.156282    5.121292
     15          7           0      -32.287363   -2.069506    0.310974
     16          6           0      -31.424583   -3.129925    0.687004
     17          6           0      -32.217214   -4.312611    0.743028
     18          6           0      -33.548094   -4.024548    0.467122
     19          6           0      -33.586725   -2.590609    0.134098
     20          6           0      -31.527712   -5.615270    1.094389
     21          6           0      -34.731047   -4.958374    0.561039
     22          8           0      -34.468587   -6.133627    0.918965
     23          6           0      -36.103442   -4.584153    0.486692
     24          7           0      -33.782919    0.512438   -0.317111
     25          6           0      -34.822463   -0.370526   -0.322552
     26          6           0      -36.177935    0.359619   -0.478395
     27          6           0      -35.738173    1.843504   -0.716470
     28          6           0      -34.228433    1.746661   -0.576085
     29          6           0      -37.050389   -0.213283   -1.574826
     30          6           0      -36.438046    2.841289    0.352240
     31          6           0      -36.932278    4.159565   -0.254279
     32          7           0      -31.268017    1.860946   -0.476513
     33          6           0      -31.991952    2.917751   -0.927869
     34          6           0      -31.057354    3.970490   -1.219656
     35          6           0      -29.727076    3.506145   -0.932883
     36          6           0      -29.930988    2.221068   -0.458074
     37          6           0      -31.418816    5.389410   -1.497646
     38          6           0      -28.333593    3.799570   -0.832130
     39          8           0      -27.817441    4.872135   -1.170582
     40          6           0      -27.683321    2.541261   -0.287452
     41          6           0      -26.669363    2.073464   -1.263592
     42          8           0      -25.772057    2.824283   -1.592348
     43          8           0      -26.803305    0.772425   -1.641661
     44          6           0      -25.794059    0.292296   -2.587607
     45          1           0      -29.471655   -3.863746    1.123051
     46          1           0      -35.583233   -2.329466   -0.381559
     47          1           0      -33.870334    3.745874   -1.304857
     48          1           0      -26.481413    0.066834    0.790599
     49          1           0      -27.453080   -2.257365    2.156215
     50          1           0      -26.324341   -3.340995    0.719785
     51          1           0      -26.183262   -1.853673   -0.210996
     52          1           0      -27.445076   -3.008485   -0.626973
     53          1           0      -27.116051    1.451950    2.564248
     54          1           0      -26.420271    0.002936    3.008560
     55          1           0      -29.286499   -0.639235    3.379751
     56          1           0      -29.076252    1.144170    3.644702
     57          1           0      -31.501359   -5.642796    2.183885
     58          1           0      -30.501279   -5.579695    0.731467
     59          1           0      -31.986470   -6.526183    0.708669
     60          1           0      -36.736311   -5.244504    1.080418
     61          1           0      -36.461040   -4.434961   -0.532930
     62          1           0      -36.163026   -3.649169    1.042135
     63          1           0      -36.633732    0.242046    0.505347
     64          1           0      -35.920695    2.112203   -1.756766
     65          1           0      -36.652980   -1.120169   -2.029814
     66          1           0      -37.445131    0.416825   -2.371391
     67          1           0      -37.883817   -0.635462   -1.012582
     68          1           0      -35.792056    3.119602    1.184976
     69          1           0      -37.266495    2.364342    0.875669
     70          1           0      -38.020612    4.124218   -0.294805
     71          1           0      -36.600418    4.201481   -1.291905
     72          1           0      -36.616256    5.034687    0.313729
     73          1           0      -31.906172    5.608539   -2.446918
     74          1           0      -30.481872    5.941707   -1.416246
     75          1           0      -32.118003    5.786452   -0.761635
     76          1           0      -27.183906    2.835114    0.636231
     77          1           0      -24.814823    0.438108   -2.130702
     78          1           0      -25.868845    0.752656   -3.572915
     79          1           0      -25.987874   -0.744429   -2.862423
     80         12           0       31.644766    0.392825   -0.534143
     81          6           0       29.166202   -1.781674    0.557331
     82          6           0       30.229228    2.916283    1.512065
     83          6           0       34.523506    2.086751   -0.621472
     84          6           0       33.285024   -2.388904   -1.948429
     85          7           0       30.038932    0.427079    1.189868
     86          6           0       29.046486   -0.523313    1.201726
     87          6           0       27.926490   -0.136032    2.115617
     88          6           0       28.128244    1.445658    2.215281
     89          6           0       29.571533    1.657227    1.635681
     90          6           0       27.029609    2.346099    1.454437
     91          6           0       27.977630   -1.001908    3.477631
     92          6           0       26.705344   -1.159445    4.142977
     93          1           0       26.714541   -0.692073    5.613890
     94          7           0       32.248011    2.300666    0.152980
     95          6           0       31.512382    3.195178    0.979853
     96          6           0       32.316527    4.393385    1.151145
     97          6           0       33.571133    4.199826    0.523544
     98          6           0       33.461770    2.838690   -0.101007
     99          6           0       31.880284    5.516318    2.016490
    100          6           0       34.769034    5.237646    0.580979
    101          8           0       34.570668    6.281895    1.199999
    102          6           0       35.984134    5.121584   -0.332879
    103          7           0       33.604613   -0.159716   -1.103637
    104          6           0       34.567225    0.796038   -1.145747
    105          6           0       36.033988    0.205170   -1.626280
    106          6           0       35.566720   -1.191162   -2.261506
    107          6           0       34.078671   -1.295708   -1.800040
    108          6           0       36.807257    1.070075   -2.692404
    109          6           0       36.391345   -2.381783   -1.768716
    110          6           0       37.162791   -3.279528   -2.765591
    111          7           0       31.179548   -1.581355   -0.921471
    112          6           0       31.918178   -2.556689   -1.526072
    113          6           0       31.111995   -3.737881   -1.666423
    114          6           0       30.009006   -3.457653   -0.774925
    115          6           0       30.153625   -2.132617   -0.329617
    116          6           0       31.522829   -5.028327   -2.314662
    117          6           0       28.857735   -4.060197   -0.135910
    118          8           0       28.312789   -5.098500   -0.358062
    119          6           0       28.166583   -2.962360    0.763166
    120          6           0       26.758469   -2.535400    0.293320
    121          8           0       26.480102   -2.208401   -0.840324
    122          8           0       25.841339   -2.683297    1.354242
    123          6           0       24.456929   -2.495884    1.040795
    124          1           0       29.706182    3.670164    2.102809
    125          1           0       35.530004    2.482727   -0.472218
    126          1           0       33.822772   -3.216675   -2.414348
    127          1           0       26.955626   -0.168942    1.620124
    128          1           0       28.127200    1.718439    3.271213
    129          1           0       26.577349    2.959945    2.233277
    130          1           0       26.279578    1.750922    0.934472
    131          1           0       27.583427    2.977431    0.758991
    132          1           0       28.640168   -0.419986    4.118124
    133          1           0       28.498108   -1.896154    3.133748
    134          1           0       26.469416   -2.221707    4.091964
    135          1           0       25.946475   -0.554468    3.646847
    136          1           0       30.824420    5.438239    2.275026
    137          1           0       31.950361    6.456473    1.468837
    138          1           0       32.440391    5.536560    2.951649
    139          1           0       36.606486    4.249894   -0.128112
    140          1           0       36.561959    6.040052   -0.224655
    141          1           0       35.614903    5.095067   -1.358157
    142          1           0       36.554476    0.039951   -0.683335
    143          1           0       35.477405   -1.194638   -3.348054
    144          1           0       37.711071    1.482577   -2.244948
    145          1           0       36.171186    1.892007   -3.023131
    146          1           0       37.054016    0.399674   -3.516375
    147          1           0       35.811787   -3.025573   -1.107480
    148          1           0       37.150327   -2.134047   -1.026816
    149          1           0       36.799962   -4.297273   -2.911849
    150          1           0       38.155912   -3.390143   -2.329520
    151          1           0       37.209159   -2.822913   -3.754986
    152          1           0       30.608153   -5.583484   -2.524144
    153          1           0       31.941336   -5.772787   -1.638097
    154          1           0       32.200821   -4.924196   -3.161355
    155          1           0       28.071321   -3.464654    1.726240
    156          1           0       24.083277   -2.172056    2.012738
    157          1           0       23.946165   -3.442144    0.863294
    158          1           0       24.337159   -1.820768    0.194407
 ---------------------------------------------------------------------

 SCF Done:  E(RPBE1PBE) =  -4067.34663909     A.U. after   16 cycles

 Excitation energies and oscillator strengths:

 Excited State   1:      Singlet-A      1.8323 eV  676.65 nm  f=0.3802  <S**2>=0.000
     309 -> 316       -0.16911
     312 -> 314        0.69537
     312 <- 314       -0.11107
 This state for optimization and/or second-order correction.
 Total Energy, E(TD-HF/TD-DFT) =  -4067.27930263
 Copying the excited state density for this state as the 1-particle RhoCI density.

 Excited State   2:      Singlet-A      1.8908 eV  655.72 nm  f=0.3794  <S**2>=0.000
     310 -> 315       -0.16978
     311 -> 313        0.69197
     311 <- 313       -0.10820

 Excited State   3:      Singlet-A      1.9091 eV  649.43 nm  f=0.0000  <S**2>=0.000
     312 -> 313        0.70711

 Excited State   4:      Singlet-A      2.1158 eV  585.99 nm  f=0.0000  <S**2>=0.000
     311 -> 314        0.70711

 Excited State   5:      Singlet-A      2.2081 eV  561.51 nm  f=0.1166  <S**2>=0.000
     310 -> 313        0.66031
     311 -> 315        0.22048

 The electronic state is 1-A.
 Alpha  occ. eigenvalues --  -46.93185 -46.92472 -19.27052 -19.25817 -19.20966
 Alpha  occ. eigenvalues --  -19.19754 -19.19734 -19.18681 -19.18627 -19.18248
 Alpha  occ. eigenvalues --  -14.41703 -14.41648 -14.41571 -14.41481 -14.39741
 Alpha  occ. eigenvalues --  -14.39383 -14.38829 -14.38381 -10.37144 -10.36513
 Alpha  occ. eigenvalues --  -10.33395 -10.31819 -10.31727 -10.31301 -10.29973
 Alpha  occ. eigenvalues --  -10.29391 -10.29239 -10.29181 -10.28737 -10.28698
 Alpha  occ. eigenvalues --  -10.28680 -10.28539 -10.28459 -10.28412 -10.28402
 Alpha  occ. eigenvalues --  -10.28327 -10.28024 -10.27869 -10.27657 -10.27136
 Alpha  occ. eigenvalues --  -10.27095 -10.26579 -10.26552 -10.26260 -10.26250
 Alpha  occ. eigenvalues --  -10.26244 -10.26235 -10.26217 -10.26144 -10.26067
 Alpha  occ. eigenvalues --  -10.26031 -10.25965 -10.25875 -10.25861 -10.25692
 Alpha  occ. eigenvalues --  -10.25689 -10.25680 -10.25631 -10.25591 -10.25485
 Alpha  occ. eigenvalues --  -10.25336 -10.24977 -10.24907 -10.24901 -10.24886
 Alpha  occ. eigenvalues --  -10.24868 -10.24679 -10.24486 -10.24296 -10.24226
 Alpha  occ. eigenvalues --  -10.24206 -10.24131 -10.24126 -10.24120 -10.23985
 Alpha  occ. eigenvalues --  -10.23906 -10.23783 -10.23659 -10.23341 -10.23334
 Alpha  occ. eigenvalues --  -10.23079 -10.22855 -10.22696 -10.22613 -10.22564
 Alpha  occ. eigenvalues --  -10.22462  -3.15184  -3.14507  -1.87972  -1.87613
 Alpha  occ. eigenvalues --   -1.87373  -1.87322  -1.86900  -1.86712  -1.12208
 Alpha  occ. eigenvalues --   -1.10858  -1.05713  -1.04859  -1.03894  -1.03590
 Alpha  occ. eigenvalues --   -1.02955  -1.02884  -0.99812  -0.99560  -0.99143
 Alpha  occ. eigenvalues --   -0.97551  -0.97395  -0.96938  -0.96173  -0.95978
 Alpha  occ. eigenvalues --   -0.88539  -0.86685  -0.83529  -0.83520  -0.83319
 Alpha  occ. eigenvalues --   -0.83041  -0.82603  -0.82421  -0.82086  -0.81178
 Alpha  occ. eigenvalues --   -0.80801  -0.80519  -0.80178  -0.80078  -0.79393
 Alpha  occ. eigenvalues --   -0.78451  -0.78306  -0.77670  -0.77506  -0.77053
 Alpha  occ. eigenvalues --   -0.76905  -0.76362  -0.75791  -0.75483  -0.75261
 Alpha  occ. eigenvalues --   -0.74625  -0.72979  -0.72246  -0.72219  -0.71575
 Alpha  occ. eigenvalues --   -0.71385  -0.71018  -0.70485  -0.70438  -0.69281
 Alpha  occ. eigenvalues --   -0.69269  -0.67147  -0.67003  -0.66549  -0.65778
 Alpha  occ. eigenvalues --   -0.64422  -0.63628  -0.63611  -0.63236  -0.62930
 Alpha  occ. eigenvalues --   -0.61856  -0.61537  -0.60972  -0.60833  -0.60311
 Alpha  occ. eigenvalues --   -0.59822  -0.59754  -0.59338  -0.58904  -0.58874
 Alpha  occ. eigenvalues --   -0.58697  -0.58406  -0.57421  -0.54783  -0.54230
 Alpha  occ. eigenvalues --   -0.54224  -0.54072  -0.53841  -0.53545  -0.53228
 Alpha  occ. eigenvalues --   -0.53063  -0.53003  -0.52673  -0.52625  -0.52037
 Alpha  occ. eigenvalues --   -0.51291  -0.51136  -0.50839  -0.50420  -0.49955
 Alpha  occ. eigenvalues --   -0.49720  -0.49564  -0.49259  -0.49139  -0.48873
 Alpha  occ. eigenvalues --   -0.48608  -0.48430  -0.47855  -0.47793  -0.47695
 Alpha  occ. eigenvalues --   -0.47339  -0.47134  -0.46964  -0.46949  -0.46587
 Alpha  occ. eigenvalues --   -0.46484  -0.46426  -0.46301  -0.46186  -0.46014
 Alpha  occ. eigenvalues --   -0.45785  -0.45654  -0.45537  -0.45468  -0.44770
 Alpha  occ. eigenvalues --   -0.44749  -0.44488  -0.44276  -0.44199  -0.44177
 Alpha  occ. eigenvalues --   -0.44048  -0.43895  -0.43831  -0.43795  -0.43416
 Alpha  occ. eigenvalues --   -0.43365  -0.43357  -0.43189  -0.43127  -0.42763
 Alpha  occ. eigenvalues --   -0.42688  -0.42527  -0.42260  -0.42056  -0.41761
 Alpha  occ. eigenvalues --   -0.41674  -0.41564  -0.41486  -0.41138  -0.41128
 Alpha  occ. eigenvalues --   -0.41011  -0.40869  -0.40749  -0.40616  -0.40525
 Alpha  occ. eigenvalues --   -0.40429  -0.40398  -0.39981  -0.39961  -0.39740
 Alpha  occ. eigenvalues --   -0.39577  -0.39556  -0.39478  -0.39440  -0.39338
 Alpha  occ. eigenvalues --   -0.39305  -0.38832  -0.38671  -0.38447  -0.38409
 Alpha  occ. eigenvalues --   -0.38328  -0.38224  -0.37917  -0.37671  -0.37561
 Alpha  occ. eigenvalues --   -0.37463  -0.37385  -0.37312  -0.37147  -0.37098
 Alpha  occ. eigenvalues --   -0.37047  -0.36771  -0.36646  -0.36377  -0.36089
 Alpha  occ. eigenvalues --   -0.36022  -0.35962  -0.35880  -0.35806  -0.35338
 Alpha  occ. eigenvalues --   -0.35265  -0.34777  -0.34511  -0.34117  -0.33662
 Alpha  occ. eigenvalues --   -0.33609  -0.33148  -0.32805  -0.32749  -0.32682
 Alpha  occ. eigenvalues --   -0.32465  -0.32077  -0.31953  -0.31637  -0.31251
 Alpha  occ. eigenvalues --   -0.31029  -0.30686  -0.29773  -0.29768  -0.29408
 Alpha  occ. eigenvalues --   -0.29185  -0.28878  -0.28558  -0.27371  -0.26891
 Alpha  occ. eigenvalues --   -0.26190  -0.25589  -0.25586  -0.25431  -0.25357
 Alpha  occ. eigenvalues --   -0.25097  -0.24964  -0.24807  -0.21201  -0.21200
 Alpha  occ. eigenvalues --   -0.19255  -0.18796
 Alpha virt. eigenvalues --   -0.11571  -0.11271  -0.05406  -0.05154  -0.04038
 Alpha virt. eigenvalues --   -0.03767  -0.02355  -0.02317  -0.01443  -0.01383
 Alpha virt. eigenvalues --   -0.00122   0.00384   0.00522   0.01314   0.01673

 Mulliken charges:
               1
     1  Mg  11.999996
     2  C    5.999991
     3  C    6.000004
     4  C    6.000036
     5  C    6.000004
     6  N    7.000010
     7  C    5.999992
     8  C    6.000019
     9  C    5.999988
    10  C    6.000008
    11  C    5.999987
    12  C    6.000003
    13  C    6.000003
    14  H    0.999995
    15  N    7.000004
    16  C    6.000028
    17  C    6.000035
    18  C    6.000023
    19  C    6.000004
    20  C    5.999999
    21  C    6.000033
    22  O    8.000038
    23  C    5.999992
    24  N    7.000021
    25  C    6.000000
    26  C    5.999992
    27  C    6.000011
    28  C    5.999966
    29  C    5.999997
    30  C    6.000004
    31  C    5.999999
    32  N    6.999998
    33  C    5.999942
    34  C    5.999944
    35  C    6.000023
    36  C    5.999956
    37  C    6.000004
    38  C    5.999996
    39  O    7.999944
    40  C    6.000000
    41  C    6.000007
    42  O    7.999982
    43  O    8.000011
    44  C    5.999994
    45  H    1.000038
    46  H    0.999991
    47  H    0.999978
    48  H    1.000008
    49  H    1.000013
    50  H    1.000021
    51  H    1.000027
    52  H    1.000004
    53  H    1.000003
    54  H    1.000001
    55  H    0.999981
    56  H    0.999999
    57  H    1.000027
    58  H    1.000031
    59  H    1.000029
    60  H    1.000012
    61  H    1.000012
    62  H    1.000003
    63  H    0.999995
    64  H    0.999999
    65  H    1.000001
    66  H    1.000005
    67  H    0.999996
    68  H    0.999999
    69  H    0.999983
    70  H    0.999986
    71  H    1.000005
    72  H    0.999995
    73  H    0.999961
    74  H    0.999979
    75  H    0.999957
    76  H    0.999985
    77  H    1.000004
    78  H    0.999997
    79  H    0.999998
    80  Mg  11.999708
    81  C    6.007219
    82  C    5.980806
    83  C    5.992109
    84  C    6.022359
    85  N    6.992785
    86  C    5.972237
    87  C    6.013337
    88  C    5.989537
    89  C    6.036885
    90  C    5.998728
    91  C    6.001327
    92  C    6.004331
    93  H    0.988538
    94  N    6.994999
    95  C    6.046746
    96  C    6.012238
    97  C    6.018697
    98  C    6.028670
    99  C    5.994406
   100  C    6.013390
   101  O    8.020884
   102  C    5.996648
   103  N    7.013966
   104  C    6.023499
   105  C    5.992144
   106  C    6.007299
   107  C    5.964386
   108  C    5.998479
   109  C    6.002258
   110  C    6.000786
   111  N    6.999397
   112  C    5.958776
   113  C    5.978857
   114  C    5.990760
   115  C    5.976398
   116  C    6.001128
   117  C    5.982556
   118  O    7.970799
   119  C    5.998480
   120  C    5.994640
   121  O    7.994569
   122  O    7.996829
   123  C    6.002683
   124  H    1.008617
   125  H    1.007852
   126  H    0.993387
   127  H    0.997288
   128  H    1.002831
   129  H    1.002498
   130  H    1.012708
   131  H    0.995450
   132  H    0.988718
   133  H    1.007939
   134  H    1.002818
   135  H    0.996124
   136  H    1.017556
   137  H    1.014985
   138  H    1.017343
   139  H    1.011535
   140  H    1.012437
   141  H    1.008126
   142  H    1.001764
   143  H    0.999379
   144  H    0.999634
   145  H    0.996334
   146  H    1.009807
   147  H    1.004788
   148  H    0.991891
   149  H    1.003377
   150  H    0.996154
   151  H    0.996941
   152  H    0.987867
   153  H    0.979089
   154  H    0.983079
   155  H    0.990423
   156  H    0.994006
   157  H    0.996906
   158  H    0.995076
 Sum of Mulliken charges = 624.00000

 Dipole moment (field-independent basis, Debye):
    X=              3.6158    Y=              9.6339    Z=              1.8840  Tot=             10.4612
 Quadrupole moment (field-independent basis, Debye-Ang):
   XX=            226.8037   YY=              6.6964   ZZ=             -2.1664
   XY=            307.0136   XZ=             60.7376   YZ=             -0.0068

 Normal termination of Gaussian 16 at Thu Oct 14 22:28:27 2021.
