 Gaussian 16, Revision A.03,
 Gaussian 16:  ES64L-G16RevA.03 25-Dec-2016

 --------------------------------------------------------
 #p PBE1PBE/Def2SVP td=(nstates=5) density=(transition=1)
 --------------------------------------------------------

 --------------------------------
 TDDFT excited states in gaussian
 --------------------------------
 Symbolic Z-matrix:
 Charge =  0 Multiplicity = 1

                         Standard orientation:
 ---------------------------------------------------------------------
 Center     Atomic      Atomic             Coordinates (Angstroms)
 Number     Number       Type             X           Y           Z
 ---------------------------------------------------------------------
      1         12           0      -20.645424   -0.403335   -0.022809
      2          6           0      -19.807403    2.834484   -0.853643
      3          6           0      -20.295032    0.492412    3.260773
      4          6           0      -21.179088   -3.636800    0.792249
      5          6           0      -20.398382   -1.328407   -3.365315
      6          7           0      -19.958225    1.496187    1.016659
      7          6           0      -19.877477    2.670966    0.521811
      8          6           0      -19.653250    3.881233    1.567449
      9          6           0      -19.516434    3.012939    2.880064
     10          6           0      -19.865178    1.530824    2.382087
     11          6           0      -18.035105    2.979936    3.529422
     12          6           0      -20.820921    4.958920    1.626119
     13          6           0      -20.432155    6.439550    1.974275
     14          1           0      -19.037453    6.668328    2.473366
     15          7           0      -20.800894   -1.398929    1.722274
     16          6           0      -20.707096   -0.836888    3.055872
     17          6           0      -20.979949   -1.912902    4.002989
     18          6           0      -21.126666   -3.139145    3.307824
     19          6           0      -21.083232   -2.755148    1.878740
     20          6           0      -21.069462   -1.541113    5.439306
     21          6           0      -21.412078   -4.571192    3.817772
     22          8           0      -21.419344   -5.561621    3.149030
     23          6           0      -21.519681   -4.705089    5.350274
     24          7           0      -20.677129   -2.297027   -1.078420
     25          6           0      -20.903462   -3.464301   -0.564107
     26          6           0      -20.667489   -4.603838   -1.595614
     27          6           0      -20.530772   -3.858727   -2.945038
     28          6           0      -20.550625   -2.386615   -2.470430
     29          6           0      -19.432067   -5.448052   -1.216762
     30          6           0      -21.650112   -4.247790   -3.958881
     31          6           0      -21.529686   -5.662742   -4.547598
     32          7           0      -20.195131    0.535088   -1.804180
     33          6           0      -20.238577    0.035324   -3.093595
     34          6           0      -19.984987    1.146538   -3.972411
     35          6           0      -19.757501    2.308207   -3.175360
     36          6           0      -19.947847    1.822534   -1.852982
     37          6           0      -19.907630    1.064720   -5.384775
     38          6           0      -19.519096    3.715745   -3.132658
     39          8           0      -19.256210    4.499551   -4.092928
     40          6           0      -19.428878    4.071026   -1.597905
     41          6           0      -18.107719    4.610785   -1.357101
     42          8           0      -17.097798    3.928176   -1.187240
     43          8           0      -18.192779    5.970950   -1.512792
     44          6           0      -16.871995    6.633582   -1.552415
     45          1           0      -20.165589    0.741979    4.315523
     46          1           0      -21.374414   -4.657123    1.130775
     47          1           0      -20.402605   -1.657472   -4.406984
     48          1           0      -18.681010    4.283793    1.282064
     49          1           0      -20.186101    3.392737    3.651431
     50          1           0      -17.324110    3.277601    2.758197
     51          1           0      -17.807539    1.970824    3.872596
     52          1           0      -17.872339    3.621459    4.396094
     53          1           0      -21.466251    4.590141    2.422952
     54          1           0      -21.559349    4.916766    0.824725
     55          1           0      -21.091743    6.906808    2.705416
     56          1           0      -20.462155    7.036467    1.062696
     57          1           0      -20.078471   -1.521537    5.893700
     58          1           0      -21.823766   -2.111802    5.981192
     59          1           0      -21.470089   -0.528355    5.476130
     60          1           0      -22.446423   -4.319660    5.776500
     61          1           0      -20.642548   -4.145832    5.674233
     62          1           0      -21.379912   -5.708845    5.750465
     63          1           0      -21.604077   -5.158808   -1.547205
     64          1           0      -19.542049   -4.043476   -3.364967
     65          1           0      -18.687624   -4.946703   -0.597866
     66          1           0      -18.782415   -5.795231   -2.020892
     67          1           0      -19.828479   -6.309604   -0.679543
     68          1           0      -21.601348   -3.570254   -4.810205
     69          1           0      -22.627976   -4.130368   -3.490650
     70          1           0      -20.702671   -6.159993   -4.040738
     71          1           0      -21.128693   -5.588771   -5.558567
     72          1           0      -22.421685   -6.285259   -4.613427
     73          1           0      -20.754409    0.439006   -5.667080
     74          1           0      -19.018283    0.585200   -5.793378
     75          1           0      -19.883321    2.077423   -5.788514
     76          1           0      -20.163839    4.869316   -1.491330
     77          1           0      -16.389970    6.289094   -2.467770
     78          1           0      -16.315134    6.487848   -0.627390
     79          1           0      -17.051891    7.704490   -1.648005
     80         12           0       19.585683   -0.732968   -0.179372
     81          6           0       21.553256    2.122355   -0.470910
     82          6           0       17.498887    0.897336    1.903610
     83          6           0       18.010542   -3.669171    0.389065
     84          6           0       22.020414   -2.453681   -1.911718
     85          7           0       19.574423    1.327661    0.636127
     86          6           0       20.360009    2.367332    0.207764
     87          6           0       19.910748    3.639641    0.819403
     88          6           0       18.654656    3.311030    1.634642
     89          6           0       18.501546    1.746657    1.399620
     90          6           0       18.593978    3.730015    3.095354
     91          6           0       19.688283    4.798562   -0.309096
     92          6           0       20.566220    6.068653   -0.217678
     93          1           0       19.986309    7.432428   -0.501792
     94          7           0       17.914082   -1.285102    0.882293
     95          6           0       17.173304   -0.460276    1.715452
     96          6           0       16.141605   -1.211413    2.332890
     97          6           0       16.267462   -2.562683    1.910718
     98          6           0       17.421292   -2.547219    1.005696
     99          6           0       15.066622   -0.440069    3.194215
    100          6           0       15.407177   -3.724660    2.404267
    101          8           0       15.564982   -4.915958    2.097153
    102          6           0       14.240555   -3.454191    3.248878
    103          7           0       20.046037   -2.846975   -0.460089
    104          6           0       19.209103   -3.842788   -0.254315
    105          6           0       19.856408   -5.195968   -0.625831
    106          6           0       20.830527   -4.659035   -1.747269
    107          6           0       20.973441   -3.186885   -1.374168
    108          6           0       20.652523   -6.027778    0.446811
    109          6           0       20.360119   -4.843108   -3.269196
    110          6           0       19.092984   -4.216675   -3.686351
    111          7           0       21.514171   -0.341836   -1.041616
    112          6           0       22.409075   -1.167316   -1.750222
    113          6           0       23.548893   -0.401543   -2.142882
    114          6           0       23.314419    0.856987   -1.625817
    115          6           0       22.001237    0.866906   -1.051307
    116          6           0       24.789841   -0.919784   -2.685250
    117          6           0       23.763655    2.168720   -1.656855
    118          8           0       24.784629    2.677064   -2.131445
    119          6           0       22.723479    3.060279   -0.837024
    120          6           0       23.439567    3.456691    0.411629
    121          8           0       23.935091    2.799519    1.302875
    122          8           0       23.481490    4.789742    0.375798
    123          6           0       24.132377    5.458944    1.549428
    124          1           0       16.785957    1.580045    2.370561
    125          1           0       17.382915   -4.557904    0.474440
    126          1           0       22.750002   -2.997240   -2.515273
    127          1           0       20.728472    3.934712    1.475774
    128          1           0       17.790303    3.760400    1.146203
    129          1           0       18.943017    2.782256    3.503569
    130          1           0       17.623922    4.081111    3.447688
    131          1           0       19.264541    4.505899    3.463744
    132          1           0       18.636938    5.084734   -0.311453
    133          1           0       19.944718    4.479804   -1.319724
    134          1           0       21.323475    5.964119   -0.995223
    135          1           0       21.139454    6.104195    0.707781
    136          1           0       14.997866   -0.921711    4.169426
    137          1           0       14.199400   -0.720333    2.596195
    138          1           0       15.251924    0.605620    3.439978
    139          1           0       14.527663   -2.920866    4.154038
    140          1           0       13.965622   -4.416172    3.680784
    141          1           0       13.383395   -3.019265    2.734216
    142          1           0       19.129872   -5.774079   -1.196999
    143          1           0       21.730631   -5.257399   -1.608327
    144          1           0       21.276143   -5.449133    1.127198
    145          1           0       21.235990   -6.707120   -0.175649
    146          1           0       19.969744   -6.600522    1.074965
    147          1           0       20.225201   -5.886427   -3.555528
    148          1           0       21.005579   -4.288662   -3.950363
    149          1           0       19.380158   -3.182540   -3.871377
    150          1           0       18.256780   -4.186604   -2.987147
    151          1           0       18.625875   -4.554376   -4.610899
    152          1           0       25.334708   -1.252206   -1.800864
    153          1           0       25.401093   -0.200171   -3.229122
    154          1           0       24.643917   -1.693893   -3.439413
    155          1           0       22.318678    3.892713   -1.412701
    156          1           0       23.299613    5.877819    2.114804
    157          1           0       24.840948    6.208611    1.197982
    158          1           0       24.666929    4.823694    2.256255
 ---------------------------------------------------------------------

 SCF Done:  E(RPBE1PBE) =  -4067.36845721     A.U. after   16 cycles

 Excitation energies and oscillator strengths:

 Excited State   1:      Singlet-A      1.8587 eV  667.05 nm  f=0.3478  <S**2>=0.000
     309 -> 315       -0.16384
     311 -> 313        0.69253
     311 <- 313       -0.10764
 This state for optimization and/or second-order correction.
 Total Energy, E(TD-HF/TD-DFT) =  -4067.30015124
 Copying the excited state density for this state as the 1-particle RhoCI density.

 Excited State   2:      Singlet-A      1.9096 eV  649.28 nm  f=0.3730  <S**2>=0.000
     310 -> 316        0.19433
     312 -> 314        0.68534

 Excited State   3:      Singlet-A      1.9294 eV  642.61 nm  f=0.0000  <S**2>=0.000
     312 -> 313        0.70711

 Excited State   4:      Singlet-A      2.1223 eV  584.18 nm  f=0.0000  <S**2>=0.000
     311 -> 314        0.70711

 Excited State   5:      Singlet-A      2.1770 eV  569.52 nm  f=0.1421  <S**2>=0.000
     309 -> 313        0.66023
     311 -> 315        0.23474

 The electronic state is 1-A.
 Alpha  occ. eigenvalues --  -46.92731 -46.91834 -19.25685 -19.25484 -19.20211
 Alpha  occ. eigenvalues --  -19.19566 -19.19303 -19.18902 -19.18689 -19.18469
 Alpha  occ. eigenvalues --  -14.41635 -14.41622 -14.41219 -14.41097 -14.39381
 Alpha  occ. eigenvalues --  -14.39347 -14.38686 -14.38611 -10.35605 -10.35570
 Alpha  occ. eigenvalues --  -10.33264 -10.32210 -10.32070 -10.31276 -10.29478
 Alpha  occ. eigenvalues --  -10.29210 -10.28932 -10.28910 -10.28513 -10.28417
 Alpha  occ. eigenvalues --  -10.28366 -10.28222 -10.28195 -10.28141 -10.28011
 Alpha  occ. eigenvalues --  -10.28006 -10.27832 -10.27513 -10.26908 -10.26857
 Alpha  occ. eigenvalues --  -10.26796 -10.26779 -10.26761 -10.26716 -10.26624
 Alpha  occ. eigenvalues --  -10.26433 -10.26370 -10.26351 -10.26031 -10.25810
 Alpha  occ. eigenvalues --  -10.25806 -10.25676 -10.25625 -10.25624 -10.25538
 Alpha  occ. eigenvalues --  -10.25462 -10.25412 -10.25400 -10.25340 -10.25314
 Alpha  occ. eigenvalues --  -10.25262 -10.25129 -10.25018 -10.24992 -10.24908
 Alpha  occ. eigenvalues --  -10.24810 -10.24726 -10.24452 -10.24414 -10.24253
 Alpha  occ. eigenvalues --  -10.24009 -10.23978 -10.23965 -10.23746 -10.23611
 Alpha  occ. eigenvalues --  -10.23445 -10.23401 -10.23373 -10.23144 -10.22999
 Alpha  occ. eigenvalues --  -10.22882 -10.22863 -10.22423 -10.22339 -10.22234
 Alpha  occ. eigenvalues --  -10.22118  -3.14724  -3.14024  -1.87568  -1.87076
 Alpha  occ. eigenvalues --   -1.86963  -1.86859  -1.86404  -1.86252  -1.11778
 Alpha  occ. eigenvalues --   -1.10305  -1.07130  -1.03853  -1.03296  -1.02170
 Alpha  occ. eigenvalues --   -1.02060  -1.01617  -1.00033  -1.00032  -0.99002
 Alpha  occ. eigenvalues --   -0.98927  -0.98293  -0.98057  -0.97315  -0.95357
 Alpha  occ. eigenvalues --   -0.86971  -0.86557  -0.83629  -0.83518  -0.83039
 Alpha  occ. eigenvalues --   -0.82693  -0.82613  -0.82266  -0.82059  -0.81943
 Alpha  occ. eigenvalues --   -0.81846  -0.81332  -0.81159  -0.81122  -0.78943
 Alpha  occ. eigenvalues --   -0.78538  -0.78227  -0.77746  -0.77366  -0.76596
 Alpha  occ. eigenvalues --   -0.76244  -0.75839  -0.75837  -0.75387  -0.75084
 Alpha  occ. eigenvalues --   -0.74607  -0.73081  -0.72781  -0.71975  -0.71731
 Alpha  occ. eigenvalues --   -0.71710  -0.70695  -0.70298  -0.70069  -0.69695
 Alpha  occ. eigenvalues --   -0.69198  -0.67922  -0.66721  -0.66142  -0.65924
 Alpha  occ. eigenvalues --   -0.63777  -0.63769  -0.63474  -0.63163  -0.62693
 Alpha  occ. eigenvalues --   -0.62166  -0.61575  -0.61367  -0.60272  -0.60215
 Alpha  occ. eigenvalues --   -0.59913  -0.59823  -0.59328  -0.59321  -0.58658
 Alpha  occ. eigenvalues --   -0.58488  -0.56620  -0.56168  -0.55010  -0.54498
 Alpha  occ. eigenvalues --   -0.54488  -0.53994  -0.53882  -0.53710  -0.53258
 Alpha  occ. eigenvalues --   -0.52922  -0.52823  -0.52483  -0.52377  -0.52176
 Alpha  occ. eigenvalues --   -0.51038  -0.50564  -0.50254  -0.50197  -0.50098
 Alpha  occ. eigenvalues --   -0.49791  -0.49621  -0.49349  -0.49193  -0.49125
 Alpha  occ. eigenvalues --   -0.48591  -0.47903  -0.47883  -0.47815  -0.47674
 Alpha  occ. eigenvalues --   -0.47448  -0.47384  -0.47282  -0.47179  -0.46774
 Alpha  occ. eigenvalues --   -0.46733  -0.46500  -0.46489  -0.45974  -0.45851
 Alpha  occ. eigenvalues --   -0.45685  -0.45615  -0.45462  -0.45310  -0.44988
 Alpha  occ. eigenvalues --   -0.44831  -0.44418  -0.44320  -0.44122  -0.44114
 Alpha  occ. eigenvalues --   -0.43831  -0.43734  -0.43601  -0.43597  -0.43167
 Alpha  occ. eigenvalues --   -0.43154  -0.43112  -0.42976  -0.42817  -0.42721
 Alpha  occ. eigenvalues --   -0.42493  -0.42473  -0.41978  -0.41772  -0.41680
 Alpha  occ. eigenvalues --   -0.41531  -0.41398  -0.41298  -0.41167  -0.41034
 Alpha  occ. eigenvalues --   -0.40977  -0.40753  -0.40735  -0.40526  -0.40398
 Alpha  occ. eigenvalues --   -0.40076  -0.39927  -0.39709  -0.39408  -0.39211
 Alpha  occ. eigenvalues --   -0.39136  -0.39090  -0.39006  -0.38942  -0.38852
 Alpha  occ. eigenvalues --   -0.38534  -0.38515  -0.38220  -0.38179  -0.38044
 Alpha  occ. eigenvalues --   -0.37904  -0.37799  -0.37760  -0.37602  -0.37516
 Alpha  occ. eigenvalues --   -0.37298  -0.37137  -0.37025  -0.36948  -0.36715
 Alpha  occ. eigenvalues --   -0.36634  -0.36500  -0.36431  -0.36309  -0.36091
 Alpha  occ. eigenvalues --   -0.35950  -0.35794  -0.35579  -0.35502  -0.35167
 Alpha  occ. eigenvalues --   -0.35096  -0.34696  -0.34374  -0.34338  -0.33879
 Alpha  occ. eigenvalues --   -0.33192  -0.33056  -0.33044  -0.32960  -0.32686
 Alpha  occ. eigenvalues --   -0.32632  -0.32038  -0.31984  -0.31508  -0.31415
 Alpha  occ. eigenvalues --   -0.31372  -0.31175  -0.29680  -0.29582  -0.29198
 Alpha  occ. eigenvalues --   -0.29113  -0.28983  -0.28606  -0.27108  -0.26980
 Alpha  occ. eigenvalues --   -0.26265  -0.26173  -0.25794  -0.25793  -0.25727
 Alpha  occ. eigenvalues --   -0.25408  -0.25236  -0.24978  -0.20968  -0.20633
 Alpha  occ. eigenvalues --   -0.19076  -0.18854
 Alpha virt. eigenvalues --   -0.11436  -0.10949  -0.05162  -0.05158  -0.04240
 Alpha virt. eigenvalues --   -0.03917  -0.02294  -0.02126  -0.00600  -0.00133
 Alpha virt. eigenvalues --    0.00857   0.01035   0.01489   0.01927   0.02366

 Mulliken charges:
               1
     1  Mg  11.999995
     2  C    5.999923
     3  C    6.000056
     4  C    6.000007
     5  C    5.999983
     6  N    7.000024
     7  C    6.000109
     8  C    5.999926
     9  C    6.000066
    10  C    5.999863
    11  C    6.000011
    12  C    5.999961
    13  C    6.000024
    14  H    0.999923
    15  N    7.000087
    16  C    5.999831
    17  C    5.999907
    18  C    5.999895
    19  C    5.999926
    20  C    5.999991
    21  C    5.999958
    22  O    7.999947
    23  C    6.000005
    24  N    7.000040
    25  C    5.999876
    26  C    6.000040
    27  C    5.999938
    28  C    6.000110
    29  C    6.000028
    30  C    5.999967
    31  C    6.000008
    32  N    6.999949
    33  C    6.000145
    34  C    6.000059
    35  C    5.999997
    36  C    6.000092
    37  C    6.000023
    38  C    6.000133
    39  O    8.000085
    40  C    6.000019
    41  C    6.000034
    42  O    7.999944
    43  O    8.000021
    44  C    6.000011
    45  H    0.999938
    46  H    0.999999
    47  H    1.000055
    48  H    0.999962
    49  H    1.000011
    50  H    0.999904
    51  H    0.999959
    52  H    0.999947
    53  H    1.000057
    54  H    1.000045
    55  H    1.000048
    56  H    1.000014
    57  H    0.999883
    58  H    0.999986
    59  H    0.999992
    60  H    1.000023
    61  H    0.999935
    62  H    0.999953
    63  H    1.000057
    64  H    0.999973
    65  H    0.999934
    66  H    0.999947
    67  H    1.000025
    68  H    1.000019
    69  H    1.000067
    70  H    0.999977
    71  H    1.000020
    72  H    1.000071
    73  H    1.000102
    74  H    1.000056
    75  H    1.000074
    76  H    1.000055
    77  H    0.999981
    78  H    0.999948
    79  H    1.000045
    80  Mg  12.003033
    81  C    6.029963
    82  C    6.002748
    83  C    5.970067
    84  C    5.983038
    85  N    7.020590
    86  C    5.967985
    87  C    6.010400
    88  C    5.995543
    89  C    6.022126
    90  C    5.997677
    91  C    6.001594
    92  C    6.000132
    93  H    0.997214
    94  N    6.993928
    95  C    6.032535
    96  C    6.018509
    97  C    6.012939
    98  C    6.033899
    99  C    6.000588
   100  C    6.011779
   101  O    8.028132
   102  C    5.992217
   103  N    6.977113
   104  C    6.037485
   105  C    5.991102
   106  C    6.008975
   107  C    5.980944
   108  C    6.001119
   109  C    6.008843
   110  C    5.999095
   111  N    7.004057
   112  C    5.974196
   113  C    5.970781
   114  C    5.995234
   115  C    5.972212
   116  C    6.002873
   117  C    5.988028
   118  O    7.966872
   119  C    5.998447
   120  C    5.996103
   121  O    7.997663
   122  O    7.998910
   123  C    6.001699
   124  H    1.014490
   125  H    1.000534
   126  H    0.985059
   127  H    1.001496
   128  H    1.003082
   129  H    0.999409
   130  H    1.001690
   131  H    1.012946
   132  H    0.993697
   133  H    1.004910
   134  H    1.005682
   135  H    0.999985
   136  H    1.016131
   137  H    1.014010
   138  H    1.013405
   139  H    1.004775
   140  H    1.012900
   141  H    1.008281
   142  H    0.997772
   143  H    0.994963
   144  H    1.003362
   145  H    1.005980
   146  H    0.993685
   147  H    0.989738
   148  H    1.003118
   149  H    1.006018
   150  H    0.984795
   151  H    0.995332
   152  H    0.980834
   153  H    0.985015
   154  H    0.984977
   155  H    0.993154
   156  H    0.993614
   157  H    0.998592
   158  H    0.998182
 Sum of Mulliken charges = 624.00000

 Dipole moment (field-independent basis, Debye):
    X=             -8.3916    Y=             -0.6791    Z=              5.2745  Tot=              9.9348
 Quadrupole moment (field-independent basis, Debye-Ang):
   XX=           -333.0148   YY=              0.3749   ZZ=              0.8545
   XY=             -8.1874   XZ=            104.3042   YZ=             -5.4173

 Normal termination of Gaussian 16 at Fri Oct 15 09:43:25 2021.
