 Gaussian 16, Revision A.03,
 Gaussian 16:  ES64L-G16RevA.03 25-Dec-2016

 --------------------------------------------------------
 #p PBE1PBE/Def2SVP td=(nstates=5) density=(transition=1)
 --------------------------------------------------------

 --------------------------------
 TDDFT excited states in gaussian
 --------------------------------
 Symbolic Z-matrix:
 Charge =  0 Multiplicity = 1

                         Standard orientation:
 ---------------------------------------------------------------------
 Center     Atomic      Atomic             Coordinates (Angstroms)
 Number     Number       Type             X           Y           Z
 ---------------------------------------------------------------------
      1         12           0      -17.866746   -0.781189    0.084411
      2          6           0      -17.256326    2.710704   -0.451343
      3          6           0      -17.449394   -0.212717    3.459939
      4          6           0      -17.801812   -4.025166    0.468602
      5          6           0      -18.025935   -1.114376   -3.361467
      6          7           0      -17.112426    1.054541    1.367526
      7          6           0      -17.070354    2.334645    0.885155
      8          6           0      -17.021240    3.333649    2.072159
      9          6           0      -17.021435    2.393359    3.349330
     10          6           0      -17.183177    0.954051    2.737611
     11          6           0      -15.757267    2.442400    4.306758
     12          6           0      -18.184770    4.359647    2.120478
     13          6           0      -17.846522    5.779208    2.407689
     14          1           0      -16.493425    6.233224    3.077158
     15          7           0      -17.641274   -2.021751    1.765384
     16          6           0      -17.615924   -1.625652    3.102344
     17          6           0      -17.475884   -2.824497    3.951023
     18          6           0      -17.697135   -3.950314    3.068072
     19          6           0      -17.713936   -3.366558    1.706667
     20          6           0      -17.242243   -2.835152    5.431399
     21          6           0      -17.848891   -5.460537    3.366463
     22          8           0      -18.334914   -6.300491    2.579982
     23          6           0      -17.554966   -5.915152    4.739419
     24          7           0      -17.847795   -2.277826   -1.237285
     25          6           0      -17.748880   -3.577730   -0.792068
     26          6           0      -18.002917   -4.586859   -1.945999
     27          6           0      -18.444898   -3.597970   -3.113751
     28          6           0      -18.104747   -2.231178   -2.545327
     29          6           0      -16.828302   -5.565821   -2.356101
     30          6           0      -19.897781   -3.657984   -3.558020
     31          6           0      -20.134807   -4.150784   -5.000946
     32          7           0      -17.876818    0.520087   -1.581552
     33          6           0      -17.919856    0.227720   -2.924238
     34          6           0      -17.765410    1.458292   -3.711075
     35          6           0      -17.564240    2.441418   -2.758516
     36          6           0      -17.636648    1.834020   -1.485048
     37          6           0      -17.740538    1.632061   -5.193807
     38          6           0      -17.361428    3.840564   -2.640350
     39          8           0      -17.374077    4.774341   -3.492068
     40          6           0      -17.154389    4.074869   -1.204033
     41          6           0      -15.874149    4.833677   -0.981328
     42          8           0      -14.784007    4.397437   -1.129377
     43          8           0      -16.144692    6.055563   -0.522776
     44          6           0      -15.124404    7.048247   -0.532564
     45          1           0      -17.320062   -0.124483    4.540803
     46          1           0      -17.838565   -5.117115    0.445925
     47          1           0      -17.999438   -1.241449   -4.444969
     48          1           0      -16.077975    3.871165    1.968232
     49          1           0      -17.899961    2.598393    3.960354
     50          1           0      -15.042333    3.237102    4.095486
     51          1           0      -15.202677    1.517992    4.139054
     52          1           0      -16.071031    2.472846    5.350620
     53          1           0      -18.927181    4.122509    2.883406
     54          1           0      -18.728634    4.424675    1.178535
     55          1           0      -18.562701    6.190345    3.119779
     56          1           0      -17.936642    6.327455    1.470332
     57          1           0      -16.360776   -3.436129    5.653816
     58          1           0      -18.114893   -3.315426    5.874038
     59          1           0      -17.273036   -1.828635    5.849902
     60          1           0      -16.499814   -5.719010    4.930158
     61          1           0      -17.678712   -6.997582    4.716054
     62          1           0      -18.275801   -5.532514    5.461462
     63          1           0      -18.875066   -5.163926   -1.637015
     64          1           0      -17.823593   -3.836608   -3.976904
     65          1           0      -15.957131   -5.390403   -1.725934
     66          1           0      -16.604794   -5.543599   -3.423397
     67          1           0      -17.192910   -6.582251   -2.206813
     68          1           0      -20.503417   -2.771279   -3.370244
     69          1           0      -20.382824   -4.406825   -2.932749
     70          1           0      -20.861280   -3.600252   -5.598317
     71          1           0      -20.664168   -5.100580   -4.920390
     72          1           0      -19.244419   -4.223470   -5.624006
     73          1           0      -18.162994    0.777654   -5.723375
     74          1           0      -16.711622    1.622766   -5.553162
     75          1           0      -18.162282    2.616701   -5.395212
     76          1           0      -18.002063    4.676413   -0.876918
     77          1           0      -15.005293    7.350142   -1.574083
     78          1           0      -14.160128    6.619333   -0.259569
     79          1           0      -15.427030    7.930164    0.032633
     80         12           0       17.746207   -0.740444    0.312131
     81          6           0       15.672706    2.065277    0.477988
     82          6           0       20.455130    1.485563    0.279640
     83          6           0       19.828804   -3.260494   -0.402798
     84          6           0       15.031090   -2.612561   -0.671037
     85          7           0       18.066825    1.574297    0.481245
     86          6           0       17.014544    2.435149    0.473036
     87          6           0       17.522348    3.931299    0.494935
     88          6           0       19.085707    3.712737    0.170501
     89          6           0       19.235209    2.184957    0.264078
     90          6           0       19.314302    4.129131   -1.325948
     91          6           0       17.319423    4.473515    1.957422
     92          6           0       17.866406    5.891557    2.276451
     93          1           0       18.635027    6.357663    3.477001
     94          7           0       19.830445   -0.869899    0.191258
     95          6           0       20.812132    0.133959    0.238709
     96          6           0       22.062102   -0.479812    0.072036
     97          6           0       21.920409   -1.861002    0.062916
     98          6           0       20.483185   -2.051490   -0.042325
     99          6           0       23.312189    0.335759    0.127892
    100          6           0       22.989415   -3.000065   -0.020421
    101          8           0       22.737544   -4.200188   -0.006094
    102          6           0       24.489985   -2.715835    0.088398
    103          7           0       17.453453   -2.608898   -0.539990
    104          6           0       18.461942   -3.507625   -0.589788
    105          6           0       17.995864   -4.942955   -0.902787
    106          6           0       16.476139   -4.708995   -1.127426
    107          6           0       16.252811   -3.283343   -0.655793
    108          6           0       18.821266   -5.666094   -2.018315
    109          6           0       15.497628   -5.735633   -0.493927
    110          6           0       15.295671   -5.639584    0.958785
    111          7           0       15.734995   -0.428424    0.050127
    112          6           0       14.777183   -1.239857   -0.334276
    113          6           0       13.457685   -0.603836   -0.263315
    114          6           0       13.817395    0.739870    0.074840
    115          6           0       15.189705    0.808279    0.215291
    116          6           0       12.145709   -1.221391   -0.120411
    117          6           0       13.243450    2.043817    0.357559
    118          8           0       12.089300    2.392647    0.461074
    119          6           0       14.463177    2.952066    0.554974
    120          6           0       14.450544    4.139043   -0.413964
    121          8           0       14.770475    4.073277   -1.572354
    122          8           0       13.950561    5.245796    0.229586
    123          6           0       13.915132    6.441671   -0.643461
    124          1           0       21.290550    2.176928    0.401423
    125          1           0       20.460881   -4.150768   -0.432192
    126          1           0       14.346360   -3.439057   -0.868931
    127          1           0       17.073098    4.537003   -0.292495
    128          1           0       19.766379    4.260653    0.823287
    129          1           0       19.457608    3.319250   -2.040532
    130          1           0       20.296023    4.581419   -1.468648
    131          1           0       18.534483    4.774577   -1.729648
    132          1           0       17.757729    3.741705    2.635442
    133          1           0       16.250962    4.420803    2.168246
    134          1           0       17.004417    6.541021    2.121106
    135          1           0       18.587699    6.007860    1.468500
    136          1           0       23.170475    1.411495    0.235256
    137          1           0       23.950274    0.024075   -0.700165
    138          1           0       23.787548    0.009655    1.053390
    139          1           0       24.894977   -2.162037   -0.758661
    140          1           0       25.103564   -3.589148    0.310210
    141          1           0       24.622183   -2.128408    0.997191
    142          1           0       18.222241   -5.375323    0.071448
    143          1           0       16.370050   -4.698323   -2.212201
    144          1           0       19.848491   -5.303715   -2.040605
    145          1           0       18.367298   -5.462795   -2.988559
    146          1           0       18.892504   -6.742410   -1.860206
    147          1           0       15.985087   -6.676856   -0.746110
    148          1           0       14.555535   -5.731561   -1.042488
    149          1           0       14.544903   -4.878528    1.170894
    150          1           0       16.237814   -5.455885    1.474867
    151          1           0       14.860780   -6.550956    1.370193
    152          1           0       12.346125   -2.194099    0.329404
    153          1           0       11.571306   -1.487156   -1.007981
    154          1           0       11.557238   -0.553356    0.507612
    155          1           0       14.443791    3.311590    1.584320
    156          1           0       13.038281    7.032638   -0.379575
    157          1           0       13.703952    6.260672   -1.697592
    158          1           0       14.787477    7.072742   -0.476708
 ---------------------------------------------------------------------

 SCF Done:  E(RPBE1PBE) =  -4067.38765088     A.U. after   16 cycles

 Excitation energies and oscillator strengths:

 Excited State   1:      Singlet-A      1.8640 eV  665.15 nm  f=0.4041  <S**2>=0.000
     309 -> 315        0.17335
     311 -> 313        0.69405
     311 <- 313       -0.11114
 This state for optimization and/or second-order correction.
 Total Energy, E(TD-HF/TD-DFT) =  -4067.31914974
 Copying the excited state density for this state as the 1-particle RhoCI density.

 Excited State   2:      Singlet-A      1.8847 eV  657.86 nm  f=0.3810  <S**2>=0.000
     310 -> 316       -0.17976
     312 -> 314        0.69127
     312 <- 314       -0.10355

 Excited State   3:      Singlet-A      1.8847 eV  657.86 nm  f=0.0000  <S**2>=0.000
     312 -> 313        0.70711

 Excited State   4:      Singlet-A      2.0799 eV  596.10 nm  f=0.0000  <S**2>=0.000
     311 -> 314        0.70710

 Excited State   5:      Singlet-A      2.2040 eV  562.53 nm  f=0.1202  <S**2>=0.000
     309 -> 313        0.66067
     311 -> 315       -0.24059

 The electronic state is 1-A.
 Alpha  occ. eigenvalues --  -46.92273 -46.92111 -19.26442 -19.25494 -19.20619
 Alpha  occ. eigenvalues --  -19.19694 -19.19512 -19.19099 -19.18992 -19.18959
 Alpha  occ. eigenvalues --  -14.41550 -14.41500 -14.41126 -14.40736 -14.39309
 Alpha  occ. eigenvalues --  -14.39188 -14.38828 -14.38765 -10.36788 -10.35872
 Alpha  occ. eigenvalues --  -10.33191 -10.32268 -10.31692 -10.31544 -10.29227
 Alpha  occ. eigenvalues --  -10.29044 -10.28849 -10.28668 -10.28596 -10.28515
 Alpha  occ. eigenvalues --  -10.28481 -10.28224 -10.28215 -10.27925 -10.27824
 Alpha  occ. eigenvalues --  -10.27800 -10.27550 -10.27485 -10.27445 -10.27136
 Alpha  occ. eigenvalues --  -10.26710 -10.26687 -10.26440 -10.26405 -10.26188
 Alpha  occ. eigenvalues --  -10.26101 -10.26058 -10.26045 -10.25826 -10.25775
 Alpha  occ. eigenvalues --  -10.25720 -10.25624 -10.25606 -10.25586 -10.25468
 Alpha  occ. eigenvalues --  -10.25390 -10.25380 -10.25256 -10.25249 -10.25080
 Alpha  occ. eigenvalues --  -10.25075 -10.24965 -10.24957 -10.24652 -10.24573
 Alpha  occ. eigenvalues --  -10.24548 -10.24265 -10.24264 -10.24259 -10.23839
 Alpha  occ. eigenvalues --  -10.23837 -10.23782 -10.23656 -10.23515 -10.23488
 Alpha  occ. eigenvalues --  -10.23409 -10.23405 -10.23269 -10.23068 -10.22982
 Alpha  occ. eigenvalues --  -10.22889 -10.22869 -10.22838 -10.22576 -10.22563
 Alpha  occ. eigenvalues --  -10.22140  -3.14429  -3.14252  -1.87252  -1.87079
 Alpha  occ. eigenvalues --   -1.86818  -1.86651  -1.86641  -1.86462  -1.13271
 Alpha  occ. eigenvalues --   -1.11585  -1.05100  -1.05000  -1.04388  -1.03597
 Alpha  occ. eigenvalues --   -1.03190  -1.02508  -0.99764  -0.99310  -0.98342
 Alpha  occ. eigenvalues --   -0.98332  -0.97970  -0.97207  -0.97008  -0.96503
 Alpha  occ. eigenvalues --   -0.88242  -0.87748  -0.83726  -0.83442  -0.82785
 Alpha  occ. eigenvalues --   -0.82704  -0.82665  -0.82428  -0.81864  -0.81717
 Alpha  occ. eigenvalues --   -0.81539  -0.81262  -0.80622  -0.80597  -0.78808
 Alpha  occ. eigenvalues --   -0.78293  -0.77983  -0.77770  -0.76839  -0.76666
 Alpha  occ. eigenvalues --   -0.76318  -0.75998  -0.75708  -0.75150  -0.74822
 Alpha  occ. eigenvalues --   -0.74682  -0.72728  -0.72651  -0.71968  -0.71916
 Alpha  occ. eigenvalues --   -0.71424  -0.70933  -0.70573  -0.70449  -0.69579
 Alpha  occ. eigenvalues --   -0.69161  -0.67514  -0.66977  -0.66195  -0.65938
 Alpha  occ. eigenvalues --   -0.64381  -0.63702  -0.63611  -0.63362  -0.62782
 Alpha  occ. eigenvalues --   -0.61836  -0.61345  -0.60734  -0.60332  -0.59831
 Alpha  occ. eigenvalues --   -0.59412  -0.59213  -0.59203  -0.58943  -0.58934
 Alpha  occ. eigenvalues --   -0.58581  -0.57480  -0.57094  -0.54706  -0.54529
 Alpha  occ. eigenvalues --   -0.54449  -0.54029  -0.53910  -0.53879  -0.53456
 Alpha  occ. eigenvalues --   -0.53039  -0.52882  -0.52768  -0.52337  -0.51925
 Alpha  occ. eigenvalues --   -0.51051  -0.50844  -0.50707  -0.50179  -0.50123
 Alpha  occ. eigenvalues --   -0.49777  -0.49613  -0.49468  -0.49203  -0.48543
 Alpha  occ. eigenvalues --   -0.48295  -0.47949  -0.47800  -0.47722  -0.47606
 Alpha  occ. eigenvalues --   -0.47563  -0.47288  -0.47282  -0.46936  -0.46820
 Alpha  occ. eigenvalues --   -0.46726  -0.46175  -0.46099  -0.45903  -0.45792
 Alpha  occ. eigenvalues --   -0.45701  -0.45603  -0.45361  -0.44722  -0.44710
 Alpha  occ. eigenvalues --   -0.44581  -0.44524  -0.44344  -0.44160  -0.44037
 Alpha  occ. eigenvalues --   -0.43849  -0.43806  -0.43679  -0.43522  -0.43434
 Alpha  occ. eigenvalues --   -0.43373  -0.43229  -0.42947  -0.42941  -0.42903
 Alpha  occ. eigenvalues --   -0.42531  -0.42374  -0.42154  -0.42071  -0.41770
 Alpha  occ. eigenvalues --   -0.41517  -0.41469  -0.41324  -0.40900  -0.40865
 Alpha  occ. eigenvalues --   -0.40826  -0.40720  -0.40586  -0.40554  -0.40415
 Alpha  occ. eigenvalues --   -0.40099  -0.40033  -0.39832  -0.39730  -0.39511
 Alpha  occ. eigenvalues --   -0.39445  -0.39242  -0.39181  -0.39062  -0.39045
 Alpha  occ. eigenvalues --   -0.38836  -0.38636  -0.38431  -0.38429  -0.38286
 Alpha  occ. eigenvalues --   -0.38166  -0.37979  -0.37963  -0.37717  -0.37575
 Alpha  occ. eigenvalues --   -0.37391  -0.37373  -0.37248  -0.37148  -0.36815
 Alpha  occ. eigenvalues --   -0.36775  -0.36629  -0.36566  -0.36477  -0.36268
 Alpha  occ. eigenvalues --   -0.36095  -0.35793  -0.35585  -0.35162  -0.35129
 Alpha  occ. eigenvalues --   -0.34925  -0.34607  -0.34546  -0.33905  -0.33844
 Alpha  occ. eigenvalues --   -0.33391  -0.33170  -0.32837  -0.32806  -0.32679
 Alpha  occ. eigenvalues --   -0.32245  -0.31960  -0.31795  -0.31401  -0.31337
 Alpha  occ. eigenvalues --   -0.31210  -0.30867  -0.29795  -0.29491  -0.29451
 Alpha  occ. eigenvalues --   -0.29218  -0.28719  -0.28462  -0.27061  -0.26935
 Alpha  occ. eigenvalues --   -0.26094  -0.25994  -0.25877  -0.25733  -0.25647
 Alpha  occ. eigenvalues --   -0.25525  -0.25290  -0.24974  -0.20976  -0.20709
 Alpha  occ. eigenvalues --   -0.18899  -0.18646
 Alpha virt. eigenvalues --   -0.11343  -0.10884  -0.05013  -0.04837  -0.04324
 Alpha virt. eigenvalues --   -0.03772  -0.02357  -0.02096  -0.00562  -0.00483
 Alpha virt. eigenvalues --    0.00564   0.01213   0.01352   0.01692   0.01771

 Mulliken charges:
               1
     1  Mg  11.999893
     2  C    6.019846
     3  C    5.996589
     4  C    5.972939
     5  C    6.003067
     6  N    7.006241
     7  C    5.970993
     8  C    6.009508
     9  C    5.994123
    10  C    6.024887
    11  C    5.997853
    12  C    6.002157
    13  C    6.000903
    14  H    0.995095
    15  N    6.996473
    16  C    6.039745
    17  C    6.019646
    18  C    6.013576
    19  C    6.032992
    20  C    5.997394
    21  C    6.014967
    22  O    8.029488
    23  C    5.992680
    24  N    6.992592
    25  C    6.035974
    26  C    5.987988
    27  C    6.008267
    28  C    5.972322
    29  C    6.000905
    30  C    6.008318
    31  C    6.001288
    32  N    7.002284
    33  C    5.969312
    34  C    5.965491
    35  C    6.000624
    36  C    5.970087
    37  C    6.002467
    38  C    5.982636
    39  O    7.970146
    40  C    6.005129
    41  C    5.994547
    42  O    7.995050
    43  O    7.998295
    44  C    6.001356
    45  H    1.009915
    46  H    1.004940
    47  H    0.988032
    48  H    1.000575
    49  H    1.001419
    50  H    1.011517
    51  H    0.996074
    52  H    1.000846
    53  H    0.991683
    54  H    1.007089
    55  H    0.996660
    56  H    1.004992
    57  H    1.017074
    58  H    1.017374
    59  H    1.016384
    60  H    1.007496
    61  H    1.014336
    62  H    1.007079
    63  H    0.999050
    64  H    0.998273
    65  H    0.996964
    66  H    1.009150
    67  H    0.999072
    68  H    1.001741
    69  H    0.986686
    70  H    1.000235
    71  H    0.993630
    72  H    0.999410
    73  H    0.982262
    74  H    0.978141
    75  H    0.985405
    76  H    0.990209
    77  H    1.000056
    78  H    0.995290
    79  H    0.994812
    80  Mg  11.999948
    81  C    6.000008
    82  C    6.000097
    83  C    5.999994
    84  C    5.999900
    85  N    7.000012
    86  C    6.000047
    87  C    5.999996
    88  C    6.000025
    89  C    5.999884
    90  C    5.999996
    91  C    6.000001
    92  C    5.999993
    93  H    0.999988
    94  N    7.000031
    95  C    5.999904
    96  C    5.999971
    97  C    5.999931
    98  C    5.999902
    99  C    5.999994
   100  C    5.999987
   101  O    7.999908
   102  C    6.000019
   103  N    6.999998
   104  C    5.999915
   105  C    5.999993
   106  C    5.999992
   107  C    6.000089
   108  C    5.999998
   109  C    5.999982
   110  C    6.000003
   111  N    7.000031
   112  C    6.000099
   113  C    6.000107
   114  C    6.000055
   115  C    6.000020
   116  C    5.999998
   117  C    6.000085
   118  O    8.000079
   119  C    5.999994
   120  C    6.000014
   121  O    8.000065
   122  O    7.999979
   123  C    5.999956
   124  H    0.999996
   125  H    0.999952
   126  H    0.999986
   127  H    1.000057
   128  H    0.999994
   129  H    1.000023
   130  H    1.000021
   131  H    1.000027
   132  H    0.999969
   133  H    0.999973
   134  H    1.000032
   135  H    1.000045
   136  H    0.999975
   137  H    0.999985
   138  H    0.999937
   139  H    1.000002
   140  H    0.999941
   141  H    0.999967
   142  H    0.999957
   143  H    1.000048
   144  H    1.000041
   145  H    1.000019
   146  H    0.999948
   147  H    1.000001
   148  H    0.999992
   149  H    0.999961
   150  H    1.000014
   151  H    0.999921
   152  H    0.999965
   153  H    1.000103
   154  H    1.000004
   155  H    0.999990
   156  H    1.000066
   157  H    1.000084
   158  H    1.000018
 Sum of Mulliken charges = 624.00000

 Dipole moment (field-independent basis, Debye):
    X=              0.2170    Y=             -6.2307    Z=              8.6866  Tot=             10.6923
 Quadrupole moment (field-independent basis, Debye-Ang):
   XX=            -10.3186   YY=              7.4164   ZZ=              1.9270
   XY=            108.7298   XZ=           -153.6470   YZ=             -8.0717

 Normal termination of Gaussian 16 at Fri Oct 15 09:28:16 2021.
