 Gaussian 16, Revision A.03,
 Gaussian 16:  ES64L-G16RevA.03 25-Dec-2016

 --------------------------------------------------------
 #p PBE1PBE/Def2SVP td=(nstates=5) density=(transition=1)
 --------------------------------------------------------

 --------------------------------
 TDDFT excited states in gaussian
 --------------------------------
 Symbolic Z-matrix:
 Charge =  0 Multiplicity = 1

                         Standard orientation:
 ---------------------------------------------------------------------
 Center     Atomic      Atomic             Coordinates (Angstroms)
 Number     Number       Type             X           Y           Z
 ---------------------------------------------------------------------
      1         12           0        9.300230   -0.406699   -0.096320
      2          6           0        7.523356    2.493105   -1.259246
      3          6           0       11.635618    1.862130    1.306984
      4          6           0       11.254583   -3.080362    1.011986
      5          6           0        7.260002   -2.440243   -1.788204
      6          7           0        9.612571    1.991689   -0.199116
      7          6           0        8.701313    2.895860   -0.617911
      8          6           0        9.261931    4.350459   -0.422892
      9          6           0       10.665968    4.033063    0.205269
     10          6           0       10.635095    2.525505    0.546226
     11          6           0       11.848644    4.440421   -0.741254
     12          6           0        8.390632    5.220151    0.483057
     13          6           0        8.149308    6.619822    0.021228
     14          1           0        7.201762    7.513460    0.834533
     15          7           0       11.027087   -0.619987    1.151327
     16          6           0       11.820104    0.432402    1.596563
     17          6           0       12.889273   -0.120562    2.404088
     18          6           0       12.763273   -1.499593    2.431802
     19          6           0       11.681941   -1.807008    1.436008
     20          6           0       14.026980    0.674446    2.977406
     21          6           0       13.647351   -2.613845    3.127688
     22          8           0       13.478364   -3.808471    3.107070
     23          6           0       14.747366   -2.178488    4.071445
     24          7           0        9.383422   -2.399716   -0.444212
     25          6           0       10.226387   -3.345599    0.078382
     26          6           0       10.021860   -4.733944   -0.571633
     27          6           0        8.602575   -4.583649   -1.267631
     28          6           0        8.385593   -3.028598   -1.128378
     29          6           0       11.195071   -5.144345   -1.518049
     30          6           0        7.463674   -5.414295   -0.601629
     31          6           0        7.045617   -4.962985    0.795997
     32          7           0        7.755875   -0.125815   -1.293405
     33          6           0        6.911137   -1.090245   -1.910321
     34          6           0        5.849685   -0.432575   -2.669276
     35          6           0        6.028591    0.934884   -2.393321
     36          6           0        7.167213    1.088850   -1.558841
     37          6           0        4.818403   -1.096481   -3.457754
     38          6           0        5.449491    2.239984   -2.695075
     39          8           0        4.440895    2.514669   -3.323378
     40          6           0        6.450336    3.337326   -2.041849
     41          6           0        5.444326    4.136548   -1.210056
     42          8           0        4.866607    3.798174   -0.161309
     43          8           0        5.204245    5.283747   -1.820868
     44          6           0        4.467387    6.382876   -1.074625
     45          1           0       12.306482    2.570218    1.797289
     46          1           0       11.805777   -3.976870    1.306375
     47          1           0        6.589969   -3.165074   -2.254614
     48          1           0        9.219448    4.787475   -1.419979
     49          1           0       10.803629    4.540595    1.160969
     50          1           0       12.591797    5.113982   -0.314479
     51          1           0       11.533349    4.754621   -1.736405
     52          1           0       12.555512    3.649704   -0.993662
     53          1           0        9.097458    5.462960    1.276691
     54          1           0        7.518319    4.695074    0.873805
     55          1           0        7.853487    6.809401   -1.011864
     56          1           0        9.132744    7.079722    0.119043
     57          1           0       13.858517    1.745395    2.867269
     58          1           0       15.007048    0.457078    2.549923
     59          1           0       14.186778    0.562464    4.049924
     60          1           0       14.368069   -1.595698    4.910773
     61          1           0       15.407238   -1.634105    3.395858
     62          1           0       15.260852   -3.112594    4.299287
     63          1           0       10.094103   -5.423604    0.270086
     64          1           0        8.571686   -4.618954   -2.356846
     65          1           0       11.783814   -5.972179   -1.122948
     66          1           0       11.869522   -4.364517   -1.869985
     67          1           0       10.642937   -5.447187   -2.407916
     68          1           0        7.684983   -6.467508   -0.775014
     69          1           0        6.567230   -5.273660   -1.205302
     70          1           0        7.652480   -4.177132    1.244249
     71          1           0        7.150995   -5.844023    1.428571
     72          1           0        6.070809   -4.481844    0.866923
     73          1           0        4.118305   -0.427407   -3.958465
     74          1           0        4.290230   -1.734181   -2.749011
     75          1           0        5.322400   -1.741726   -4.178700
     76          1           0        6.816892    4.053314   -2.777420
     77          1           0        4.670252    7.300075   -1.627959
     78          1           0        4.861979    6.554114   -0.073549
     79          1           0        3.401845    6.185801   -0.951207
     80         12           0       -8.589986   -0.941991    0.258454
     81          6           0      -11.010422    1.533244    0.587265
     82          6           0       -6.164636    1.473098    0.425466
     83          6           0       -6.287465   -3.370071   -0.387345
     84          6           0      -11.278847   -3.231535   -0.143216
     85          7           0       -8.587078    1.242889    0.444591
     86          6           0       -9.703034    2.000049    0.685693
     87          6           0       -9.212970    3.430739    0.922238
     88          6           0       -7.736480    3.424903    0.568383
     89          6           0       -7.468537    1.925322    0.509747
     90          6           0       -7.253675    4.169613   -0.647261
     91          6           0       -9.548689    4.046078    2.363382
     92          6           0       -8.868797    5.412993    2.696458
     93          1           0       -9.627348    6.721828    2.353505
     94          7           0       -6.515527   -0.943768    0.199777
     95          6           0       -5.702867    0.140586    0.257279
     96          6           0       -4.358294   -0.342083    0.077773
     97          6           0       -4.405690   -1.746662   -0.163308
     98          6           0       -5.757544   -2.085356   -0.152100
     99          6           0       -3.198693    0.603414    0.142101
    100          6           0       -3.201424   -2.659316   -0.536763
    101          8           0       -3.359330   -3.748936   -1.057688
    102          6           0       -1.812174   -2.249036   -0.412152
    103          7           0       -8.772408   -2.882868   -0.167047
    104          6           0       -7.685767   -3.735731   -0.358264
    105          6           0       -8.115290   -5.195187   -0.587857
    106          6           0       -9.637607   -5.136678   -0.222706
    107          6           0       -9.900278   -3.642784   -0.127058
    108          6           0       -7.675897   -5.823712   -1.845154
    109          6           0      -10.184577   -5.979789    1.057963
    110          6           0      -11.264978   -7.051134    0.882452
    111          7           0      -10.783359   -0.889296    0.166945
    112          6           0      -11.686344   -1.898747   -0.015975
    113          6           0      -13.022724   -1.407824    0.019463
    114          6           0      -12.819839   -0.011425    0.340974
    115          6           0      -11.421459    0.252260    0.327989
    116          6           0      -14.228435   -2.255543   -0.127838
    117          6           0      -13.512765    1.204268    0.700915
    118          8           0      -14.677400    1.484790    0.905957
    119          6           0      -12.298050    2.293322    0.868934
    120          6           0      -12.558657    3.525489    0.081756
    121          8           0      -12.580986    3.558060   -1.129099
    122          8           0      -12.752931    4.603549    0.861425
    123          6           0      -12.771797    5.955277    0.181256
    124          1           0       -5.385616    2.231293    0.531647
    125          1           0       -5.529748   -4.127203   -0.598822
    126          1           0      -11.951338   -4.083984   -0.261136
    127          1           0       -9.803646    3.954973    0.171112
    128          1           0       -7.171870    3.893284    1.374182
    129          1           0       -7.050696    3.320488   -1.299138
    130          1           0       -6.398182    4.811029   -0.435064
    131          1           0       -8.053483    4.720753   -1.142352
    132          1           0       -9.169654    3.266875    3.024990
    133          1           0      -10.626339    4.160762    2.473981
    134          1           0       -7.921019    5.529221    2.172305
    135          1           0       -8.641131    5.420042    3.762385
    136          1           0       -3.393023    1.642081    0.411322
    137          1           0       -2.811246    0.657895   -0.874719
    138          1           0       -2.373848    0.227987    0.748053
    139          1           0       -1.490904   -1.283741   -0.802070
    140          1           0       -1.076194   -2.973801   -0.759974
    141          1           0       -1.669214   -2.272387    0.667977
    142          1           0       -7.572615   -5.634123    0.249809
    143          1           0      -10.051229   -5.447632   -1.181908
    144          1           0       -6.990859   -6.668037   -1.763501
    145          1           0       -7.188057   -5.052566   -2.441922
    146          1           0       -8.486797   -6.245153   -2.439099
    147          1           0      -10.584004   -5.260346    1.772524
    148          1           0       -9.449142   -6.521937    1.653574
    149          1           0      -12.263264   -6.753808    1.204637
    150          1           0      -10.993388   -8.040157    1.250378
    151          1           0      -11.422968   -7.177156   -0.188738
    152          1           0      -14.073402   -2.932458   -0.967655
    153          1           0      -15.143404   -1.672129   -0.227042
    154          1           0      -14.221084   -2.971716    0.694463
    155          1           0      -12.318931    2.586313    1.918111
    156          1           0      -13.290746    6.569544    0.916755
    157          1           0      -13.316677    5.864647   -0.758204
    158          1           0      -11.732677    6.271520    0.088852
 ---------------------------------------------------------------------

 SCF Done:  E(RPBE1PBE) =  -4067.36619077     A.U. after   16 cycles

 Excitation energies and oscillator strengths:

 Excited State   1:      Singlet-A      1.7659 eV  702.09 nm  f=0.0000  <S**2>=0.000
     312 -> 313        0.70705
 This state for optimization and/or second-order correction.
 Total Energy, E(TD-HF/TD-DFT) =  -4067.30129380
 Copying the excited state density for this state as the 1-particle RhoCI density.

 Excited State   2:      Singlet-A      1.8169 eV  682.38 nm  f=0.5249  <S**2>=0.000
     309 -> 315       -0.17068
     311 -> 313        0.67210
     312 -> 314       -0.16798
     311 <- 313       -0.10549

 Excited State   3:      Singlet-A      1.8599 eV  666.61 nm  f=0.2523  <S**2>=0.000
     310 -> 316       -0.16863
     311 -> 313        0.16656
     312 -> 314        0.67235
     312 <- 314       -0.10862

 Excited State   4:      Singlet-A      1.9126 eV  648.25 nm  f=0.0000  <S**2>=0.000
     311 -> 314        0.70703

 Excited State   5:      Singlet-A      2.2295 eV  556.11 nm  f=0.0170  <S**2>=0.000
     309 -> 313        0.29433
     310 -> 314        0.57195
     311 -> 315        0.13285
     312 -> 316        0.24255

 The electronic state is 1-A.
 Alpha  occ. eigenvalues --  -46.91883 -46.91063 -19.25832 -19.24905 -19.19842
 Alpha  occ. eigenvalues --  -19.19797 -19.19030 -19.18744 -19.18532 -19.18311
 Alpha  occ. eigenvalues --  -14.42125 -14.42022 -14.41344 -14.41284 -14.39897
 Alpha  occ. eigenvalues --  -14.39595 -14.38513 -14.37906 -10.35765 -10.34787
 Alpha  occ. eigenvalues --  -10.32828 -10.32819 -10.32439 -10.31629 -10.29695
 Alpha  occ. eigenvalues --  -10.29394 -10.29261 -10.29183 -10.29173 -10.29159
 Alpha  occ. eigenvalues --  -10.28986 -10.28853 -10.28731 -10.28641 -10.28456
 Alpha  occ. eigenvalues --  -10.28005 -10.27885 -10.27857 -10.27239 -10.27104
 Alpha  occ. eigenvalues --  -10.26956 -10.26848 -10.26761 -10.26579 -10.26535
 Alpha  occ. eigenvalues --  -10.26443 -10.26411 -10.26402 -10.26343 -10.26168
 Alpha  occ. eigenvalues --  -10.26112 -10.26011 -10.25826 -10.25705 -10.25602
 Alpha  occ. eigenvalues --  -10.25556 -10.25333 -10.25137 -10.25131 -10.25083
 Alpha  occ. eigenvalues --  -10.24947 -10.24849 -10.24737 -10.24628 -10.24575
 Alpha  occ. eigenvalues --  -10.24569 -10.24501 -10.24428 -10.24410 -10.24376
 Alpha  occ. eigenvalues --  -10.24309 -10.24293 -10.23973 -10.23844 -10.23843
 Alpha  occ. eigenvalues --  -10.23697 -10.23668 -10.23528 -10.23401 -10.23099
 Alpha  occ. eigenvalues --  -10.23092 -10.22977 -10.22974 -10.22902 -10.22843
 Alpha  occ. eigenvalues --  -10.22803  -3.14151  -3.13301  -1.86977  -1.86542
 Alpha  occ. eigenvalues --   -1.86380  -1.86159  -1.85678  -1.85526  -1.10991
 Alpha  occ. eigenvalues --   -1.10452  -1.06286  -1.05449  -1.05042  -1.04096
 Alpha  occ. eigenvalues --   -1.01389  -1.00359  -0.99654  -0.98602  -0.98550
 Alpha  occ. eigenvalues --   -0.97909  -0.97751  -0.97034  -0.96788  -0.96548
 Alpha  occ. eigenvalues --   -0.86609  -0.85404  -0.83660  -0.83276  -0.83168
 Alpha  occ. eigenvalues --   -0.82859  -0.82446  -0.82444  -0.81889  -0.81680
 Alpha  occ. eigenvalues --   -0.81395  -0.81038  -0.80925  -0.80756  -0.78715
 Alpha  occ. eigenvalues --   -0.78561  -0.78022  -0.77825  -0.76813  -0.76569
 Alpha  occ. eigenvalues --   -0.76461  -0.75806  -0.75526  -0.75526  -0.74906
 Alpha  occ. eigenvalues --   -0.74667  -0.72902  -0.72585  -0.71927  -0.71777
 Alpha  occ. eigenvalues --   -0.71426  -0.71368  -0.70458  -0.70030  -0.69639
 Alpha  occ. eigenvalues --   -0.69312  -0.67228  -0.67031  -0.66249  -0.66071
 Alpha  occ. eigenvalues --   -0.64557  -0.63487  -0.63335  -0.63112  -0.62528
 Alpha  occ. eigenvalues --   -0.62145  -0.61118  -0.60820  -0.60057  -0.59898
 Alpha  occ. eigenvalues --   -0.59778  -0.59733  -0.59311  -0.58912  -0.58831
 Alpha  occ. eigenvalues --   -0.58555  -0.56619  -0.55837  -0.54824  -0.54267
 Alpha  occ. eigenvalues --   -0.54096  -0.54087  -0.53659  -0.53392  -0.53248
 Alpha  occ. eigenvalues --   -0.52561  -0.52370  -0.52131  -0.51515  -0.50862
 Alpha  occ. eigenvalues --   -0.50769  -0.50441  -0.50195  -0.50074  -0.49799
 Alpha  occ. eigenvalues --   -0.49587  -0.49306  -0.49178  -0.48904  -0.48705
 Alpha  occ. eigenvalues --   -0.48225  -0.47976  -0.47906  -0.47725  -0.47581
 Alpha  occ. eigenvalues --   -0.47444  -0.47136  -0.47119  -0.46885  -0.46795
 Alpha  occ. eigenvalues --   -0.46735  -0.46543  -0.46376  -0.45766  -0.45679
 Alpha  occ. eigenvalues --   -0.45657  -0.45423  -0.45255  -0.44875  -0.44833
 Alpha  occ. eigenvalues --   -0.44549  -0.44538  -0.44370  -0.44369  -0.44053
 Alpha  occ. eigenvalues --   -0.44006  -0.43835  -0.43745  -0.43741  -0.43503
 Alpha  occ. eigenvalues --   -0.43428  -0.43405  -0.43240  -0.43035  -0.42895
 Alpha  occ. eigenvalues --   -0.42624  -0.42412  -0.42306  -0.42225  -0.41963
 Alpha  occ. eigenvalues --   -0.41667  -0.41608  -0.41508  -0.41331  -0.41244
 Alpha  occ. eigenvalues --   -0.41148  -0.41102  -0.41004  -0.40787  -0.40732
 Alpha  occ. eigenvalues --   -0.40582  -0.40469  -0.40116  -0.39880  -0.39713
 Alpha  occ. eigenvalues --   -0.39639  -0.39395  -0.39384  -0.39157  -0.39045
 Alpha  occ. eigenvalues --   -0.38995  -0.38863  -0.38674  -0.38601  -0.38405
 Alpha  occ. eigenvalues --   -0.38345  -0.38109  -0.38055  -0.37958  -0.37793
 Alpha  occ. eigenvalues --   -0.37479  -0.37368  -0.37346  -0.37128  -0.36890
 Alpha  occ. eigenvalues --   -0.36531  -0.36458  -0.36428  -0.36157  -0.35953
 Alpha  occ. eigenvalues --   -0.35936  -0.35638  -0.35410  -0.35305  -0.35091
 Alpha  occ. eigenvalues --   -0.34933  -0.34707  -0.34271  -0.34201  -0.34040
 Alpha  occ. eigenvalues --   -0.33718  -0.33569  -0.33228  -0.32711  -0.32555
 Alpha  occ. eigenvalues --   -0.32118  -0.31896  -0.31715  -0.31272  -0.31149
 Alpha  occ. eigenvalues --   -0.30886  -0.30830  -0.29284  -0.29283  -0.29054
 Alpha  occ. eigenvalues --   -0.28847  -0.27867  -0.27713  -0.27102  -0.26415
 Alpha  occ. eigenvalues --   -0.26252  -0.26055  -0.25855  -0.25816  -0.25682
 Alpha  occ. eigenvalues --   -0.25135  -0.24993  -0.24487  -0.21215  -0.20919
 Alpha  occ. eigenvalues --   -0.18809  -0.18567
 Alpha virt. eigenvalues --   -0.11331  -0.11022  -0.05664  -0.05171  -0.03778
 Alpha virt. eigenvalues --   -0.03381  -0.02228  -0.01507   0.00413   0.00683
 Alpha virt. eigenvalues --    0.00741   0.00993   0.01153   0.01515   0.01530

 Mulliken charges:
               1
     1  Mg  12.000000
     2  C    5.999998
     3  C    5.999999
     4  C    6.000001
     5  C    6.000000
     6  N    6.999999
     7  C    6.000001
     8  C    6.000000
     9  C    6.000000
    10  C    6.000000
    11  C    6.000000
    12  C    6.000000
    13  C    6.000000
    14  H    1.000000
    15  N    7.000000
    16  C    6.000000
    17  C    6.000000
    18  C    6.000000
    19  C    5.999999
    20  C    6.000000
    21  C    6.000000
    22  O    7.999999
    23  C    6.000000
    24  N    7.000000
    25  C    6.000000
    26  C    6.000000
    27  C    6.000000
    28  C    5.999999
    29  C    6.000000
    30  C    6.000000
    31  C    6.000000
    32  N    7.000000
    33  C    6.000000
    34  C    6.000001
    35  C    5.999999
    36  C    6.000001
    37  C    6.000000
    38  C    6.000000
    39  O    8.000000
    40  C    6.000000
    41  C    6.000000
    42  O    8.000000
    43  O    8.000000
    44  C    6.000000
    45  H    1.000000
    46  H    1.000000
    47  H    1.000000
    48  H    1.000000
    49  H    1.000000
    50  H    1.000000
    51  H    1.000000
    52  H    1.000000
    53  H    1.000000
    54  H    1.000000
    55  H    1.000000
    56  H    1.000000
    57  H    1.000000
    58  H    1.000000
    59  H    1.000000
    60  H    1.000000
    61  H    1.000000
    62  H    1.000000
    63  H    1.000000
    64  H    1.000000
    65  H    1.000000
    66  H    1.000000
    67  H    1.000000
    68  H    1.000000
    69  H    1.000000
    70  H    1.000000
    71  H    1.000000
    72  H    1.000000
    73  H    1.000000
    74  H    1.000000
    75  H    1.000000
    76  H    1.000000
    77  H    1.000000
    78  H    1.000000
    79  H    1.000000
    80  Mg  12.000000
    81  C    6.000000
    82  C    6.000000
    83  C    5.999999
    84  C    6.000001
    85  N    7.000000
    86  C    5.999999
    87  C    6.000000
    88  C    6.000000
    89  C    6.000001
    90  C    6.000000
    91  C    6.000000
    92  C    6.000000
    93  H    1.000000
    94  N    7.000001
    95  C    6.000001
    96  C    6.000001
    97  C    6.000001
    98  C    6.000000
    99  C    6.000000
   100  C    6.000001
   101  O    8.000003
   102  C    6.000000
   103  N    7.000000
   104  C    6.000001
   105  C    5.999999
   106  C    6.000000
   107  C    5.999999
   108  C    6.000000
   109  C    6.000000
   110  C    6.000000
   111  N    7.000000
   112  C    5.999999
   113  C    6.000000
   114  C    5.999999
   115  C    6.000000
   116  C    6.000000
   117  C    5.999999
   118  O    7.999999
   119  C    6.000000
   120  C    6.000000
   121  O    8.000000
   122  O    8.000000
   123  C    6.000000
   124  H    1.000000
   125  H    1.000000
   126  H    1.000000
   127  H    1.000000
   128  H    1.000000
   129  H    1.000000
   130  H    1.000000
   131  H    1.000000
   132  H    1.000000
   133  H    1.000000
   134  H    1.000000
   135  H    1.000000
   136  H    1.000001
   137  H    1.000002
   138  H    1.000001
   139  H    0.999998
   140  H    1.000000
   141  H    1.000000
   142  H    1.000000
   143  H    1.000000
   144  H    1.000000
   145  H    1.000000
   146  H    1.000000
   147  H    1.000000
   148  H    1.000000
   149  H    1.000000
   150  H    1.000000
   151  H    1.000000
   152  H    0.999999
   153  H    0.999999
   154  H    0.999999
   155  H    1.000000
   156  H    1.000000
   157  H    1.000000
   158  H    1.000000
 Sum of Mulliken charges = 624.00000

 Dipole moment (field-independent basis, Debye):
    X=              0.0001    Y=             -0.0000    Z=             -0.0001  Tot=              0.0002
 Quadrupole moment (field-independent basis, Debye-Ang):
   XX=             -0.0086   YY=             -0.0000   ZZ=             -0.0001
   XY=              0.0002   XZ=             -0.0006   YZ=              0.0001

 Normal termination of Gaussian 16 at Thu Oct 14 16:48:08 2021.
