 Gaussian 16, Revision A.03,
 Gaussian 16:  ES64L-G16RevA.03 25-Dec-2016

 --------------------------------------------------------
 #p PBE1PBE/Def2SVP td=(nstates=5) density=(transition=1)
 --------------------------------------------------------

 --------------------------------
 TDDFT excited states in gaussian
 --------------------------------
 Symbolic Z-matrix:
 Charge =  0 Multiplicity = 1

                         Standard orientation:
 ---------------------------------------------------------------------
 Center     Atomic      Atomic             Coordinates (Angstroms)
 Number     Number       Type             X           Y           Z
 ---------------------------------------------------------------------
      1         12           0      -25.400560    0.767402    0.409973
      2          6           0      -25.911947   -2.283831   -1.314112
      3          6           0      -25.414980   -1.157307    3.327829
      4          6           0      -24.814956    3.484827    2.157028
      5          6           0      -26.229052    2.510240   -2.482439
      6          7           0      -25.605618   -1.457104    0.890126
      7          6           0      -25.655446   -2.516869    0.035991
      8          6           0      -25.724320   -3.907179    0.690738
      9          6           0      -25.679650   -3.427944    2.229279
     10          6           0      -25.577679   -1.935934    2.112236
     11          6           0      -26.961981   -3.812434    3.068300
     12          6           0      -24.519957   -4.826064    0.303717
     13          6           0      -24.631676   -6.083904   -0.549012
     14          1           0      -23.756997   -7.301380   -0.280335
     15          7           0      -25.068179    1.139837    2.456887
     16          6           0      -25.185328    0.228777    3.516516
     17          6           0      -25.038191    0.975756    4.745719
     18          6           0      -24.703173    2.291409    4.435164
     19          6           0      -24.797132    2.340969    2.963072
     20          6           0      -25.026080    0.227020    6.034599
     21          6           0      -24.422266    3.501622    5.325199
     22          8           0      -24.166772    4.635544    4.908534
     23          6           0      -24.313305    3.254965    6.778385
     24          7           0      -25.597400    2.738723   -0.029868
     25          6           0      -25.094806    3.718973    0.780230
     26          6           0      -24.890594    5.054931   -0.011554
     27          6           0      -25.432093    4.718541   -1.394912
     28          6           0      -25.857837    3.227098   -1.298650
     29          6           0      -25.525860    6.300439    0.688687
     30          6           0      -24.348717    4.982057   -2.451794
     31          6           0      -24.738964    5.675548   -3.706147
     32          7           0      -26.059528    0.284418   -1.495798
     33          6           0      -26.329378    1.084135   -2.577436
     34          6           0      -26.676439    0.306221   -3.728995
     35          6           0      -26.439867   -1.105603   -3.351589
     36          6           0      -26.053507   -1.026924   -1.955768
     37          6           0      -27.134678    0.863549   -5.087577
     38          6           0      -26.450456   -2.528715   -3.774510
     39          8           0      -26.592719   -3.029020   -4.903147
     40          6           0      -26.099135   -3.328456   -2.452949
     41          6           0      -27.319399   -4.187793   -2.339551
     42          8           0      -28.390334   -3.925328   -1.805715
     43          8           0      -27.084884   -5.387995   -2.794944
     44          6           0      -28.201317   -6.354925   -2.929929
     45          1           0      -25.287590   -1.889360    4.127623
     46          1           0      -24.673840    4.464468    2.617670
     47          1           0      -26.416334    3.074107   -3.398247
     48          1           0      -26.699503   -4.334815    0.454485
     49          1           0      -24.821698   -3.718678    2.836281
     50          1           0      -27.848586   -4.113425    2.510905
     51          1           0      -27.274674   -2.963314    3.675006
     52          1           0      -26.697659   -4.627510    3.742258
     53          1           0      -24.088161   -5.173613    1.242400
     54          1           0      -23.766972   -4.252608   -0.235400
     55          1           0      -24.254782   -5.707439   -1.500085
     56          1           0      -25.700851   -6.289430   -0.495856
     57          1           0      -24.075649    0.330553    6.556292
     58          1           0      -25.198706   -0.837226    5.872365
     59          1           0      -25.784858    0.568173    6.738198
     60          1           0      -23.637447    2.418146    6.955060
     61          1           0      -25.238855    2.869456    7.206224
     62          1           0      -23.908105    4.090726    7.347946
     63          1           0      -23.805894    5.157796    0.014472
     64          1           0      -26.249885    5.384347   -1.670129
     65          1           0      -25.881599    6.111952    1.701509
     66          1           0      -26.382013    6.714649    0.157498
     67          1           0      -24.836514    7.142983    0.635697
     68          1           0      -24.003353    3.975900   -2.685989
     69          1           0      -23.515214    5.593469   -2.106917
     70          1           0      -24.416224    5.003190   -4.500706
     71          1           0      -24.322602    6.682657   -3.725641
     72          1           0      -25.813549    5.756564   -3.871278
     73          1           0      -28.220828    0.947338   -5.087467
     74          1           0      -26.775552    0.193810   -5.868825
     75          1           0      -26.758604    1.870893   -5.267591
     76          1           0      -25.218713   -3.930109   -2.677987
     77          1           0      -28.697059   -6.594122   -1.989755
     78          1           0      -27.923746   -7.291982   -3.412207
     79          1           0      -29.023108   -6.068245   -3.585397
     80         12           0       25.282287    0.467118   -0.397305
     81          6           0       26.448182   -1.888433    1.799882
     82          6           0       24.007498   -1.947528   -2.332186
     83          6           0       24.415488    2.885313   -2.579998
     84          6           0       27.131473    2.981969    1.466913
     85          7           0       25.487359   -1.739604   -0.383056
     86          6           0       25.893501   -2.488687    0.649167
     87          6           0       25.621632   -4.053279    0.359631
     88          6           0       24.822576   -3.942356   -0.992474
     89          6           0       24.782217   -2.435648   -1.318041
     90          6           0       25.368241   -4.851305   -2.110960
     91          6           0       24.834830   -4.773658    1.491138
     92          6           0       24.201331   -6.169219    1.181294
     93          1           0       24.933604   -7.446487    1.743125
     94          7           0       24.373653    0.460070   -2.249141
     95          6           0       23.835238   -0.593399   -2.827313
     96          6           0       23.183390   -0.166329   -4.056090
     97          6           0       23.365717    1.237211   -4.240758
     98          6           0       24.074508    1.589844   -2.990947
     99          6           0       22.554693   -1.088219   -5.087841
    100          6           0       22.993405    2.144996   -5.408400
    101          8           0       23.484697    3.264265   -5.521965
    102          6           0       22.020618    1.647572   -6.419532
    103          7           0       25.758889    2.628901   -0.551879
    104          6           0       25.237924    3.384333   -1.511429
    105          6           0       25.501312    4.880884   -1.275925
    106          6           0       26.162382    4.841579    0.099410
    107          6           0       26.389872    3.393655    0.326340
    108          6           0       26.292721    5.650895   -2.343546
    109          6           0       25.454696    5.663001    1.147169
    110          6           0       26.262193    6.870150    1.744469
    111          7           0       26.462305    0.575736    1.268619
    112          6           0       27.085270    1.659227    1.974275
    113          6           0       27.680576    1.203490    3.211194
    114          6           0       27.409032   -0.191247    3.140677
    115          6           0       26.700861   -0.498297    1.972006
    116          6           0       28.266107    1.947312    4.359318
    117          6           0       27.477731   -1.350860    3.993609
    118          8           0       27.770874   -1.532621    5.184778
    119          6           0       27.003325   -2.529237    3.180450
    120          6           0       28.227689   -3.402589    2.828209
    121          8           0       29.348107   -3.021177    2.456433
    122          8           0       27.862211   -4.706018    2.989586
    123          6           0       28.900069   -5.756253    2.740985
    124          1           0       23.444754   -2.621836   -2.981113
    125          1           0       24.355114    3.690730   -3.314925
    126          1           0       27.545374    3.809639    2.045685
    127          1           0       26.618657   -4.462865    0.201622
    128          1           0       23.789604   -4.221325   -0.784633
    129          1           0       24.505413   -5.302953   -2.599282
    130          1           0       25.966952   -5.671424   -1.714512
    131          1           0       25.958532   -4.277661   -2.825620
    132          1           0       23.948132   -4.160425    1.651721
    133          1           0       25.476481   -4.910980    2.361424
    134          1           0       24.275458   -6.315165    0.103165
    135          1           0       23.189241   -6.189271    1.584018
    136          1           0       22.617132   -2.131746   -4.779290
    137          1           0       23.073261   -0.978076   -6.039926
    138          1           0       21.506731   -0.847655   -5.262179
    139          1           0       21.180424    1.264020   -5.840008
    140          1           0       22.261442    0.869443   -7.143201
    141          1           0       21.666613    2.432704   -7.086755
    142          1           0       24.533881    5.375655   -1.197091
    143          1           0       27.143768    5.304315   -0.003275
    144          1           0       25.793020    6.618002   -2.393479
    145          1           0       26.319254    5.092685   -3.279274
    146          1           0       27.359140    5.739539   -2.136433
    147          1           0       25.336192    4.968659    1.978395
    148          1           0       24.504027    6.075724    0.810781
    149          1           0       27.258607    6.906424    1.303273
    150          1           0       26.372214    6.685985    2.813592
    151          1           0       25.763529    7.838158    1.693480
    152          1           0       28.084557    3.015755    4.245849
    153          1           0       29.344127    1.834192    4.250472
    154          1           0       27.780533    1.524558    5.240048
    155          1           0       26.310177   -3.047437    3.843379
    156          1           0       29.478133   -5.629709    1.825274
    157          1           0       28.523154   -6.777963    2.773470
    158          1           0       29.631149   -5.631868    3.539646
 ---------------------------------------------------------------------

 SCF Done:  E(RPBE1PBE) =  -4067.37307119     A.U. after   16 cycles

 Excitation energies and oscillator strengths:

 Excited State   1:      Singlet-A      1.8639 eV  665.20 nm  f=0.3580  <S**2>=0.000
     310 -> 315       -0.18317
     311 -> 313        0.68969
 This state for optimization and/or second-order correction.
 Total Energy, E(TD-HF/TD-DFT) =  -4067.30457569
 Copying the excited state density for this state as the 1-particle RhoCI density.

 Excited State   2:      Singlet-A      1.8791 eV  659.82 nm  f=0.3960  <S**2>=0.000
     309 -> 316       -0.16658
     312 -> 314        0.69066
     312 <- 314       -0.10565

 Excited State   3:      Singlet-A      2.0122 eV  616.18 nm  f=0.0000  <S**2>=0.000
     312 -> 313        0.70711

 Excited State   4:      Singlet-A      2.0432 eV  606.83 nm  f=0.0000  <S**2>=0.000
     311 -> 314        0.70711

 Excited State   5:      Singlet-A      2.2119 eV  560.54 nm  f=0.1054  <S**2>=0.000
     310 -> 313        0.65037
     311 -> 315        0.26777

 The electronic state is 1-A.
 Alpha  occ. eigenvalues --  -46.92593 -46.91988 -19.26305 -19.25983 -19.19739
 Alpha  occ. eigenvalues --  -19.19674 -19.19537 -19.19398 -19.18520 -19.18012
 Alpha  occ. eigenvalues --  -14.41979 -14.41584 -14.41459 -14.41389 -14.39646
 Alpha  occ. eigenvalues --  -14.39384 -14.38973 -14.38885 -10.36643 -10.35738
 Alpha  occ. eigenvalues --  -10.33160 -10.32883 -10.32837 -10.30548 -10.29421
 Alpha  occ. eigenvalues --  -10.29420 -10.29235 -10.29176 -10.28969 -10.28880
 Alpha  occ. eigenvalues --  -10.28659 -10.28513 -10.28439 -10.28260 -10.28113
 Alpha  occ. eigenvalues --  -10.28069 -10.27923 -10.27815 -10.27808 -10.27018
 Alpha  occ. eigenvalues --  -10.26923 -10.26884 -10.26865 -10.26639 -10.26505
 Alpha  occ. eigenvalues --  -10.26443 -10.26418 -10.26291 -10.26212 -10.26153
 Alpha  occ. eigenvalues --  -10.25948 -10.25942 -10.25906 -10.25836 -10.25758
 Alpha  occ. eigenvalues --  -10.25603 -10.25591 -10.25374 -10.25368 -10.25197
 Alpha  occ. eigenvalues --  -10.24962 -10.24959 -10.24919 -10.24841 -10.24681
 Alpha  occ. eigenvalues --  -10.24515 -10.24455 -10.24370 -10.24154 -10.24060
 Alpha  occ. eigenvalues --  -10.23968 -10.23959 -10.23910 -10.23881 -10.23782
 Alpha  occ. eigenvalues --  -10.23659 -10.23641 -10.23556 -10.23478 -10.23389
 Alpha  occ. eigenvalues --  -10.23330 -10.23171 -10.23154 -10.22963 -10.22385
 Alpha  occ. eigenvalues --  -10.22212  -3.14699  -3.14162  -1.87530  -1.87067
 Alpha  occ. eigenvalues --   -1.87004  -1.86934  -1.86539  -1.86389  -1.12672
 Alpha  occ. eigenvalues --   -1.10359  -1.05048  -1.04553  -1.03383  -1.02762
 Alpha  occ. eigenvalues --   -1.01388  -1.01377  -1.00346  -1.00066  -0.99054
 Alpha  occ. eigenvalues --   -0.98578  -0.98474  -0.97686  -0.97465  -0.96321
 Alpha  occ. eigenvalues --   -0.86342  -0.85680  -0.84239  -0.83865  -0.83246
 Alpha  occ. eigenvalues --   -0.83011  -0.82974  -0.82495  -0.81894  -0.81792
 Alpha  occ. eigenvalues --   -0.81481  -0.81321  -0.81113  -0.79546  -0.78714
 Alpha  occ. eigenvalues --   -0.78478  -0.77917  -0.77611  -0.77202  -0.76703
 Alpha  occ. eigenvalues --   -0.76513  -0.76405  -0.75409  -0.75224  -0.74872
 Alpha  occ. eigenvalues --   -0.74432  -0.72901  -0.72874  -0.71895  -0.71849
 Alpha  occ. eigenvalues --   -0.71230  -0.71050  -0.70624  -0.70408  -0.69713
 Alpha  occ. eigenvalues --   -0.69517  -0.67116  -0.66822  -0.66257  -0.66156
 Alpha  occ. eigenvalues --   -0.63792  -0.63520  -0.63463  -0.62679  -0.62270
 Alpha  occ. eigenvalues --   -0.62223  -0.62000  -0.61291  -0.60306  -0.60237
 Alpha  occ. eigenvalues --   -0.59748  -0.59475  -0.59421  -0.58931  -0.58808
 Alpha  occ. eigenvalues --   -0.58444  -0.57222  -0.57118  -0.55292  -0.55247
 Alpha  occ. eigenvalues --   -0.54246  -0.54031  -0.53654  -0.53487  -0.53274
 Alpha  occ. eigenvalues --   -0.53143  -0.52630  -0.52454  -0.52311  -0.51890
 Alpha  occ. eigenvalues --   -0.51162  -0.50909  -0.50246  -0.50235  -0.49677
 Alpha  occ. eigenvalues --   -0.49649  -0.49126  -0.48927  -0.48839  -0.48655
 Alpha  occ. eigenvalues --   -0.48458  -0.48320  -0.48014  -0.47938  -0.47444
 Alpha  occ. eigenvalues --   -0.47268  -0.47158  -0.47099  -0.46923  -0.46785
 Alpha  occ. eigenvalues --   -0.46770  -0.46389  -0.46128  -0.45774  -0.45676
 Alpha  occ. eigenvalues --   -0.45361  -0.45343  -0.45033  -0.45010  -0.44645
 Alpha  occ. eigenvalues --   -0.44590  -0.44412  -0.44393  -0.44249  -0.44229
 Alpha  occ. eigenvalues --   -0.43977  -0.43952  -0.43621  -0.43586  -0.43572
 Alpha  occ. eigenvalues --   -0.43509  -0.43210  -0.43168  -0.42895  -0.42870
 Alpha  occ. eigenvalues --   -0.42641  -0.42473  -0.42406  -0.42302  -0.42234
 Alpha  occ. eigenvalues --   -0.41960  -0.41480  -0.41299  -0.41185  -0.41012
 Alpha  occ. eigenvalues --   -0.40915  -0.40837  -0.40682  -0.40677  -0.40369
 Alpha  occ. eigenvalues --   -0.40242  -0.40041  -0.39839  -0.39722  -0.39569
 Alpha  occ. eigenvalues --   -0.39554  -0.39286  -0.39181  -0.39150  -0.38898
 Alpha  occ. eigenvalues --   -0.38868  -0.38830  -0.38814  -0.38683  -0.38380
 Alpha  occ. eigenvalues --   -0.38103  -0.37919  -0.37771  -0.37732  -0.37689
 Alpha  occ. eigenvalues --   -0.37409  -0.37018  -0.36861  -0.36810  -0.36751
 Alpha  occ. eigenvalues --   -0.36730  -0.36445  -0.36393  -0.36342  -0.36133
 Alpha  occ. eigenvalues --   -0.35965  -0.35752  -0.35695  -0.35407  -0.35380
 Alpha  occ. eigenvalues --   -0.35056  -0.34849  -0.34449  -0.34236  -0.34020
 Alpha  occ. eigenvalues --   -0.33450  -0.33248  -0.32939  -0.32886  -0.32277
 Alpha  occ. eigenvalues --   -0.32102  -0.31765  -0.31679  -0.31375  -0.31219
 Alpha  occ. eigenvalues --   -0.31033  -0.30900  -0.29717  -0.29514  -0.29149
 Alpha  occ. eigenvalues --   -0.28888  -0.28688  -0.28111  -0.27292  -0.26792
 Alpha  occ. eigenvalues --   -0.26639  -0.26356  -0.26155  -0.25977  -0.25732
 Alpha  occ. eigenvalues --   -0.25378  -0.24807  -0.24718  -0.20873  -0.20847
 Alpha  occ. eigenvalues --   -0.18809  -0.18744
 Alpha virt. eigenvalues --   -0.11092  -0.11043  -0.05419  -0.05347  -0.04419
 Alpha virt. eigenvalues --   -0.03600  -0.02308  -0.01890  -0.00854  -0.00200
 Alpha virt. eigenvalues --    0.00772   0.00935   0.01038   0.01589   0.01763

 Mulliken charges:
               1
     1  Mg  11.995326
     2  C    6.019655
     3  C    5.998990
     4  C    5.974059
     5  C    6.006118
     6  N    7.011368
     7  C    5.967496
     8  C    6.015248
     9  C    5.989120
    10  C    6.030530
    11  C    5.995777
    12  C    6.002735
    13  C    6.002113
    14  H    0.994224
    15  N    6.992944
    16  C    6.032830
    17  C    6.018198
    18  C    6.018931
    19  C    6.026173
    20  C    5.994264
    21  C    6.012894
    22  O    8.029027
    23  C    5.995363
    24  N    6.990075
    25  C    6.041017
    26  C    5.994151
    27  C    6.007311
    28  C    5.972677
    29  C    5.997226
    30  C    6.002076
    31  C    6.000134
    32  N    7.000352
    33  C    5.971584
    34  C    5.969023
    35  C    5.999263
    36  C    5.969364
    37  C    6.000033
    38  C    5.981843
    39  O    7.973235
    40  C    5.998738
    41  C    5.999155
    42  O    7.992149
    43  O    7.999204
    44  C    6.002584
    45  H    1.012620
    46  H    1.002939
    47  H    0.990217
    48  H    0.999108
    49  H    0.999175
    50  H    1.012721
    51  H    0.995527
    52  H    1.006527
    53  H    0.991357
    54  H    1.001162
    55  H    1.004604
    56  H    0.999985
    57  H    1.017482
    58  H    1.015028
    59  H    1.018021
    60  H    1.005383
    61  H    1.007131
    62  H    1.013702
    63  H    0.999701
    64  H    0.997488
    65  H    0.993912
    66  H    1.007397
    67  H    1.003145
    68  H    1.003808
    69  H    0.989423
    70  H    1.003186
    71  H    0.993996
    72  H    1.000955
    73  H    0.980526
    74  H    0.985737
    75  H    0.982441
    76  H    0.991986
    77  H    0.993958
    78  H    0.995930
    79  H    0.999143
    80  Mg  11.999979
    81  C    6.000150
    82  C    5.999796
    83  C    5.999968
    84  C    6.000075
    85  N    7.000000
    86  C    5.999683
    87  C    6.000071
    88  C    5.999910
    89  C    6.000334
    90  C    5.999981
    91  C    6.000065
    92  C    5.999980
    93  H    1.000008
    94  N    6.999984
    95  C    6.000410
    96  C    6.000213
    97  C    6.000174
    98  C    6.000242
    99  C    5.999974
   100  C    6.000168
   101  O    8.000292
   102  C    5.999922
   103  N    7.000023
   104  C    6.000340
   105  C    5.999883
   106  C    6.000122
   107  C    5.999671
   108  C    5.999982
   109  C    6.000004
   110  C    6.000012
   111  N    7.000008
   112  C    5.999641
   113  C    5.999686
   114  C    5.999930
   115  C    5.999743
   116  C    6.000006
   117  C    5.999814
   118  O    7.999596
   119  C    6.000018
   120  C    5.999934
   121  O    7.999979
   122  O    7.999975
   123  C    6.000012
   124  H    1.000065
   125  H    1.000096
   126  H    0.999859
   127  H    1.000012
   128  H    1.000004
   129  H    0.999993
   130  H    1.000117
   131  H    0.999989
   132  H    0.999948
   133  H    1.000053
   134  H    0.999944
   135  H    0.999964
   136  H    1.000225
   137  H    1.000218
   138  H    1.000215
   139  H    1.000049
   140  H    1.000126
   141  H    1.000180
   142  H    0.999989
   143  H    1.000006
   144  H    1.000047
   145  H    0.999941
   146  H    1.000114
   147  H    1.000048
   148  H    0.999863
   149  H    0.999992
   150  H    1.000017
   151  H    0.999929
   152  H    0.999808
   153  H    0.999821
   154  H    0.999850
   155  H    0.999882
   156  H    0.999959
   157  H    0.999934
   158  H    0.999982
 Sum of Mulliken charges = 624.00000

 Dipole moment (field-independent basis, Debye):
    X=              1.8567    Y=              1.9427    Z=              9.7000  Tot=             10.0654
 Quadrupole moment (field-independent basis, Debye-Ang):
   XX=           -101.8020   YY=             -0.0827   ZZ=             11.2583
   XY=            -47.5473   XZ=           -254.2452   YZ=              6.9782

 Normal termination of Gaussian 16 at Fri Oct 15 13:16:44 2021.
