 Gaussian 16, Revision A.03,
 Gaussian 16:  ES64L-G16RevA.03 25-Dec-2016

 --------------------------------------------------------
 #p PBE1PBE/Def2SVP td=(nstates=5) density=(transition=1)
 --------------------------------------------------------

 --------------------------------
 TDDFT excited states in gaussian
 --------------------------------
 Symbolic Z-matrix:
 Charge =  0 Multiplicity = 1

                         Standard orientation:
 ---------------------------------------------------------------------
 Center     Atomic      Atomic             Coordinates (Angstroms)
 Number     Number       Type             X           Y           Z
 ---------------------------------------------------------------------
      1         12           0      -31.442118   -0.232976   -0.269146
      2          6           0      -28.578165    1.431882    0.992896
      3          6           0      -30.468747   -2.976030    1.478945
      4          6           0      -34.551419   -1.499388   -0.805644
      5          6           0      -32.520773    2.805714   -1.540212
      6          7           0      -29.751108   -0.550181    1.195925
      7          6           0      -28.640641    0.190907    1.502085
      8          6           0      -27.684359   -0.562708    2.349751
      9          6           0      -28.178175   -2.077622    2.195286
     10          6           0      -29.535240   -1.877448    1.612093
     11          6           0      -27.239512   -2.893578    1.321150
     12          6           0      -27.733702    0.056992    3.755154
     13          6           0      -26.363151    0.537003    4.394757
     14          1           0      -25.896618    0.023469    5.790226
     15          7           0      -32.417310   -1.989545    0.193475
     16          6           0      -31.782195   -3.045644    0.861534
     17          6           0      -32.651371   -4.182304    0.802498
     18          6           0      -33.881164   -3.796711    0.169609
     19          6           0      -33.620174   -2.392558   -0.246060
     20          6           0      -32.208056   -5.532890    1.350024
     21          6           0      -35.127797   -4.619632   -0.066959
     22          8           0      -34.996215   -5.836399    0.253419
     23          6           0      -36.532421   -4.145317   -0.535862
     24          7           0      -33.317148    0.532143   -1.079627
     25          6           0      -34.442462   -0.202286   -1.221729
     26          6           0      -35.627233    0.603750   -1.816994
     27          6           0      -34.926791    1.964808   -2.155485
     28          6           0      -33.483767    1.767570   -1.490902
     29          6           0      -36.186843   -0.127258   -3.024225
     30          6           0      -35.600253    3.187150   -1.610419
     31          6           0      -36.200183    4.073963   -2.667572
     32          7           0      -30.712726    1.649148   -0.462763
     33          6           0      -31.202033    2.824094   -1.047441
     34          6           0      -30.239196    3.800159   -1.126904
     35          6           0      -29.167593    3.287313   -0.367774
     36          6           0      -29.537305    2.019071    0.074157
     37          6           0      -30.366961    5.037884   -1.989495
     38          6           0      -27.768446    3.564322    0.053166
     39          8           0      -27.081473    4.508641   -0.185182
     40          6           0      -27.443514    2.360154    1.015807
     41          6           0      -26.014979    1.946225    0.737250
     42          8           0      -25.055521    2.211837    1.461361
     43          8           0      -25.949680    1.167681   -0.443790
     44          6           0      -24.608776    0.637365   -0.688688
     45          1           0      -30.065109   -3.922103    1.846346
     46          1           0      -35.529370   -1.896749   -1.087358
     47          1           0      -32.873391    3.824189   -1.712101
     48          1           0      -26.676564   -0.445566    1.951143
     49          1           0      -28.195796   -2.530615    3.186183
     50          1           0      -26.832962   -2.329104    0.483114
     51          1           0      -27.815782   -3.694166    0.856190
     52          1           0      -26.438138   -3.383552    1.874118
     53          1           0      -28.182510   -0.685531    4.414792
     54          1           0      -28.448489    0.874233    3.851601
     55          1           0      -26.559433    1.606745    4.471558
     56          1           0      -25.562794    0.509400    3.656259
     57          1           0      -31.824219   -5.437441    2.365742
     58          1           0      -31.388917   -5.862434    0.710987
     59          1           0      -32.972129   -6.301257    1.475689
     60          1           0      -36.364970   -3.869375   -1.576487
     61          1           0      -36.822003   -3.279032    0.059057
     62          1           0      -37.296545   -4.913348   -0.413177
     63          1           0      -36.460347    0.743692   -1.128663
     64          1           0      -34.719063    2.019256   -3.223813
     65          1           0      -36.380378   -1.157657   -2.725549
     66          1           0      -35.433820   -0.104855   -3.812632
     67          1           0      -37.046612    0.286904   -3.549521
     68          1           0      -34.928567    3.850073   -1.065004
     69          1           0      -36.394933    3.026002   -0.882250
     70          1           0      -37.248594    4.230203   -2.416568
     71          1           0      -36.220425    3.604731   -3.651195
     72          1           0      -35.672455    5.017187   -2.812728
     73          1           0      -29.354780    5.425939   -2.107990
     74          1           0      -30.997301    5.799107   -1.530429
     75          1           0      -30.807589    4.680761   -2.920040
     76          1           0      -27.373441    2.861104    1.982025
     77          1           0      -24.662665   -0.285127   -1.266949
     78          1           0      -24.141552    0.296292    0.234058
     79          1           0      -23.941715    1.361035   -1.157930
     80         12           0       31.416766    0.311564   -0.254044
     81          6           0       28.600549   -1.622029   -0.251876
     82          6           0       29.374395    3.015996    0.831034
     83          6           0       34.221439    2.145935    0.139412
     84          6           0       33.361965   -2.574869   -0.401825
     85          7           0       29.197785    0.544630    0.613501
     86          6           0       28.230021   -0.345840    0.256832
     87          6           0       26.884857    0.158213    0.701144
     88          6           0       27.141286    1.678976    1.089821
     89          6           0       28.674520    1.824143    0.832313
     90          6           0       26.108439    2.655323    0.659127
     91          6           0       26.034724   -0.676020    1.771990
     92          6           0       26.778821   -1.462993    2.809757
     93          1           0       26.327917   -1.302228    4.254794
     94          7           0       31.710441    2.351329    0.161372
     95          6           0       30.789462    3.276893    0.543322
     96          6           0       31.382143    4.558390    0.788513
     97          6           0       32.821621    4.345844    0.469089
     98          6           0       32.974332    2.894010    0.230136
     99          6           0       30.736860    5.794364    1.200770
    100          6           0       33.944541    5.370669    0.397416
    101          8           0       33.768167    6.479934    0.758142
    102          6           0       35.367784    5.110209   -0.011683
    103          7           0       33.446265   -0.161583   -0.019167
    104          6           0       34.389043    0.792340   -0.058512
    105          6           0       35.858975    0.152517    0.158089
    106          6           0       35.557148   -1.322247   -0.401760
    107          6           0       34.059637   -1.357967   -0.210012
    108          6           0       37.007491    0.858485   -0.567999
    109          6           0       36.404855   -2.407252    0.286565
    110          6           0       37.142139   -3.468018   -0.539281
    111          7           0       31.074753   -1.713016   -0.204935
    112          6           0       31.935994   -2.797852   -0.312960
    113          6           0       31.228773   -4.009113   -0.468745
    114          6           0       29.895842   -3.634777   -0.510324
    115          6           0       29.833989   -2.205859   -0.343958
    116          6           0       31.791402   -5.386053   -0.641859
    117          6           0       28.553594   -4.004914   -0.687101
    118          8           0       28.112751   -5.138328   -0.866850
    119          6           0       27.644375   -2.785753   -0.361793
    120          6           0       26.706928   -2.725998   -1.558844
    121          8           0       25.461256   -2.685687   -1.472542
    122          8           0       27.483730   -2.581529   -2.684142
    123          6           0       26.900650   -2.245170   -4.006018
    124          1           0       28.718780    3.764897    1.280084
    125          1           0       35.107474    2.694731    0.464958
    126          1           0       33.980152   -3.466953   -0.519154
    127          1           0       26.199016    0.096307   -0.144570
    128          1           0       27.113182    1.715791    2.178454
    129          1           0       26.521917    3.535923    0.167661
    130          1           0       25.413412    2.901866    1.461797
    131          1           0       25.493445    2.206212   -0.120790
    132          1           0       25.384176   -1.434934    1.337164
    133          1           0       25.465976    0.013159    2.396999
    134          1           0       27.863429   -1.441007    2.709092
    135          1           0       26.499566   -2.507884    2.670443
    136          1           0       29.721447    5.806795    0.805918
    137          1           0       31.253251    6.696539    0.875039
    138          1           0       30.705888    5.781112    2.290847
    139          1           0       35.119548    4.320824   -0.721556
    140          1           0       35.980405    4.725295    0.802972
    141          1           0       35.913405    5.934950   -0.470454
    142          1           0       35.992774    0.084100    1.238107
    143          1           0       35.674545   -1.510154   -1.468718
    144          1           0       37.285177    0.224230   -1.410292
    145          1           0       37.775412    1.162740    0.142621
    146          1           0       36.715127    1.811942   -1.006930
    147          1           0       35.738953   -2.929926    0.973734
    148          1           0       37.099063   -1.907284    0.962163
    149          1           0       38.196349   -3.651887   -0.331522
    150          1           0       36.993639   -3.350096   -1.613459
    151          1           0       36.525394   -4.349612   -0.367525
    152          1           0       31.207139   -6.039339   -1.290348
    153          1           0       31.870211   -5.851333    0.340965
    154          1           0       32.776837   -5.393356   -1.109487
    155          1           0       27.157052   -3.091631    0.563179
    156          1           0       27.519705   -1.549468   -4.572205
    157          1           0       25.920965   -1.797187   -3.839011
    158          1           0       26.691492   -3.025508   -4.736677
 ---------------------------------------------------------------------

 SCF Done:  E(RPBE1PBE) =  -4067.32513753     A.U. after   16 cycles

 Excitation energies and oscillator strengths:

 Excited State   1:      Singlet-A      1.7944 eV  690.96 nm  f=0.3690  <S**2>=0.000
     309 -> 315        0.16553
     311 -> 313        0.69591
     311 <- 313       -0.11768
 This state for optimization and/or second-order correction.
 Total Energy, E(TD-HF/TD-DFT) =  -4067.25919587
 Copying the excited state density for this state as the 1-particle RhoCI density.

 Excited State   2:      Singlet-A      1.8485 eV  670.72 nm  f=0.3436  <S**2>=0.000
     310 -> 316       -0.16628
     312 -> 314        0.69425
     312 <- 314       -0.11259

 Excited State   3:      Singlet-A      1.9094 eV  649.35 nm  f=0.0000  <S**2>=0.000
     312 -> 313        0.70711

 Excited State   4:      Singlet-A      2.0122 eV  616.15 nm  f=0.0000  <S**2>=0.000
     311 -> 314        0.70711

 Excited State   5:      Singlet-A      2.1559 eV  575.10 nm  f=0.1304  <S**2>=0.000
     308 -> 313        0.10038
     309 -> 313        0.65390
     311 -> 315       -0.23180

 The electronic state is 1-A.
 Alpha  occ. eigenvalues --  -46.93349 -46.92417 -19.26765 -19.26291 -19.21266
 Alpha  occ. eigenvalues --  -19.20500 -19.20102 -19.18524 -19.18513 -19.17615
 Alpha  occ. eigenvalues --  -14.42113 -14.41930 -14.41688 -14.41504 -14.39828
 Alpha  occ. eigenvalues --  -14.39710 -14.39220 -14.38732 -10.37433 -10.37420
 Alpha  occ. eigenvalues --  -10.32838 -10.32680 -10.31250 -10.30911 -10.29938
 Alpha  occ. eigenvalues --  -10.29687 -10.29654 -10.29199 -10.28914 -10.28902
 Alpha  occ. eigenvalues --  -10.28890 -10.28779 -10.28652 -10.28538 -10.28304
 Alpha  occ. eigenvalues --  -10.28286 -10.28285 -10.28234 -10.28176 -10.26859
 Alpha  occ. eigenvalues --  -10.26795 -10.26768 -10.26654 -10.26331 -10.26236
 Alpha  occ. eigenvalues --  -10.26231 -10.26190 -10.26187 -10.26128 -10.26118
 Alpha  occ. eigenvalues --  -10.26031 -10.26020 -10.25969 -10.25956 -10.25894
 Alpha  occ. eigenvalues --  -10.25822 -10.25807 -10.25776 -10.25437 -10.25394
 Alpha  occ. eigenvalues --  -10.25304 -10.25248 -10.25140 -10.25043 -10.25007
 Alpha  occ. eigenvalues --  -10.24746 -10.24674 -10.24648 -10.24625 -10.24396
 Alpha  occ. eigenvalues --  -10.24352 -10.24305 -10.24060 -10.24045 -10.23963
 Alpha  occ. eigenvalues --  -10.23832 -10.23772 -10.23643 -10.23570 -10.23555
 Alpha  occ. eigenvalues --  -10.22976 -10.22904 -10.22808 -10.22703 -10.22624
 Alpha  occ. eigenvalues --  -10.22620  -3.15401  -3.14559  -1.88197  -1.87811
 Alpha  occ. eigenvalues --   -1.87599  -1.87380  -1.86939  -1.86787  -1.10346
 Alpha  occ. eigenvalues --   -1.10323  -1.06859  -1.06381  -1.03907  -1.02804
 Alpha  occ. eigenvalues --   -1.02317  -1.01979  -0.99884  -0.99750  -0.98955
 Alpha  occ. eigenvalues --   -0.98937  -0.97998  -0.97630  -0.97410  -0.96910
 Alpha  occ. eigenvalues --   -0.87934  -0.87699  -0.84205  -0.84109  -0.83641
 Alpha  occ. eigenvalues --   -0.83368  -0.83004  -0.82739  -0.82197  -0.82178
 Alpha  occ. eigenvalues --   -0.81577  -0.81421  -0.80357  -0.80243  -0.79107
 Alpha  occ. eigenvalues --   -0.78868  -0.78622  -0.78226  -0.77380  -0.76941
 Alpha  occ. eigenvalues --   -0.76425  -0.76105  -0.75313  -0.75022  -0.74873
 Alpha  occ. eigenvalues --   -0.74836  -0.72795  -0.72150  -0.72117  -0.71756
 Alpha  occ. eigenvalues --   -0.71385  -0.71191  -0.70956  -0.70806  -0.69875
 Alpha  occ. eigenvalues --   -0.69872  -0.68066  -0.67995  -0.66679  -0.66214
 Alpha  occ. eigenvalues --   -0.64372  -0.63828  -0.63787  -0.63384  -0.62719
 Alpha  occ. eigenvalues --   -0.62128  -0.61688  -0.61171  -0.60702  -0.60661
 Alpha  occ. eigenvalues --   -0.60160  -0.60093  -0.59949  -0.59508  -0.59237
 Alpha  occ. eigenvalues --   -0.58837  -0.58110  -0.57690  -0.55084  -0.54842
 Alpha  occ. eigenvalues --   -0.54634  -0.54218  -0.54006  -0.53650  -0.53521
 Alpha  occ. eigenvalues --   -0.52724  -0.52624  -0.51984  -0.51841  -0.51388
 Alpha  occ. eigenvalues --   -0.51141  -0.50839  -0.50367  -0.50346  -0.50218
 Alpha  occ. eigenvalues --   -0.49872  -0.49652  -0.49438  -0.48987  -0.48976
 Alpha  occ. eigenvalues --   -0.48503  -0.48457  -0.48235  -0.47956  -0.47816
 Alpha  occ. eigenvalues --   -0.47729  -0.47397  -0.47069  -0.46843  -0.46522
 Alpha  occ. eigenvalues --   -0.46488  -0.46392  -0.46378  -0.46208  -0.46002
 Alpha  occ. eigenvalues --   -0.45739  -0.45659  -0.45528  -0.45373  -0.45176
 Alpha  occ. eigenvalues --   -0.45157  -0.44841  -0.44680  -0.44632  -0.44504
 Alpha  occ. eigenvalues --   -0.44317  -0.44282  -0.44140  -0.43840  -0.43636
 Alpha  occ. eigenvalues --   -0.43593  -0.43305  -0.43007  -0.42952  -0.42655
 Alpha  occ. eigenvalues --   -0.42484  -0.42427  -0.42318  -0.42005  -0.41929
 Alpha  occ. eigenvalues --   -0.41894  -0.41834  -0.41673  -0.41636  -0.41332
 Alpha  occ. eigenvalues --   -0.41183  -0.41176  -0.40928  -0.40827  -0.40657
 Alpha  occ. eigenvalues --   -0.40483  -0.40289  -0.40214  -0.40145  -0.40138
 Alpha  occ. eigenvalues --   -0.40087  -0.39950  -0.39756  -0.39684  -0.39562
 Alpha  occ. eigenvalues --   -0.38975  -0.38951  -0.38797  -0.38683  -0.38492
 Alpha  occ. eigenvalues --   -0.38327  -0.38144  -0.37952  -0.37574  -0.37509
 Alpha  occ. eigenvalues --   -0.37465  -0.37325  -0.37270  -0.37218  -0.37101
 Alpha  occ. eigenvalues --   -0.36909  -0.36896  -0.36764  -0.36570  -0.36542
 Alpha  occ. eigenvalues --   -0.36411  -0.36409  -0.36216  -0.36201  -0.36016
 Alpha  occ. eigenvalues --   -0.35474  -0.35126  -0.35059  -0.34054  -0.33938
 Alpha  occ. eigenvalues --   -0.33766  -0.33677  -0.33204  -0.33049  -0.32773
 Alpha  occ. eigenvalues --   -0.32393  -0.32326  -0.32203  -0.31830  -0.31458
 Alpha  occ. eigenvalues --   -0.31144  -0.30664  -0.30304  -0.29859  -0.29808
 Alpha  occ. eigenvalues --   -0.28978  -0.28858  -0.28583  -0.27426  -0.27155
 Alpha  occ. eigenvalues --   -0.26328  -0.26165  -0.25675  -0.25491  -0.25268
 Alpha  occ. eigenvalues --   -0.25104  -0.24941  -0.23741  -0.21409  -0.21382
 Alpha  occ. eigenvalues --   -0.19354  -0.19279
 Alpha virt. eigenvalues --   -0.12052  -0.11748  -0.05480  -0.05372  -0.03986
 Alpha virt. eigenvalues --   -0.03885  -0.02118  -0.01887  -0.01788  -0.00956
 Alpha virt. eigenvalues --   -0.00472  -0.00045   0.00616   0.00717   0.01392

 Mulliken charges:
               1
     1  Mg  11.999991
     2  C    6.000044
     3  C    5.999949
     4  C    5.999962
     5  C    6.000047
     6  N    6.999970
     7  C    5.999966
     8  C    5.999978
     9  C    6.000030
    10  C    5.999989
    11  C    6.000017
    12  C    5.999992
    13  C    5.999998
    14  H    1.000004
    15  N    7.000052
    16  C    5.999965
    17  C    5.999982
    18  C    5.999918
    19  C    5.999976
    20  C    6.000012
    21  C    5.999985
    22  O    7.999976
    23  C    6.000020
    24  N    7.000030
    25  C    6.000020
    26  C    6.000009
    27  C    5.999990
    28  C    6.000018
    29  C    6.000007
    30  C    5.999982
    31  C    5.999991
    32  N    6.999982
    33  C    6.000020
    34  C    6.000035
    35  C    6.000035
    36  C    6.000021
    37  C    5.999998
    38  C    6.000018
    39  O    8.000065
    40  C    5.999989
    41  C    6.000021
    42  O    7.999991
    43  O    8.000001
    44  C    5.999993
    45  H    0.999964
    46  H    1.000011
    47  H    1.000037
    48  H    0.999984
    49  H    0.999990
    50  H    0.999968
    51  H    1.000005
    52  H    0.999960
    53  H    1.000024
    54  H    1.000001
    55  H    1.000002
    56  H    0.999992
    57  H    0.999968
    58  H    0.999958
    59  H    0.999963
    60  H    0.999974
    61  H    0.999980
    62  H    0.999973
    63  H    1.000006
    64  H    0.999998
    65  H    1.000017
    66  H    0.999987
    67  H    0.999990
    68  H    0.999991
    69  H    1.000027
    70  H    1.000023
    71  H    1.000008
    72  H    1.000004
    73  H    1.000042
    74  H    1.000053
    75  H    1.000031
    76  H    1.000016
    77  H    1.000004
    78  H    1.000006
    79  H    1.000004
    80  Mg  11.997408
    81  C    5.998903
    82  C    6.014377
    83  C    6.017168
    84  C    5.987359
    85  N    7.005148
    86  C    6.025110
    87  C    5.990604
    88  C    6.013271
    89  C    5.964499
    90  C    6.001306
    91  C    5.999507
    92  C    5.997324
    93  H    1.010090
    94  N    7.003860
    95  C    5.957809
    96  C    5.976611
    97  C    5.993777
    98  C    5.959884
    99  C    6.003817
   100  C    5.989553
   101  O    7.980948
   102  C    5.999007
   103  N    6.997574
   104  C    5.970884
   105  C    6.009492
   106  C    5.988897
   107  C    6.034726
   108  C    6.000359
   109  C    5.997864
   110  C    6.001284
   111  N    6.999557
   112  C    6.031847
   113  C    6.024112
   114  C    6.006814
   115  C    6.024042
   116  C    5.997756
   117  C    6.016837
   118  O    8.034157
   119  C    5.998073
   120  C    6.005817
   121  O    8.011204
   122  O    7.994844
   123  C    5.995232
   124  H    0.991045
   125  H    0.993443
   126  H    1.008034
   127  H    0.997978
   128  H    0.994409
   129  H    1.005178
   130  H    0.996036
   131  H    0.991086
   132  H    0.996864
   133  H    1.008860
   134  H    0.995993
   135  H    0.996113
   136  H    0.982293
   137  H    0.985229
   138  H    0.978969
   139  H    0.995518
   140  H    0.988672
   141  H    0.987799
   142  H    0.996272
   143  H    1.003095
   144  H    0.992542
   145  H    0.999094
   146  H    1.006478
   147  H    0.997204
   148  H    1.009409
   149  H    1.004525
   150  H    1.000965
   151  H    0.995229
   152  H    1.012688
   153  H    1.017360
   154  H    1.017121
   155  H    1.008077
   156  H    1.006995
   157  H    1.006672
   158  H    1.004048
 Sum of Mulliken charges = 624.00000

 Dipole moment (field-independent basis, Debye):
    X=             -2.1968    Y=            -10.0707    Z=             -1.4854  Tot=             10.4140
 Quadrupole moment (field-independent basis, Debye-Ang):
   XX=           -134.8008   YY=             -7.1181   ZZ=              1.0689
   XY=           -316.0776   XZ=            -44.4382   YZ=             -0.9957

 Normal termination of Gaussian 16 at Thu Oct 14 22:08:46 2021.
