 Gaussian 16, Revision A.03,
 Gaussian 16:  ES64L-G16RevA.03 25-Dec-2016

 --------------------------------------------------------
 #p PBE1PBE/Def2SVP td=(nstates=5) density=(transition=1)
 --------------------------------------------------------

 --------------------------------
 TDDFT excited states in gaussian
 --------------------------------
 Symbolic Z-matrix:
 Charge =  0 Multiplicity = 1

                         Standard orientation:
 ---------------------------------------------------------------------
 Center     Atomic      Atomic             Coordinates (Angstroms)
 Number     Number       Type             X           Y           Z
 ---------------------------------------------------------------------
      1         12           0       28.734721    0.571845    0.572145
      2          6           0       28.967176   -2.545846   -0.955981
      3          6           0       27.322589    1.847875   -2.207973
      4          6           0       28.969879    3.638636    1.973920
      5          6           0       30.615928   -0.685785    3.173917
      6          7           0       28.223948   -0.304250   -1.398369
      7          6           0       28.220412   -1.640337   -1.708874
      8          6           0       27.602649   -1.859748   -3.037383
      9          6           0       27.107107   -0.491017   -3.518402
     10          6           0       27.537230    0.461583   -2.321117
     11          6           0       27.531532    0.005041   -4.891974
     12          6           0       26.439983   -3.004386   -2.973264
     13          6           0       26.643644   -4.283767   -3.818230
     14          1           0       25.486617   -4.922895   -4.546038
     15          7           0       28.113065    2.453490    0.025161
     16          6           0       27.550224    2.799209   -1.194237
     17          6           0       27.321763    4.197837   -1.232786
     18          6           0       27.800509    4.756053   -0.016563
     19          6           0       28.306461    3.600345    0.731086
     20          6           0       26.529102    4.793448   -2.461354
     21          6           0       27.825059    6.245873    0.320640
     22          8           0       28.313111    6.741702    1.347466
     23          6           0       27.162326    7.201197   -0.571361
     24          7           0       29.860882    1.472747    2.209183
     25          6           0       29.706601    2.702809    2.653696
     26          6           0       30.621677    2.971034    3.869762
     27          6           0       30.670688    1.492289    4.422698
     28          6           0       30.332407    0.671508    3.182239
     29          6           0       32.076861    3.536275    3.671745
     30          6           0       29.699955    1.141532    5.649920
     31          6           0       28.248575    1.313340    5.460061
     32          7           0       29.715826   -1.266764    1.094126
     33          6           0       30.456292   -1.644083    2.231550
     34          6           0       30.863993   -3.006509    2.099831
     35          6           0       30.380182   -3.394213    0.866201
     36          6           0       29.590720   -2.320763    0.337939
     37          6           0       31.823553   -3.703264    2.934376
     38          6           0       30.172471   -4.500041    0.055386
     39          8           0       30.557580   -5.670266    0.146500
     40          6           0       29.338586   -4.020983   -1.219018
     41          6           0       30.293682   -4.086436   -2.364690
     42          8           0       31.357080   -3.537344   -2.563244
     43          8           0       29.752265   -4.960957   -3.214481
     44          6           0       30.508092   -5.194026   -4.488569
     45          1           0       26.678891    2.084692   -3.057663
     46          1           0       28.883097    4.615607    2.452509
     47          1           0       31.153889   -1.086881    4.035169
     48          1           0       28.417940   -2.215800   -3.665943
     49          1           0       26.017367   -0.488158   -3.509922
     50          1           0       28.386374    0.585905   -4.547653
     51          1           0       26.772293    0.548048   -5.455104
     52          1           0       27.900955   -0.703730   -5.632602
     53          1           0       25.486192   -2.546571   -3.233870
     54          1           0       26.328310   -3.459616   -1.988872
     55          1           0       26.942313   -5.061290   -3.114530
     56          1           0       27.493437   -4.196963   -4.493989
     57          1           0       27.109200    5.616622   -2.878021
     58          1           0       25.694285    5.199061   -1.889683
     59          1           0       26.346643    4.150133   -3.322199
     60          1           0       27.567827    7.141006   -1.580384
     61          1           0       27.539375    8.180953   -0.279038
     62          1           0       26.072704    7.195767   -0.533228
     63          1           0       30.035053    3.490361    4.627701
     64          1           0       31.696128    1.388270    4.776513
     65          1           0       32.630198    3.132896    2.824537
     66          1           0       32.547600    3.299140    4.626506
     67          1           0       32.054774    4.617364    3.531890
     68          1           0       29.903331    1.732806    6.543081
     69          1           0       29.676629    0.068332    5.838901
     70          1           0       27.960519    0.402950    4.936275
     71          1           0       27.883819    2.146528    4.858581
     72          1           0       27.609896    1.351096    6.341925
     73          1           0       32.786879   -3.390022    2.530141
     74          1           0       31.764819   -4.791009    2.909267
     75          1           0       31.697805   -3.504011    3.999171
     76          1           0       28.413608   -4.578720   -1.365857
     77          1           0       29.923721   -4.671441   -5.246209
     78          1           0       30.599227   -6.264597   -4.670669
     79          1           0       31.511391   -4.773247   -4.560876
     80         12           0      -29.678726   -0.310560    0.066780
     81          6           0      -26.445290    0.330968   -1.180788
     82          6           0      -28.321171   -2.768863    1.899384
     83          6           0      -32.602321   -0.473731    1.518187
     84          6           0      -30.633456    2.781270   -1.449645
     85          7           0      -27.597557   -1.078964    0.345247
     86          6           0      -26.447694   -0.754917   -0.292366
     87          6           0      -25.268305   -1.620625    0.102084
     88          6           0      -26.020460   -2.768689    0.887667
     89          6           0      -27.412074   -2.208026    1.095743
     90          6           0      -26.053580   -4.170804    0.150567
     91          6           0      -24.042229   -1.040143    0.933148
     92          6           0      -24.136736    0.318382    1.677185
     93          1           0      -23.340341    0.477646    3.025947
     94          7           0      -30.372282   -1.603142    1.450125
     95          6           0      -29.663981   -2.465163    2.167235
     96          6           0      -30.546252   -3.072000    3.200924
     97          6           0      -31.893917   -2.483799    2.958085
     98          6           0      -31.645362   -1.460136    1.942574
     99          6           0      -30.130548   -4.198557    4.108092
    100          6           0      -33.149002   -2.812499    3.723434
    101          8           0      -33.104065   -3.693507    4.578487
    102          6           0      -34.530121   -2.074473    3.571909
    103          7           0      -31.417348    1.074307    0.133482
    104          6           0      -32.476163    0.594821    0.688573
    105          6           0      -33.674405    1.597095    0.374254
    106          6           0      -32.926535    2.716053   -0.353620
    107          6           0      -31.527446    2.172946   -0.571589
    108          6           0      -34.904566    1.078212   -0.388789
    109          6           0      -32.729081    4.049727    0.536906
    110          6           0      -33.481103    5.307608    0.064834
    111          7           0      -28.790309    1.286878   -1.016362
    112          6           0      -29.301604    2.383131   -1.659271
    113          6           0      -28.298051    2.958865   -2.591722
    114          6           0      -27.084197    2.255113   -2.350907
    115          6           0      -27.513055    1.181484   -1.456295
    116          6           0      -28.456443    4.219237   -3.471206
    117          6           0      -25.694447    2.122615   -2.635976
    118          8           0      -24.862761    2.818807   -3.243045
    119          6           0      -25.225016    0.815601   -1.947807
    120          6           0      -24.683679   -0.096502   -3.052495
    121          8           0      -23.570468   -0.422808   -3.368586
    122          8           0      -25.774242   -0.755757   -3.630052
    123          6           0      -25.486734   -1.796627   -4.665320
    124          1           0      -27.850591   -3.557640    2.490331
    125          1           0      -33.574773   -0.594895    2.001573
    126          1           0      -31.014261    3.566519   -2.105469
    127          1           0      -24.914478   -2.044322   -0.837629
    128          1           0      -25.513424   -2.945675    1.836300
    129          1           0      -25.587447   -4.105251   -0.831980
    130          1           0      -27.118183   -4.281063   -0.052821
    131          1           0      -25.618851   -4.934692    0.795488
    132          1           0      -23.194415   -0.997559    0.249286
    133          1           0      -23.739423   -1.780382    1.674501
    134          1           0      -25.196517    0.462874    1.887276
    135          1           0      -23.674475    1.146880    1.141404
    136          1           0      -30.970982   -4.686802    4.600991
    137          1           0      -29.358208   -3.793661    4.763116
    138          1           0      -29.576551   -4.866858    3.448056
    139          1           0      -34.999056   -1.951196    2.594961
    140          1           0      -34.395937   -1.042446    3.895989
    141          1           0      -35.312827   -2.544482    4.166665
    142          1           0      -34.140567    1.959187    1.289975
    143          1           0      -33.335441    3.101796   -1.288131
    144          1           0      -34.820941    0.016046   -0.619366
    145          1           0      -35.097263    1.663266   -1.288681
    146          1           0      -35.828128    1.133635    0.187467
    147          1           0      -31.684858    4.356641    0.577285
    148          1           0      -33.046811    3.775376    1.543061
    149          1           0      -32.978242    6.255663    0.257286
    150          1           0      -34.397482    5.328071    0.654627
    151          1           0      -33.599302    5.139455   -1.005681
    152          1           0      -29.318931    4.841645   -3.235082
    153          1           0      -28.575081    3.822042   -4.479006
    154          1           0      -27.511884    4.762486   -3.457790
    155          1           0      -24.427762    1.046233   -1.241971
    156          1           0      -24.599006   -1.682352   -5.287011
    157          1           0      -26.329171   -1.701607   -5.350167
    158          1           0      -25.502305   -2.845176   -4.367297
 ---------------------------------------------------------------------

 SCF Done:  E(RPBE1PBE) =  -4067.33830881     A.U. after   16 cycles

 Excitation energies and oscillator strengths:

 Excited State   1:      Singlet-A      1.8587 eV  667.04 nm  f=0.3468  <S**2>=0.000
     310 -> 316       -0.16381
     312 -> 314        0.69253
     312 <- 314       -0.10764
 This state for optimization and/or second-order correction.
 Total Energy, E(TD-HF/TD-DFT) =  -4067.27000207
 Copying the excited state density for this state as the 1-particle RhoCI density.

 Excited State   2:      Singlet-A      1.9112 eV  648.73 nm  f=0.3978  <S**2>=0.000
     309 -> 315       -0.17702
     311 -> 313        0.69114
     311 <- 313       -0.10569

 Excited State   3:      Singlet-A      2.0152 eV  615.25 nm  f=0.0000  <S**2>=0.000
     312 -> 313        0.70711

 Excited State   4:      Singlet-A      2.0510 eV  604.50 nm  f=0.0000  <S**2>=0.000
     311 -> 314        0.70711

 Excited State   5:      Singlet-A      2.1770 eV  569.52 nm  f=0.1428  <S**2>=0.000
     310 -> 314        0.66023
     312 -> 316        0.23477

 The electronic state is 1-A.
 Alpha  occ. eigenvalues --  -46.93472 -46.92732 -19.25684 -19.25227 -19.20593
 Alpha  occ. eigenvalues --  -19.19538 -19.19303 -19.18983 -19.18903 -19.18470
 Alpha  occ. eigenvalues --  -14.41843 -14.41636 -14.41317 -14.41220 -14.40025
 Alpha  occ. eigenvalues --  -14.39897 -14.39382 -14.38612 -10.36870 -10.35605
 Alpha  occ. eigenvalues --  -10.32931 -10.32679 -10.32210 -10.31277 -10.29210
 Alpha  occ. eigenvalues --  -10.29124 -10.29078 -10.28932 -10.28910 -10.28744
 Alpha  occ. eigenvalues --  -10.28692 -10.28564 -10.28519 -10.28367 -10.28012
 Alpha  occ. eigenvalues --  -10.27954 -10.27833 -10.27813 -10.27646 -10.27642
 Alpha  occ. eigenvalues --  -10.27513 -10.26874 -10.26796 -10.26756 -10.26624
 Alpha  occ. eigenvalues --  -10.26609 -10.26500 -10.26434 -10.26370 -10.26351
 Alpha  occ. eigenvalues --  -10.25907 -10.25810 -10.25806 -10.25766 -10.25676
 Alpha  occ. eigenvalues --  -10.25625 -10.25603 -10.25538 -10.25482 -10.25340
 Alpha  occ. eigenvalues --  -10.25263 -10.25238 -10.25159 -10.25129 -10.25019
 Alpha  occ. eigenvalues --  -10.24954 -10.24908 -10.24791 -10.24472 -10.24397
 Alpha  occ. eigenvalues --  -10.24157 -10.24050 -10.24047 -10.24011 -10.24008
 Alpha  occ. eigenvalues --  -10.23979 -10.23965 -10.23745 -10.23689 -10.23402
 Alpha  occ. eigenvalues --  -10.23374 -10.23224 -10.23028 -10.22883 -10.22339
 Alpha  occ. eigenvalues --  -10.22120  -3.15532  -3.14725  -1.88360  -1.87904
 Alpha  occ. eigenvalues --   -1.87758  -1.87568  -1.87077  -1.86964  -1.11778
 Alpha  occ. eigenvalues --   -1.10770  -1.04465  -1.03901  -1.03854  -1.03296
 Alpha  occ. eigenvalues --   -1.02170  -1.02078  -1.01414  -1.00033  -0.99443
 Alpha  occ. eigenvalues --   -0.98927  -0.98718  -0.98058  -0.98044  -0.97316
 Alpha  occ. eigenvalues --   -0.87862  -0.86557  -0.84186  -0.83519  -0.83196
 Alpha  occ. eigenvalues --   -0.83040  -0.82889  -0.82693  -0.82643  -0.82267
 Alpha  occ. eigenvalues --   -0.81943  -0.81159  -0.81121  -0.79907  -0.79206
 Alpha  occ. eigenvalues --   -0.78943  -0.78540  -0.78207  -0.77366  -0.77187
 Alpha  occ. eigenvalues --   -0.76245  -0.76040  -0.75837  -0.75130  -0.75084
 Alpha  occ. eigenvalues --   -0.74798  -0.73082  -0.72850  -0.71999  -0.71976
 Alpha  occ. eigenvalues --   -0.71711  -0.71349  -0.70958  -0.70298  -0.69803
 Alpha  occ. eigenvalues --   -0.69696  -0.67923  -0.67755  -0.66901  -0.66143
 Alpha  occ. eigenvalues --   -0.64026  -0.63778  -0.63599  -0.63475  -0.63079
 Alpha  occ. eigenvalues --   -0.62166  -0.62084  -0.61576  -0.61326  -0.60273
 Alpha  occ. eigenvalues --   -0.60181  -0.60012  -0.59914  -0.59428  -0.59329
 Alpha  occ. eigenvalues --   -0.58489  -0.57677  -0.56621  -0.55144  -0.55011
 Alpha  occ. eigenvalues --   -0.54906  -0.54489  -0.54060  -0.53882  -0.53258
 Alpha  occ. eigenvalues --   -0.53196  -0.52824  -0.52756  -0.52377  -0.51685
 Alpha  occ. eigenvalues --   -0.51039  -0.51036  -0.50427  -0.50254  -0.50157
 Alpha  occ. eigenvalues --   -0.50099  -0.49622  -0.49621  -0.49350  -0.49194
 Alpha  occ. eigenvalues --   -0.49076  -0.48525  -0.48289  -0.47904  -0.47816
 Alpha  occ. eigenvalues --   -0.47547  -0.47449  -0.47385  -0.47283  -0.46734
 Alpha  occ. eigenvalues --   -0.46631  -0.46490  -0.46317  -0.46111  -0.45851
 Alpha  occ. eigenvalues --   -0.45763  -0.45686  -0.45650  -0.45224  -0.44988
 Alpha  occ. eigenvalues --   -0.44673  -0.44433  -0.44419  -0.44320  -0.44122
 Alpha  occ. eigenvalues --   -0.44089  -0.43832  -0.43725  -0.43597  -0.43497
 Alpha  occ. eigenvalues --   -0.43236  -0.43159  -0.43154  -0.42977  -0.42922
 Alpha  occ. eigenvalues --   -0.42721  -0.42619  -0.42336  -0.42190  -0.41979
 Alpha  occ. eigenvalues --   -0.41903  -0.41773  -0.41706  -0.41532  -0.41398
 Alpha  occ. eigenvalues --   -0.41364  -0.41109  -0.40978  -0.40789  -0.40753
 Alpha  occ. eigenvalues --   -0.40601  -0.40527  -0.40246  -0.40136  -0.40077
 Alpha  occ. eigenvalues --   -0.39677  -0.39408  -0.39137  -0.39033  -0.39006
 Alpha  occ. eigenvalues --   -0.38852  -0.38822  -0.38535  -0.38411  -0.38179
 Alpha  occ. eigenvalues --   -0.38155  -0.38045  -0.37931  -0.37760  -0.37704
 Alpha  occ. eigenvalues --   -0.37298  -0.37063  -0.37026  -0.36980  -0.36949
 Alpha  occ. eigenvalues --   -0.36865  -0.36716  -0.36432  -0.36321  -0.36157
 Alpha  occ. eigenvalues --   -0.35951  -0.35826  -0.35794  -0.35610  -0.35580
 Alpha  occ. eigenvalues --   -0.35097  -0.34913  -0.34375  -0.34125  -0.33879
 Alpha  occ. eigenvalues --   -0.33835  -0.33281  -0.33057  -0.33045  -0.32711
 Alpha  occ. eigenvalues --   -0.32687  -0.32039  -0.31987  -0.31554  -0.31372
 Alpha  occ. eigenvalues --   -0.31330  -0.31175  -0.30072  -0.29680  -0.29431
 Alpha  occ. eigenvalues --   -0.29199  -0.29107  -0.28983  -0.27450  -0.27108
 Alpha  occ. eigenvalues --   -0.26597  -0.26174  -0.26166  -0.25910  -0.25794
 Alpha  occ. eigenvalues --   -0.25728  -0.25237  -0.25081  -0.21431  -0.20969
 Alpha  occ. eigenvalues --   -0.19200  -0.19076
 Alpha virt. eigenvalues --   -0.11444  -0.11437  -0.05545  -0.05163  -0.04794
 Alpha virt. eigenvalues --   -0.03917  -0.02669  -0.02126  -0.01465  -0.00602
 Alpha virt. eigenvalues --    0.00159   0.00504   0.01034   0.01239   0.01926

 Mulliken charges:
               1
     1  Mg  11.996829
     2  C    5.969873
     3  C    5.997190
     4  C    6.029718
     5  C    6.017283
     6  N    6.979311
     7  C    6.032075
     8  C    5.989731
     9  C    6.004439
    10  C    5.977968
    11  C    6.002287
    12  C    5.998438
    13  C    5.999954
    14  H    1.002762
    15  N    7.006285
    16  C    5.967458
    17  C    5.980804
    18  C    5.986829
    19  C    5.966649
    20  C    5.999467
    21  C    5.988087
    22  O    7.972055
    23  C    6.007702
    24  N    7.022619
    25  C    5.962670
    26  C    6.008825
    27  C    5.990997
    28  C    6.019047
    29  C    5.998975
    30  C    5.991172
    31  C    6.000906
    32  N    6.996446
    33  C    6.025829
    34  C    6.029119
    35  C    6.004613
    36  C    6.027613
    37  C    5.997107
    38  C    6.011744
    39  O    8.033355
    40  C    6.001660
    41  C    6.003923
    42  O    8.002287
    43  O    8.001223
    44  C    5.998223
    45  H    0.985687
    46  H    0.999344
    47  H    1.014752
    48  H    0.998544
    49  H    0.996955
    50  H    1.000602
    51  H    0.998303
    52  H    0.987087
    53  H    1.006290
    54  H    0.995049
    55  H    0.994253
    56  H    1.000000
    57  H    0.983952
    58  H    0.986026
    59  H    0.986762
    60  H    0.995266
    61  H    0.987113
    62  H    0.991771
    63  H    1.002166
    64  H    1.004915
    65  H    0.996660
    66  H    0.993941
    67  H    1.006323
    68  H    1.010224
    69  H    0.996843
    70  H    0.994021
    71  H    1.015218
    72  H    1.004689
    73  H    1.019171
    74  H    1.015023
    75  H    1.014998
    76  H    1.006874
    77  H    1.006440
    78  H    1.001388
    79  H    1.001803
    80  Mg  12.000003
    81  C    5.999965
    82  C    6.000074
    83  C    6.000092
    84  C    5.999983
    85  N    7.000017
    86  C    6.000063
    87  C    5.999949
    88  C    6.000038
    89  C    5.999853
    90  C    6.000012
    91  C    6.000020
    92  C    5.999960
    93  H    1.000049
    94  N    7.000037
    95  C    5.999819
    96  C    5.999953
    97  C    6.000027
    98  C    5.999819
    99  C    5.999963
   100  C    6.000002
   101  O    7.999892
   102  C    5.999953
   103  N    6.999962
   104  C    5.999895
   105  C    6.000035
   106  C    6.000000
   107  C    6.000112
   108  C    6.000005
   109  C    5.999976
   110  C    6.000010
   111  N    6.999869
   112  C    6.000154
   113  C    6.000069
   114  C    6.000071
   115  C    6.000193
   116  C    6.000018
   117  C    5.999989
   118  O    8.000184
   119  C    5.999969
   120  C    6.000034
   121  O    8.000034
   122  O    7.999987
   123  C    5.999995
   124  H    0.999948
   125  H    0.999958
   126  H    1.000037
   127  H    1.000014
   128  H    0.999989
   129  H    0.999961
   130  H    1.000004
   131  H    0.999987
   132  H    1.000009
   133  H    1.000025
   134  H    1.000003
   135  H    1.000004
   136  H    0.999943
   137  H    0.999923
   138  H    0.999913
   139  H    0.999967
   140  H    0.999978
   141  H    0.999947
   142  H    0.999992
   143  H    1.000000
   144  H    1.000001
   145  H    0.999964
   146  H    0.999987
   147  H    0.999996
   148  H    1.000037
   149  H    1.000004
   150  H    1.000006
   151  H    0.999995
   152  H    1.000077
   153  H    1.000065
   154  H    1.000061
   155  H    1.000055
   156  H    1.000023
   157  H    1.000006
   158  H    1.000018
 Sum of Mulliken charges = 624.00000

 Dipole moment (field-independent basis, Debye):
    X=              4.0094    Y=             -8.1110    Z=              4.0652  Tot=              9.9192
 Quadrupole moment (field-independent basis, Debye-Ang):
   XX=            231.0737   YY=             -9.7888   ZZ=              4.8316
   XY=           -235.7758   XZ=            120.6640   YZ=              0.1486

 Normal termination of Gaussian 16 at Thu Oct 14 04:28:13 2021.
