 Gaussian 16, Revision A.03,
 Gaussian 16:  ES64L-G16RevA.03 25-Dec-2016

 --------------------------------------------------------
 #p PBE1PBE/Def2SVP td=(nstates=5) density=(transition=1)
 --------------------------------------------------------

 --------------------------------
 TDDFT excited states in gaussian
 --------------------------------
 Symbolic Z-matrix:
 Charge =  0 Multiplicity = 1

                         Standard orientation:
 ---------------------------------------------------------------------
 Center     Atomic      Atomic             Coordinates (Angstroms)
 Number     Number       Type             X           Y           Z
 ---------------------------------------------------------------------
      1         12           0       26.333214   -0.883493    0.055082
      2          6           0       26.965651    2.428158   -0.977953
      3          6           0       25.843324    0.291819    3.247269
      4          6           0       25.795623   -4.017994    1.135093
      5          6           0       27.399806   -2.082656   -3.054191
      6          7           0       26.285957    1.135910    0.892376
      7          6           0       26.540949    2.341666    0.392456
      8          6           0       26.404393    3.533498    1.362744
      9          6           0       26.334945    2.673084    2.715917
     10          6           0       26.187929    1.244326    2.252571
     11          6           0       27.536385    2.852199    3.611905
     12          6           0       25.075528    4.442941    1.124842
     13          6           0       25.245509    5.889962    1.596740
     14          1           0       25.096327    6.945767    0.471178
     15          7           0       25.711104   -1.769868    1.920892
     16          6           0       25.617610   -1.067666    3.147987
     17          6           0       24.982838   -1.961335    4.090404
     18          6           0       24.932379   -3.220669    3.499535
     19          6           0       25.471713   -3.063759    2.112346
     20          6           0       24.681364   -1.595426    5.531468
     21          6           0       24.398887   -4.543264    4.000425
     22          8           0       24.388140   -5.493129    3.273125
     23          6           0       23.806237   -4.695766    5.365727
     24          7           0       26.743681   -2.787256   -0.740082
     25          6           0       26.361823   -3.946705   -0.130505
     26          6           0       26.650491   -5.088512   -1.144262
     27          6           0       26.587994   -4.454793   -2.522456
     28          6           0       26.957071   -3.002704   -2.137760
     29          6           0       28.056734   -5.635357   -0.902843
     30          6           0       25.281982   -4.596087   -3.212657
     31          6           0       24.013857   -4.298636   -2.451428
     32          7           0       27.014332   -0.055737   -1.703790
     33          6           0       27.424467   -0.638165   -2.888293
     34          6           0       27.801592    0.424524   -3.833058
     35          6           0       27.607454    1.621988   -3.122798
     36          6           0       27.144353    1.286446   -1.879847
     37          6           0       28.318379    0.238123   -5.193988
     38          6           0       27.563005    3.056338   -3.220578
     39          8           0       27.795012    3.827694   -4.197385
     40          6           0       27.100322    3.615237   -1.792781
     41          6           0       28.229153    4.476028   -1.287705
     42          8           0       29.371062    4.123090   -1.301102
     43          8           0       27.845095    5.726065   -0.731078
     44          6           0       28.908076    6.425191    0.053215
     45          1           0       25.735073    0.638127    4.276660
     46          1           0       25.729934   -5.054591    1.473224
     47          1           0       27.575279   -2.371947   -4.092702
     48          1           0       27.252511    4.209235    1.245556
     49          1           0       25.437745    3.043931    3.213039
     50          1           0       27.246126    3.587135    4.362545
     51          1           0       28.444939    3.092969    3.059538
     52          1           0       27.586788    1.916204    4.168112
     53          1           0       24.233857    4.018025    1.672655
     54          1           0       24.775436    4.416978    0.077093
     55          1           0       26.236253    5.853268    2.050178
     56          1           0       24.581915    6.131990    2.426680
     57          1           0       24.687465   -0.506112    5.536527
     58          1           0       25.573426   -1.935846    6.056470
     59          1           0       23.711814   -1.968385    5.862208
     60          1           0       22.874880   -4.149415    5.215827
     61          1           0       24.372425   -4.215442    6.163279
     62          1           0       23.642768   -5.749844    5.592608
     63          1           0       25.995473   -5.955625   -1.066999
     64          1           0       27.285997   -4.860070   -3.254264
     65          1           0       28.873120   -5.339464   -1.561758
     66          1           0       27.989019   -6.722952   -0.926198
     67          1           0       28.347006   -5.374193    0.115456
     68          1           0       25.169699   -5.577665   -3.673698
     69          1           0       25.343703   -3.881379   -4.033106
     70          1           0       23.607648   -3.392298   -2.901397
     71          1           0       23.980325   -4.127234   -1.375102
     72          1           0       23.297042   -5.090266   -2.669024
     73          1           0       29.325160   -0.172874   -5.120099
     74          1           0       28.261185    1.235409   -5.630019
     75          1           0       27.734358   -0.499794   -5.745629
     76          1           0       26.158163    4.125632   -1.993469
     77          1           0       29.619278    6.905579   -0.618665
     78          1           0       29.452832    5.761119    0.725843
     79          1           0       28.577439    7.268350    0.659057
     80         12           0      -27.056846   -0.360736   -0.368558
     81          6           0      -25.138948    2.560404   -0.472236
     82          6           0      -28.347626    0.725545    2.641527
     83          6           0      -28.395784   -3.459843    0.135271
     84          6           0      -25.197885   -1.585866   -3.021161
     85          7           0      -26.811069    1.457672    0.823001
     86          6           0      -26.157936    2.573896    0.475469
     87          6           0      -26.481333    3.801789    1.339229
     88          6           0      -27.378419    3.160690    2.466453
     89          6           0      -27.638699    1.648997    1.916758
     90          6           0      -26.817103    3.165621    3.904714
     91          6           0      -27.147501    4.953547    0.586235
     92          6           0      -26.889366    6.329300    1.227132
     93          1           0      -26.052745    6.414472    2.511542
     94          7           0      -28.296801   -1.228978    1.096629
     95          6           0      -28.787463   -0.586263    2.256602
     96          6           0      -29.656980   -1.511092    2.955641
     97          6           0      -29.634121   -2.780659    2.266441
     98          6           0      -28.790063   -2.529548    1.099329
     99          6           0      -30.470234   -1.065544    4.139692
    100          6           0      -30.454227   -4.120841    2.537898
    101          8           0      -30.448251   -5.073564    1.796699
    102          6           0      -31.260322   -4.165609    3.817844
    103          7           0      -26.760815   -2.256136   -1.239242
    104          6           0      -27.447685   -3.385171   -0.900746
    105          6           0      -27.093364   -4.601208   -1.833701
    106          6           0      -26.148095   -3.940918   -2.836025
    107          6           0      -26.029373   -2.516692   -2.327008
    108          6           0      -26.588913   -5.978453   -1.241306
    109          6           0      -26.719658   -4.005697   -4.271794
    110          6           0      -27.760381   -2.951223   -4.709270
    111          7           0      -25.569927    0.337361   -1.668392
    112          6           0      -24.904183   -0.265639   -2.703932
    113          6           0      -23.958552    0.620278   -3.295762
    114          6           0      -23.998448    1.800047   -2.424697
    115          6           0      -24.934226    1.550490   -1.497916
    116          6           0      -23.078903    0.471448   -4.457189
    117          6           0      -23.365416    3.072280   -2.105828
    118          8           0      -22.512161    3.713022   -2.728899
    119          6           0      -24.062647    3.644816   -0.836703
    120          6           0      -23.104543    3.889322    0.236553
    121          8           0      -22.616622    3.041254    0.976118
    122          8           0      -22.653719    5.182651    0.150680
    123          6           0      -21.400930    5.567243    0.829420
    124          1           0      -28.682815    1.138745    3.595354
    125          1           0      -28.958463   -4.394551    0.181188
    126          1           0      -24.678677   -1.932554   -3.917045
    127          1           0      -25.602716    4.155783    1.878034
    128          1           0      -28.398826    3.542126    2.476501
    129          1           0      -27.648688    3.629470    4.434900
    130          1           0      -25.921207    3.782924    3.966678
    131          1           0      -26.584135    2.150869    4.227596
    132          1           0      -28.221168    4.805051    0.477467
    133          1           0      -26.772103    5.000289   -0.436365
    134          1           0      -27.913002    6.661358    1.401592
    135          1           0      -26.510210    7.051183    0.502376
    136          1           0      -30.091045   -0.076222    4.395992
    137          1           0      -30.332700   -1.777994    4.953358
    138          1           0      -31.540395   -1.023856    3.931431
    139          1           0      -30.708915   -4.307821    4.747836
    140          1           0      -32.028550   -4.929472    3.697730
    141          1           0      -31.740839   -3.187328    3.810923
    142          1           0      -28.071544   -4.816075   -2.263328
    143          1           0      -25.205145   -4.482392   -2.769305
    144          1           0      -25.699685   -6.382980   -1.723324
    145          1           0      -27.367629   -6.721913   -1.408524
    146          1           0      -26.472035   -5.850991   -0.164700
    147          1           0      -27.134170   -5.008343   -4.369347
    148          1           0      -25.842844   -3.958405   -4.918266
    149          1           0      -28.496307   -3.517500   -5.279529
    150          1           0      -27.353688   -2.195710   -5.381113
    151          1           0      -28.188855   -2.375291   -3.889775
    152          1           0      -23.099241    1.411212   -5.007927
    153          1           0      -23.325457   -0.346996   -5.133617
    154          1           0      -22.039267    0.429182   -4.131924
    155          1           0      -24.540269    4.558589   -1.189937
    156          1           0      -20.975809    4.745159    1.406273
    157          1           0      -21.637240    6.369412    1.528982
    158          1           0      -20.787087    5.854701   -0.023473
 ---------------------------------------------------------------------

 SCF Done:  E(RPBE1PBE) =  -4067.38522509     A.U. after   16 cycles

 Excitation energies and oscillator strengths:

 Excited State   1:      Singlet-A      1.8249 eV  679.40 nm  f=0.3566  <S**2>=0.000
     309 -> 315       -0.17192
     311 -> 313        0.69449
     311 <- 313       -0.10918
 This state for optimization and/or second-order correction.
 Total Energy, E(TD-HF/TD-DFT) =  -4067.31816139
 Copying the excited state density for this state as the 1-particle RhoCI density.

 Excited State   2:      Singlet-A      1.8755 eV  661.08 nm  f=0.3930  <S**2>=0.000
     310 -> 316        0.17474
     312 -> 314        0.69087
     312 <- 314       -0.10932

 Excited State   3:      Singlet-A      1.9649 eV  631.00 nm  f=0.0000  <S**2>=0.000
     312 -> 313        0.70711

 Excited State   4:      Singlet-A      2.0172 eV  614.65 nm  f=0.0000  <S**2>=0.000
     311 -> 314        0.70711

 Excited State   5:      Singlet-A      2.1488 eV  577.00 nm  f=0.1391  <S**2>=0.000
     310 -> 314        0.66655
     312 -> 316       -0.21033

 The electronic state is 1-A.
 Alpha  occ. eigenvalues --  -46.92023 -46.91676 -19.25172 -19.24569 -19.20248
 Alpha  occ. eigenvalues --  -19.20082 -19.19221 -19.19035 -19.19015 -19.18723
 Alpha  occ. eigenvalues --  -14.42710 -14.41712 -14.41483 -14.41061 -14.39235
 Alpha  occ. eigenvalues --  -14.39099 -14.38883 -14.37932 -10.36456 -10.35668
 Alpha  occ. eigenvalues --  -10.33278 -10.32299 -10.32109 -10.32055 -10.29337
 Alpha  occ. eigenvalues --  -10.29025 -10.28937 -10.28816 -10.28611 -10.28609
 Alpha  occ. eigenvalues --  -10.28505 -10.28459 -10.28452 -10.28408 -10.28260
 Alpha  occ. eigenvalues --  -10.27991 -10.27942 -10.27527 -10.27489 -10.26716
 Alpha  occ. eigenvalues --  -10.26672 -10.26610 -10.26391 -10.26374 -10.26315
 Alpha  occ. eigenvalues --  -10.26238 -10.26114 -10.25989 -10.25955 -10.25884
 Alpha  occ. eigenvalues --  -10.25821 -10.25791 -10.25604 -10.25569 -10.25511
 Alpha  occ. eigenvalues --  -10.25484 -10.25395 -10.25258 -10.25242 -10.25241
 Alpha  occ. eigenvalues --  -10.24906 -10.24894 -10.24869 -10.24816 -10.24732
 Alpha  occ. eigenvalues --  -10.24597 -10.24575 -10.24517 -10.24357 -10.24152
 Alpha  occ. eigenvalues --  -10.23997 -10.23776 -10.23661 -10.23570 -10.23474
 Alpha  occ. eigenvalues --  -10.23467 -10.23345 -10.23334 -10.23260 -10.23067
 Alpha  occ. eigenvalues --  -10.22889 -10.22808 -10.22573 -10.22570 -10.22403
 Alpha  occ. eigenvalues --  -10.21898  -3.14101  -3.13782  -1.86965  -1.86623
 Alpha  occ. eigenvalues --   -1.86452  -1.86340  -1.86152  -1.86011  -1.10362
 Alpha  occ. eigenvalues --   -1.09862  -1.06626  -1.06271  -1.03667  -1.02234
 Alpha  occ. eigenvalues --   -1.01562  -1.01472  -0.99825  -0.99053  -0.97987
 Alpha  occ. eigenvalues --   -0.97967  -0.97833  -0.97158  -0.96409  -0.95642
 Alpha  occ. eigenvalues --   -0.87411  -0.86483  -0.84255  -0.83713  -0.83464
 Alpha  occ. eigenvalues --   -0.83057  -0.82986  -0.82459  -0.81987  -0.81409
 Alpha  occ. eigenvalues --   -0.81290  -0.80792  -0.80726  -0.80423  -0.78886
 Alpha  occ. eigenvalues --   -0.78494  -0.77895  -0.77702  -0.76819  -0.76600
 Alpha  occ. eigenvalues --   -0.76557  -0.76100  -0.75494  -0.75337  -0.74552
 Alpha  occ. eigenvalues --   -0.74220  -0.72978  -0.72458  -0.71668  -0.71497
 Alpha  occ. eigenvalues --   -0.71431  -0.71149  -0.70573  -0.70224  -0.69396
 Alpha  occ. eigenvalues --   -0.69330  -0.67002  -0.66909  -0.65747  -0.65550
 Alpha  occ. eigenvalues --   -0.64174  -0.64047  -0.63289  -0.62862  -0.62298
 Alpha  occ. eigenvalues --   -0.62132  -0.61394  -0.60466  -0.60196  -0.59436
 Alpha  occ. eigenvalues --   -0.59268  -0.59132  -0.58956  -0.58827  -0.58300
 Alpha  occ. eigenvalues --   -0.57889  -0.56385  -0.55999  -0.54763  -0.54451
 Alpha  occ. eigenvalues --   -0.54299  -0.53751  -0.53679  -0.53614  -0.53610
 Alpha  occ. eigenvalues --   -0.53065  -0.52860  -0.52317  -0.52281  -0.51991
 Alpha  occ. eigenvalues --   -0.50909  -0.50420  -0.50322  -0.50001  -0.49703
 Alpha  occ. eigenvalues --   -0.49237  -0.49205  -0.49062  -0.48645  -0.48491
 Alpha  occ. eigenvalues --   -0.48264  -0.48103  -0.47928  -0.47830  -0.47691
 Alpha  occ. eigenvalues --   -0.47468  -0.47271  -0.47116  -0.46793  -0.46704
 Alpha  occ. eigenvalues --   -0.46514  -0.46416  -0.46267  -0.46036  -0.45942
 Alpha  occ. eigenvalues --   -0.45523  -0.45469  -0.45350  -0.45157  -0.44776
 Alpha  occ. eigenvalues --   -0.44730  -0.44600  -0.44295  -0.44218  -0.44108
 Alpha  occ. eigenvalues --   -0.43956  -0.43952  -0.43837  -0.43714  -0.43675
 Alpha  occ. eigenvalues --   -0.43620  -0.43179  -0.43016  -0.42911  -0.42826
 Alpha  occ. eigenvalues --   -0.42775  -0.42386  -0.42331  -0.42180  -0.41920
 Alpha  occ. eigenvalues --   -0.41796  -0.41439  -0.41436  -0.41055  -0.41008
 Alpha  occ. eigenvalues --   -0.40882  -0.40752  -0.40534  -0.40419  -0.40398
 Alpha  occ. eigenvalues --   -0.40138  -0.40011  -0.40000  -0.39793  -0.39603
 Alpha  occ. eigenvalues --   -0.39413  -0.39117  -0.39072  -0.38861  -0.38650
 Alpha  occ. eigenvalues --   -0.38564  -0.38461  -0.38387  -0.38248  -0.38014
 Alpha  occ. eigenvalues --   -0.38012  -0.37894  -0.37830  -0.37651  -0.37639
 Alpha  occ. eigenvalues --   -0.37473  -0.37316  -0.37278  -0.37258  -0.36857
 Alpha  occ. eigenvalues --   -0.36681  -0.36397  -0.36350  -0.35948  -0.35876
 Alpha  occ. eigenvalues --   -0.35822  -0.35744  -0.35556  -0.35261  -0.35194
 Alpha  occ. eigenvalues --   -0.35111  -0.34834  -0.34701  -0.34442  -0.33494
 Alpha  occ. eigenvalues --   -0.33336  -0.33283  -0.32813  -0.32699  -0.32694
 Alpha  occ. eigenvalues --   -0.32336  -0.32100  -0.31741  -0.31443  -0.31210
 Alpha  occ. eigenvalues --   -0.31208  -0.30617  -0.29806  -0.29561  -0.29527
 Alpha  occ. eigenvalues --   -0.28979  -0.28804  -0.28495  -0.27119  -0.26616
 Alpha  occ. eigenvalues --   -0.26347  -0.25976  -0.25743  -0.25576  -0.25289
 Alpha  occ. eigenvalues --   -0.25250  -0.25196  -0.24396  -0.21021  -0.20514
 Alpha  occ. eigenvalues --   -0.18952  -0.18897
 Alpha virt. eigenvalues --   -0.11428  -0.11291  -0.05241  -0.04882  -0.03808
 Alpha virt. eigenvalues --   -0.03637  -0.02225  -0.01933  -0.00179   0.00046
 Alpha virt. eigenvalues --    0.00687   0.00743   0.00944   0.01082   0.01357

 Mulliken charges:
               1
     1  Mg  11.995523
     2  C    6.017152
     3  C    5.987772
     4  C    5.986020
     5  C    6.009788
     6  N    7.011217
     7  C    5.961932
     8  C    6.013778
     9  C    5.983466
    10  C    6.037434
    11  C    5.996497
    12  C    6.001019
    13  C    6.000160
    14  H    1.003455
    15  N    6.992776
    16  C    6.042437
    17  C    6.012181
    18  C    6.021192
    19  C    6.027523
    20  C    5.999492
    21  C    6.011429
    22  O    8.028148
    23  C    5.997269
    24  N    6.998986
    25  C    6.026078
    26  C    5.996659
    27  C    6.004030
    28  C    5.972699
    29  C    6.001700
    30  C    6.006059
    31  C    5.999646
    32  N    6.998007
    33  C    5.962327
    34  C    5.967220
    35  C    5.999689
    36  C    5.973941
    37  C    6.000505
    38  C    5.986413
    39  O    7.971143
    40  C    5.996882
    41  C    5.994496
    42  O    7.997931
    43  O    7.997100
    44  C    6.002070
    45  H    1.010441
    46  H    1.004333
    47  H    0.992116
    48  H    1.002258
    49  H    1.005509
    50  H    1.007914
    51  H    1.013640
    52  H    0.994277
    53  H    0.989345
    54  H    1.005999
    55  H    0.997169
    56  H    0.994697
    57  H    1.014119
    58  H    1.014275
    59  H    1.013709
    60  H    1.007579
    61  H    1.007128
    62  H    1.013697
    63  H    0.998703
    64  H    0.999555
    65  H    1.011267
    66  H    1.001444
    67  H    0.993622
    68  H    0.992927
    69  H    1.006328
    70  H    1.005928
    71  H    0.984764
    72  H    0.997254
    73  H    0.979071
    74  H    0.987258
    75  H    0.980603
    76  H    0.994096
    77  H    0.998532
    78  H    0.994709
    79  H    0.994491
    80  Mg  11.999997
    81  C    6.000006
    82  C    6.000041
    83  C    6.000020
    84  C    5.999924
    85  N    6.999991
    86  C    6.000068
    87  C    5.999971
    88  C    5.999995
    89  C    5.999960
    90  C    6.000013
    91  C    6.000000
    92  C    6.000003
    93  H    0.999984
    94  N    6.999999
    95  C    5.999936
    96  C    5.999962
    97  C    5.999984
    98  C    5.999921
    99  C    6.000038
   100  C    5.999979
   101  O    7.999969
   102  C    5.999994
   103  N    7.000042
   104  C    5.999937
   105  C    6.000015
   106  C    5.999992
   107  C    6.000046
   108  C    5.999981
   109  C    5.999982
   110  C    5.999983
   111  N    7.000037
   112  C    6.000050
   113  C    6.000059
   114  C    5.999998
   115  C    5.999999
   116  C    5.999965
   117  C    6.000029
   118  O    8.000051
   119  C    5.999995
   120  C    6.000016
   121  O    7.999983
   122  O    8.000016
   123  C    6.000008
   124  H    0.999977
   125  H    0.999988
   126  H    1.000031
   127  H    0.999994
   128  H    1.000012
   129  H    0.999999
   130  H    0.999971
   131  H    0.999984
   132  H    1.000023
   133  H    0.999998
   134  H    1.000015
   135  H    1.000009
   136  H    0.999969
   137  H    0.999951
   138  H    0.999971
   139  H    0.999968
   140  H    0.999979
   141  H    1.000008
   142  H    1.000012
   143  H    0.999995
   144  H    0.999980
   145  H    1.000009
   146  H    0.999993
   147  H    1.000019
   148  H    1.000004
   149  H    1.000026
   150  H    1.000009
   151  H    1.000008
   152  H    1.000059
   153  H    1.000042
   154  H    1.000037
   155  H    1.000027
   156  H    0.999978
   157  H    1.000006
   158  H    1.000010
 Sum of Mulliken charges = 624.00000

 Dipole moment (field-independent basis, Debye):
    X=             -2.9154    Y=             -4.2771    Z=              8.7325  Tot=             10.1514
 Quadrupole moment (field-independent basis, Debye-Ang):
   XX=           -154.8414   YY=              5.1827   ZZ=              2.6427
   XY=           -110.3824   XZ=            230.6672   YZ=             -8.2763

 Normal termination of Gaussian 16 at Wed Oct 13 22:04:51 2021.
