 Gaussian 16, Revision A.03,
 Gaussian 16:  ES64L-G16RevA.03 25-Dec-2016

 --------------------------------------------------------
 #p PBE1PBE/Def2SVP td=(nstates=5) density=(transition=1)
 --------------------------------------------------------

 --------------------------------
 TDDFT excited states in gaussian
 --------------------------------
 Symbolic Z-matrix:
 Charge =  0 Multiplicity = 1

                         Standard orientation:
 ---------------------------------------------------------------------
 Center     Atomic      Atomic             Coordinates (Angstroms)
 Number     Number       Type             X           Y           Z
 ---------------------------------------------------------------------
      1         12           0       30.397429    0.381470   -0.601209
      2          6           0       27.593322   -1.806873   -0.760201
      3          6           0       28.325170    3.040326   -1.208648
      4          6           0       32.888103    2.531835    0.590230
      5          6           0       32.335059   -2.297381    0.589510
      6          7           0       28.068743    0.525586   -0.692482
      7          6           0       27.202115   -0.461718   -0.971646
      8          6           0       25.968714    0.124667   -1.633794
      9          6           0       26.157581    1.714918   -1.725256
     10          6           0       27.711479    1.723351   -1.296424
     11          6           0       25.910438    2.162376   -3.183501
     12          6           0       24.710658   -0.259037   -0.871460
     13          6           0       24.811986   -0.292066    0.672053
     14          1           0       24.108146    0.856313    1.445431
     15          7           0       30.626373    2.542147   -0.419793
     16          6           0       29.605184    3.415377   -0.725296
     17          6           0       30.178312    4.722709   -0.651930
     18          6           0       31.487450    4.658872   -0.038972
     19          6           0       31.770755    3.203417    0.039539
     20          6           0       29.382637    5.977331   -0.928573
     21          6           0       32.313681    5.811174    0.534560
     22          8           0       31.864047    6.940926    0.535124
     23          6           0       33.616997    5.641182    1.103642
     24          7           0       32.290690    0.169177    0.533452
     25          6           0       33.144031    1.161360    0.739811
     26          6           0       34.416846    0.724851    1.446864
     27          6           0       34.039768   -0.786573    1.761539
     28          6           0       32.868847   -1.031649    0.879738
     29          6           0       35.742127    0.874953    0.551674
     30          6           0       33.796089   -0.987717    3.327864
     31          6           0       34.750270   -1.807619    4.149335
     32          7           0       30.158079   -1.604380   -0.404934
     33          6           0       31.081916   -2.598972   -0.024403
     34          6           0       30.492672   -3.942190   -0.178010
     35          6           0       29.167229   -3.631049   -0.480910
     36          6           0       28.930498   -2.212080   -0.497472
     37          6           0       31.184900   -5.348270   -0.136518
     38          6           0       27.874440   -4.268317   -0.751028
     39          8           0       27.513196   -5.453665   -0.836812
     40          6           0       26.811178   -3.139920   -0.959358
     41          6           0       25.906516   -3.433411    0.187323
     42          8           0       26.235543   -3.454686    1.345633
     43          8           0       24.707583   -3.796512   -0.259259
     44          6           0       23.601114   -4.058711    0.726088
     45          1           0       27.753103    3.837946   -1.686871
     46          1           0       33.769543    3.076792    0.933969
     47          1           0       32.978623   -3.033056    1.077489
     48          1           0       26.029892   -0.412078   -2.580534
     49          1           0       25.517197    2.253386   -1.026134
     50          1           0       25.081964    2.870423   -3.184581
     51          1           0       25.619979    1.358769   -3.860713
     52          1           0       26.819697    2.676698   -3.493502
     53          1           0       24.381763   -1.249194   -1.187043
     54          1           0       23.912266    0.457672   -1.066006
     55          1           0       25.798193   -0.165487    1.118465
     56          1           0       24.384800   -1.255761    0.949610
     57          1           0       28.337346    5.755397   -1.145060
     58          1           0       29.905689    6.533102   -1.707555
     59          1           0       29.491294    6.625955   -0.060037
     60          1           0       33.657567    5.031964    2.006842
     61          1           0       34.025070    6.617294    1.365211
     62          1           0       34.159030    5.128023    0.308568
     63          1           0       34.565329    1.189356    2.421363
     64          1           0       34.991661   -1.282512    1.570834
     65          1           0       35.486175    1.338712   -0.401411
     66          1           0       36.103699   -0.132078    0.342826
     67          1           0       36.578664    1.397281    1.018429
     68          1           0       32.881219   -1.549793    3.515795
     69          1           0       33.715612   -0.028203    3.836860
     70          1           0       34.394259   -2.815027    4.365085
     71          1           0       34.762904   -1.207008    5.059441
     72          1           0       35.792671   -1.749564    3.835643
     73          1           0       31.389316   -5.584369    0.907429
     74          1           0       32.068596   -5.287734   -0.771960
     75          1           0       30.468600   -6.092929   -0.483173
     76          1           0       26.401453   -3.296102   -1.957949
     77          1           0       23.616696   -5.075712    1.118625
     78          1           0       22.622830   -3.893876    0.272717
     79          1           0       23.753892   -3.321464    1.514247
     80         12           0      -30.187890    0.296464    0.536688
     81          6           0      -28.121199   -1.671169   -1.669445
     82          6           0      -30.533287    2.569898   -2.110863
     83          6           0      -32.168588    2.042597    2.488033
     84          6           0      -29.461145   -1.931612    3.130651
     85          7           0      -29.349534    0.393818   -1.668891
     86          6           0      -28.737743   -0.589961   -2.379624
     87          6           0      -28.740065   -0.300024   -3.871729
     88          6           0      -29.216116    1.255327   -3.968615
     89          6           0      -29.706751    1.439849   -2.503499
     90          6           0      -28.130593    2.242288   -4.466353
     91          6           0      -29.654361   -1.283519   -4.677571
     92          6           0      -28.916219   -2.048007   -5.806898
     93          1           0      -29.459890   -1.690872   -7.308021
     94          7           0      -31.182830    2.005027    0.236432
     95          6           0      -31.219276    2.875399   -0.905181
     96          6           0      -32.092993    4.057597   -0.716646
     97          6           0      -32.592912    3.836439    0.608377
     98          6           0      -31.990598    2.607275    1.151294
     99          6           0      -32.302562    5.168348   -1.747804
    100          6           0      -33.481719    4.705507    1.413965
    101          8           0      -34.066755    4.374141    2.439483
    102          6           0      -33.819568    6.102970    0.858387
    103          7           0      -30.848048   -0.022482    2.434715
    104          6           0      -31.654671    0.867336    3.056901
    105          6           0      -31.778114    0.615257    4.533906
    106          6           0      -30.962211   -0.679224    4.771882
    107          6           0      -30.415298   -0.958916    3.353878
    108          6           0      -31.410566    1.793565    5.411193
    109          6           0      -31.940976   -1.895227    5.276285
    110          6           0      -31.497838   -2.629876    6.655484
    111          7           0      -28.819310   -1.308405    0.806060
    112          6           0      -28.720374   -2.162171    1.931022
    113          6           0      -27.808181   -3.256784    1.580496
    114          6           0      -27.691434   -3.146362    0.169872
    115          6           0      -28.207698   -1.909015   -0.217966
    116          6           0      -27.176368   -4.326924    2.465622
    117          6           0      -26.937359   -3.733631   -0.973481
    118          8           0      -26.130599   -4.693268   -1.120724
    119          6           0      -27.319062   -2.837257   -2.214331
    120          6           0      -26.053501   -2.395734   -2.888315
    121          8           0      -25.086059   -1.989180   -2.309385
    122          8           0      -26.140406   -2.642453   -4.230336
    123          6           0      -24.823653   -2.554715   -4.910790
    124          1           0      -30.498147    3.307002   -2.915528
    125          1           0      -32.814090    2.579124    3.186970
    126          1           0      -29.250168   -2.661448    3.914747
    127          1           0      -27.698168   -0.350620   -4.188049
    128          1           0      -30.102210    1.382773   -4.591043
    129          1           0      -27.854767    2.945279   -3.679787
    130          1           0      -28.483738    2.786588   -5.343178
    131          1           0      -27.218839    1.789772   -4.856341
    132          1           0      -30.484625   -0.762795   -5.155358
    133          1           0      -30.082664   -2.052486   -4.034098
    134          1           0      -29.122122   -3.118697   -5.804387
    135          1           0      -27.828613   -1.994137   -5.770494
    136          1           0      -32.027770    4.945998   -2.779380
    137          1           0      -31.855825    6.130729   -1.498304
    138          1           0      -33.378943    5.342994   -1.752197
    139          1           0      -32.913771    6.701097    0.759383
    140          1           0      -34.568894    6.618588    1.459961
    141          1           0      -34.256831    5.970111   -0.131170
    142          1           0      -32.836133    0.480759    4.762901
    143          1           0      -30.131206   -0.503346    5.454326
    144          1           0      -32.270547    2.268575    5.884111
    145          1           0      -30.950852    2.632941    4.889580
    146          1           0      -30.697919    1.443934    6.158468
    147          1           0      -32.062098   -2.696964    4.548559
    148          1           0      -32.960330   -1.559073    5.464228
    149          1           0      -30.847927   -1.918969    7.166088
    150          1           0      -30.982469   -3.572416    6.466252
    151          1           0      -32.341043   -2.736180    7.337485
    152          1           0      -27.022952   -5.264680    1.931958
    153          1           0      -27.912036   -4.593819    3.225238
    154          1           0      -26.329907   -3.810945    2.919028
    155          1           0      -27.808133   -3.508601   -2.919713
    156          1           0      -24.398643   -1.580644   -4.669370
    157          1           0      -25.088211   -2.526601   -5.967709
    158          1           0      -24.050744   -3.285206   -4.671998
 ---------------------------------------------------------------------

 SCF Done:  E(RPBE1PBE) =  -4067.32907771     A.U. after   16 cycles

 Excitation energies and oscillator strengths:

 Excited State   1:      Singlet-A      1.8271 eV  678.59 nm  f=0.3513  <S**2>=0.000
     310 -> 316        0.18275
     312 -> 313        0.69144
     312 <- 313       -0.10668
 This state for optimization and/or second-order correction.
 Total Energy, E(TD-HF/TD-DFT) =  -4067.26193364
 Copying the excited state density for this state as the 1-particle RhoCI density.

 Excited State   2:      Singlet-A      1.8532 eV  669.02 nm  f=0.3473  <S**2>=0.000
     309 -> 315       -0.19406
     311 -> 314        0.68722

 Excited State   3:      Singlet-A      2.0039 eV  618.72 nm  f=0.0000  <S**2>=0.000
     311 -> 313        0.70711

 Excited State   4:      Singlet-A      2.0242 eV  612.52 nm  f=0.0000  <S**2>=0.000
     312 -> 314        0.70711

 Excited State   5:      Singlet-A      2.1728 eV  570.63 nm  f=0.1318  <S**2>=0.000
     310 -> 313        0.65739
     312 -> 316       -0.25558

 The electronic state is 1-A.
 Alpha  occ. eigenvalues --  -46.93581 -46.91973 -19.26299 -19.25700 -19.19964
 Alpha  occ. eigenvalues --  -19.19129 -19.19072 -19.19064 -19.19042 -19.18256
 Alpha  occ. eigenvalues --  -14.41960 -14.41925 -14.41596 -14.41459 -14.40312
 Alpha  occ. eigenvalues --  -14.39842 -14.39193 -14.39019 -10.35849 -10.35731
 Alpha  occ. eigenvalues --  -10.32435 -10.32183 -10.32118 -10.31407 -10.29769
 Alpha  occ. eigenvalues --  -10.29663 -10.29454 -10.29152 -10.29140 -10.29096
 Alpha  occ. eigenvalues --  -10.29089 -10.29047 -10.28796 -10.28697 -10.28550
 Alpha  occ. eigenvalues --  -10.28504 -10.28488 -10.28353 -10.28092 -10.27946
 Alpha  occ. eigenvalues --  -10.27709 -10.27470 -10.26878 -10.26852 -10.26803
 Alpha  occ. eigenvalues --  -10.26712 -10.26571 -10.26537 -10.26452 -10.26429
 Alpha  occ. eigenvalues --  -10.26403 -10.26032 -10.26016 -10.25922 -10.25883
 Alpha  occ. eigenvalues --  -10.25802 -10.25757 -10.25681 -10.25681 -10.25656
 Alpha  occ. eigenvalues --  -10.25616 -10.25554 -10.25469 -10.25086 -10.25008
 Alpha  occ. eigenvalues --  -10.24973 -10.24943 -10.24723 -10.24561 -10.24557
 Alpha  occ. eigenvalues --  -10.24437 -10.24313 -10.24164 -10.24091 -10.24005
 Alpha  occ. eigenvalues --  -10.23918 -10.23688 -10.23652 -10.23557 -10.23438
 Alpha  occ. eigenvalues --  -10.23222 -10.23092 -10.22999 -10.22969 -10.22923
 Alpha  occ. eigenvalues --  -10.22466  -3.15475  -3.14192  -1.88277  -1.87879
 Alpha  occ. eigenvalues --   -1.87674  -1.87031  -1.86566  -1.86436  -1.11822
 Alpha  occ. eigenvalues --   -1.11732  -1.04928  -1.04569  -1.03571  -1.03515
 Alpha  occ. eigenvalues --   -1.02514  -1.01899  -0.99213  -0.98664  -0.98274
 Alpha  occ. eigenvalues --   -0.97859  -0.97257  -0.97084  -0.96634  -0.96223
 Alpha  occ. eigenvalues --   -0.86304  -0.85951  -0.83250  -0.83049  -0.82903
 Alpha  occ. eigenvalues --   -0.82774  -0.82560  -0.82337  -0.81720  -0.81402
 Alpha  occ. eigenvalues --   -0.81246  -0.80479  -0.80088  -0.79611  -0.78910
 Alpha  occ. eigenvalues --   -0.78334  -0.78249  -0.77489  -0.77081  -0.76833
 Alpha  occ. eigenvalues --   -0.76083  -0.75498  -0.75429  -0.75011  -0.74601
 Alpha  occ. eigenvalues --   -0.73980  -0.73267  -0.72238  -0.71636  -0.71481
 Alpha  occ. eigenvalues --   -0.71118  -0.70693  -0.70558  -0.70332  -0.69595
 Alpha  occ. eigenvalues --   -0.69300  -0.67303  -0.67046  -0.66182  -0.65857
 Alpha  occ. eigenvalues --   -0.63496  -0.63227  -0.63165  -0.62929  -0.62534
 Alpha  occ. eigenvalues --   -0.61972  -0.61526  -0.61137  -0.60383  -0.60026
 Alpha  occ. eigenvalues --   -0.60010  -0.59620  -0.59336  -0.59000  -0.58569
 Alpha  occ. eigenvalues --   -0.58569  -0.57004  -0.56959  -0.55291  -0.54848
 Alpha  occ. eigenvalues --   -0.53870  -0.53852  -0.53594  -0.53327  -0.53078
 Alpha  occ. eigenvalues --   -0.52962  -0.52482  -0.52399  -0.51835  -0.51741
 Alpha  occ. eigenvalues --   -0.50746  -0.50700  -0.50360  -0.49883  -0.49597
 Alpha  occ. eigenvalues --   -0.49485  -0.49478  -0.49109  -0.49074  -0.48459
 Alpha  occ. eigenvalues --   -0.48402  -0.48083  -0.47970  -0.47691  -0.47284
 Alpha  occ. eigenvalues --   -0.47203  -0.46928  -0.46905  -0.46666  -0.46663
 Alpha  occ. eigenvalues --   -0.46411  -0.46284  -0.46079  -0.46055  -0.46005
 Alpha  occ. eigenvalues --   -0.45465  -0.45213  -0.45093  -0.44807  -0.44711
 Alpha  occ. eigenvalues --   -0.44544  -0.44367  -0.44361  -0.44280  -0.44034
 Alpha  occ. eigenvalues --   -0.43909  -0.43807  -0.43731  -0.43524  -0.43282
 Alpha  occ. eigenvalues --   -0.43122  -0.42960  -0.42918  -0.42805  -0.42646
 Alpha  occ. eigenvalues --   -0.42448  -0.42277  -0.42075  -0.41961  -0.41706
 Alpha  occ. eigenvalues --   -0.41635  -0.41610  -0.41585  -0.41329  -0.41220
 Alpha  occ. eigenvalues --   -0.41035  -0.40935  -0.40731  -0.40530  -0.40338
 Alpha  occ. eigenvalues --   -0.40288  -0.40087  -0.39925  -0.39812  -0.39748
 Alpha  occ. eigenvalues --   -0.39651  -0.39565  -0.39522  -0.39251  -0.39138
 Alpha  occ. eigenvalues --   -0.38905  -0.38762  -0.38754  -0.38572  -0.38466
 Alpha  occ. eigenvalues --   -0.38350  -0.38111  -0.37984  -0.37747  -0.37699
 Alpha  occ. eigenvalues --   -0.37458  -0.37257  -0.37102  -0.36879  -0.36774
 Alpha  occ. eigenvalues --   -0.36401  -0.36341  -0.36215  -0.36155  -0.36119
 Alpha  occ. eigenvalues --   -0.35716  -0.35688  -0.35602  -0.35372  -0.35143
 Alpha  occ. eigenvalues --   -0.35009  -0.34961  -0.34732  -0.34471  -0.33653
 Alpha  occ. eigenvalues --   -0.33573  -0.33253  -0.32930  -0.32517  -0.32407
 Alpha  occ. eigenvalues --   -0.32256  -0.32098  -0.31772  -0.31457  -0.31415
 Alpha  occ. eigenvalues --   -0.30711  -0.30648  -0.29760  -0.29371  -0.29278
 Alpha  occ. eigenvalues --   -0.29128  -0.28832  -0.28590  -0.27142  -0.27018
 Alpha  occ. eigenvalues --   -0.26020  -0.26002  -0.25699  -0.25571  -0.25532
 Alpha  occ. eigenvalues --   -0.25371  -0.25018  -0.24488  -0.21227  -0.20850
 Alpha  occ. eigenvalues --   -0.18988  -0.18928
 Alpha virt. eigenvalues --   -0.11405  -0.11269  -0.05930  -0.05322  -0.04077
 Alpha virt. eigenvalues --   -0.03968  -0.02382  -0.02069  -0.01670  -0.00010
 Alpha virt. eigenvalues --    0.00413   0.00692   0.00963   0.01003   0.01281

 Mulliken charges:
               1
     1  Mg  12.000030
     2  C    6.000010
     3  C    5.999851
     4  C    5.999961
     5  C    6.000081
     6  N    7.000016
     7  C    5.999840
     8  C    6.000016
     9  C    5.999946
    10  C    6.000203
    11  C    5.999991
    12  C    6.000019
    13  C    6.000039
    14  H    0.999921
    15  N    6.999998
    16  C    6.000176
    17  C    6.000153
    18  C    6.000035
    19  C    6.000214
    20  C    5.999946
    21  C    6.000068
    22  O    8.000109
    23  C    5.999972
    24  N    7.000015
    25  C    6.000115
    26  C    5.999919
    27  C    6.000036
    28  C    5.999834
    29  C    5.999988
    30  C    6.000017
    31  C    6.000008
    32  N    6.999982
    33  C    5.999855
    34  C    5.999859
    35  C    6.000045
    36  C    5.999837
    37  C    6.000004
    38  C    5.999849
    39  O    7.999811
    40  C    6.000043
    41  C    5.999969
    42  O    7.999975
    43  O    7.999991
    44  C    6.000024
    45  H    1.000045
    46  H    1.000058
    47  H    0.999954
    48  H    1.000022
    49  H    1.000022
    50  H    1.000021
    51  H    1.000045
    52  H    0.999989
    53  H    1.000013
    54  H    0.999950
    55  H    1.000012
    56  H    1.000006
    57  H    1.000097
    58  H    1.000117
    59  H    1.000094
    60  H    1.000057
    61  H    1.000082
    62  H    1.000041
    63  H    1.000019
    64  H    0.999994
    65  H    0.999987
    66  H    1.000068
    67  H    1.000024
    68  H    1.000011
    69  H    0.999937
    70  H    1.000005
    71  H    0.999979
    72  H    0.999985
    73  H    0.999909
    74  H    0.999928
    75  H    0.999930
    76  H    0.999941
    77  H    0.999969
    78  H    0.999943
    79  H    0.999973
    80  Mg  12.003965
    81  C    5.975282
    82  C    5.997390
    83  C    6.029344
    84  C    5.997587
    85  N    6.982670
    86  C    6.032381
    87  C    5.990290
    88  C    6.011064
    89  C    5.972825
    90  C    6.002411
    91  C    5.998814
    92  C    5.997937
    93  H    1.006423
    94  N    7.002784
    95  C    5.969478
    96  C    5.975921
    97  C    5.987357
    98  C    5.973815
    99  C    6.003229
   100  C    5.988461
   101  O    7.968645
   102  C    6.003929
   103  N    7.008672
   104  C    5.964011
   105  C    6.008536
   106  C    5.989469
   107  C    6.028652
   108  C    6.000589
   109  C    5.995463
   110  C    5.999244
   111  N    6.998099
   112  C    6.036833
   113  C    6.030123
   114  C    6.002422
   115  C    6.028432
   116  C    6.001362
   117  C    6.011710
   118  O    8.029118
   119  C    6.003486
   120  C    6.006943
   121  O    7.999976
   122  O    8.001719
   123  C    5.998348
   124  H    0.986934
   125  H    0.998417
   126  H    1.012287
   127  H    0.997469
   128  H    0.999242
   129  H    1.000578
   130  H    0.996615
   131  H    0.987164
   132  H    1.007987
   133  H    0.995408
   134  H    0.997035
   135  H    0.998135
   136  H    0.985365
   137  H    0.981839
   138  H    0.985270
   139  H    0.992664
   140  H    0.986320
   141  H    0.994959
   142  H    1.001752
   143  H    1.003306
   144  H    1.002694
   145  H    1.005500
   146  H    0.991341
   147  H    0.999186
   148  H    1.011591
   149  H    1.003732
   150  H    0.997499
   151  H    1.006051
   152  H    1.013908
   153  H    1.015013
   154  H    1.015884
   155  H    1.004484
   156  H    1.004334
   157  H    1.004759
   158  H    1.000071
 Sum of Mulliken charges = 624.00000

 Dipole moment (field-independent basis, Debye):
    X=              4.8340    Y=             -8.5181    Z=              2.3392  Tot=             10.0696
 Quadrupole moment (field-independent basis, Debye-Ang):
   XX=           -288.7154   YY=             -7.7247   ZZ=              4.8414
   XY=            261.5647   XZ=            -68.5734   YZ=             -2.6484

 Normal termination of Gaussian 16 at Thu Oct 14 00:36:08 2021.
