 Gaussian 16, Revision A.03,
 Gaussian 16:  ES64L-G16RevA.03 25-Dec-2016

 --------------------------------------------------------
 #p PBE1PBE/Def2SVP td=(nstates=5) density=(transition=1)
 --------------------------------------------------------

 --------------------------------
 TDDFT excited states in gaussian
 --------------------------------
 Symbolic Z-matrix:
 Charge =  0 Multiplicity = 1

                         Standard orientation:
 ---------------------------------------------------------------------
 Center     Atomic      Atomic             Coordinates (Angstroms)
 Number     Number       Type             X           Y           Z
 ---------------------------------------------------------------------
      1         12           0      -13.447853    0.664097    0.271443
      2          6           0      -12.395762   -2.121366   -1.717449
      3          6           0      -15.346373   -1.472889    2.174813
      4          6           0      -14.852231    3.267836    1.901192
      5          6           0      -12.265327    2.750632   -2.314937
      6          7           0      -13.796616   -1.531825    0.216052
      7          6           0      -13.226535   -2.505324   -0.619340
      8          6           0      -13.676374   -3.870028   -0.164459
      9          6           0      -14.968126   -3.532682    0.693240
     10          6           0      -14.729228   -2.029201    1.019912
     11          6           0      -16.226189   -3.764498   -0.217473
     12          6           0      -12.554722   -4.717145    0.533846
     13          6           0      -12.579481   -6.080927    0.055543
     14          1           0      -11.274238   -6.952612    0.417801
     15          7           0      -14.772989    0.768157    1.941417
     16          6           0      -15.404304   -0.216683    2.591668
     17          6           0      -16.104561    0.330005    3.713089
     18          6           0      -16.002075    1.704223    3.659283
     19          6           0      -15.102888    2.012096    2.453209
     20          6           0      -17.000001   -0.548861    4.643079
     21          6           0      -16.546017    2.758557    4.645139
     22          8           0      -16.378956    3.927094    4.403118
     23          6           0      -17.197871    2.340670    5.942118
     24          7           0      -13.761331    2.697338   -0.322467
     25          6           0      -14.262550    3.580748    0.627254
     26          6           0      -14.004810    4.995991    0.223421
     27          6           0      -13.149832    4.839277   -1.127295
     28          6           0      -12.982922    3.342831   -1.248052
     29          6           0      -15.249049    5.811233    0.116088
     30          6           0      -11.732271    5.631768   -1.213986
     31          6           0      -11.566489    6.648218   -2.273555
     32          7           0      -12.472440    0.437908   -1.617164
     33          6           0      -12.078560    1.398413   -2.521333
     34          6           0      -11.355011    0.691539   -3.665731
     35          6           0      -11.354412   -0.679000   -3.337314
     36          6           0      -12.093158   -0.786407   -2.107158
     37          6           0      -10.793154    1.397321   -4.907391
     38          6           0      -11.019716   -1.963255   -3.874099
     39          8           0      -10.420621   -2.269899   -4.929495
     40          6           0      -11.820469   -2.965821   -2.945695
     41          6           0      -10.822479   -4.119813   -2.628480
     42          8           0      -10.227849   -4.164457   -1.535930
     43          8           0      -10.817845   -5.016612   -3.645091
     44          6           0       -9.707137   -6.002626   -3.412274
     45          1           0      -15.769514   -2.155479    2.915227
     46          1           0      -15.279654    4.127576    2.422681
     47          1           0      -11.780689    3.315532   -3.113816
     48          1           0      -14.039163   -4.373880   -1.060062
     49          1           0      -15.047866   -4.171761    1.571909
     50          1           0      -16.366734   -2.991253   -0.972341
     51          1           0      -17.104470   -3.866752    0.418501
     52          1           0      -16.115354   -4.720415   -0.729898
     53          1           0      -12.855011   -4.816682    1.577200
     54          1           0      -11.579078   -4.234574    0.471338
     55          1           0      -12.532656   -6.116743   -1.032995
     56          1           0      -13.469374   -6.555490    0.469776
     57          1           0      -16.595440   -0.341512    5.633715
     58          1           0      -16.926094   -1.622569    4.471140
     59          1           0      -18.047389   -0.276928    4.512869
     60          1           0      -17.593990    3.209126    6.468520
     61          1           0      -16.303145    1.913899    6.395261
     62          1           0      -17.976324    1.613793    5.710437
     63          1           0      -13.368920    5.358805    1.031171
     64          1           0      -13.774675    5.221100   -1.934304
     65          1           0      -15.191316    6.502427    0.955977
     66          1           0      -16.154384    5.233902    0.302978
     67          1           0      -15.387441    6.336459   -0.829222
     68          1           0      -11.041495    4.826972   -1.465298
     69          1           0      -11.494234    5.991194   -0.213749
     70          1           0      -10.778977    6.365209   -2.971521
     71          1           0      -11.170421    7.432168   -1.628973
     72          1           0      -12.511993    6.979963   -2.704754
     73          1           0      -11.579226    1.336519   -5.659217
     74          1           0       -9.889225    0.920373   -5.286131
     75          1           0      -10.515905    2.416870   -4.639416
     76          1           0      -12.639913   -3.289809   -3.585834
     77          1           0       -8.704769   -5.616980   -3.597665
     78          1           0       -9.799780   -6.934198   -3.969621
     79          1           0       -9.813683   -6.319148   -2.374504
     80         12           0       13.832872    0.604615    0.119235
     81          6           0       11.545355   -1.991091    0.688744
     82          6           0       16.368702   -1.711905    0.359038
     83          6           0       15.967870    3.069721   -0.387436
     84          6           0       11.127315    2.845060    0.063875
     85          7           0       13.874819   -1.592655    0.397939
     86          6           0       12.833173   -2.489176    0.637179
     87          6           0       13.266145   -4.001254    0.496403
     88          6           0       14.770394   -3.816686    0.550023
     89          6           0       15.047929   -2.262158    0.419016
     90          6           0       15.346168   -4.276070    1.967312
     91          6           0       12.801244   -4.400081   -0.974251
     92          6           0       12.145606   -5.838462   -1.162120
     93          1           0       12.775014   -6.812554   -0.199282
     94          7           0       15.832778    0.677061    0.152021
     95          6           0       16.696557   -0.328025    0.265130
     96          6           0       18.065246    0.102624    0.156009
     97          6           0       17.991801    1.452556   -0.240817
     98          6           0       16.531576    1.821670   -0.114936
     99          6           0       19.268268   -0.748455    0.337966
    100          6           0       19.062011    2.377714   -0.782484
    101          8           0       18.803585    3.457122   -1.326999
    102          6           0       20.540647    2.041877   -0.569316
    103          7           0       13.557351    2.699119   -0.078988
    104          6           0       14.668231    3.459956   -0.357424
    105          6           0       14.210003    4.876794   -0.696492
    106          6           0       12.606131    4.797160   -0.672785
    107          6           0       12.375764    3.365149   -0.267059
    108          6           0       14.904008    5.905273    0.264869
    109          6           0       11.877036    5.218200   -1.939100
    110          6           0       10.761449    6.282789   -1.697665
    111          7           0       11.769988    0.466797    0.354583
    112          6           0       10.771884    1.490814    0.326112
    113          6           0        9.488805    0.936878    0.573798
    114          6           0        9.766364   -0.433064    0.716791
    115          6           0       11.159162   -0.634368    0.623884
    116          6           0        8.140629    1.580515    0.624698
    117          6           0        9.188800   -1.720280    0.936930
    118          8           0        8.055448   -2.088254    1.139051
    119          6           0       10.324107   -2.775554    0.813454
    120          6           0       10.238052   -3.712121    1.963408
    121          8           0       10.502174   -3.481043    3.139960
    122          8           0        9.866387   -4.897130    1.469431
    123          6           0        9.795013   -6.003023    2.401238
    124          1           0       17.250378   -2.350607    0.275964
    125          1           0       16.726495    3.841468   -0.540149
    126          1           0       10.252517    3.494898   -0.007014
    127          1           0       12.681186   -4.530336    1.248095
    128          1           0       15.243690   -4.340381   -0.279867
    129          1           0       14.561753   -4.611492    2.646043
    130          1           0       15.865345   -3.429192    2.415623
    131          1           0       16.048939   -5.071758    1.719895
    132          1           0       13.612673   -4.385696   -1.701301
    133          1           0       12.110721   -3.619222   -1.293976
    134          1           0       12.444680   -6.273948   -2.115611
    135          1           0       11.061608   -5.774575   -1.260288
    136          1           0       19.734778   -0.838556   -0.643974
    137          1           0       19.000858   -1.750604    0.670156
    138          1           0       19.990337   -0.332742    1.040118
    139          1           0       20.973945    3.029592   -0.725021
    140          1           0       20.925162    1.281383   -1.249972
    141          1           0       20.853835    1.782475    0.441805
    142          1           0       14.490787    5.239921   -1.685085
    143          1           0       12.245336    5.425143    0.141913
    144          1           0       15.252742    6.715461   -0.375604
    145          1           0       15.703459    5.477079    0.869625
    146          1           0       14.167836    6.460884    0.846968
    147          1           0       11.435731    4.393322   -2.497616
    148          1           0       12.627116    5.780343   -2.497202
    149          1           0       10.777520    6.630661   -0.664663
    150          1           0        9.766167    5.842129   -1.751707
    151          1           0       10.879542    7.138629   -2.362585
    152          1           0        7.951774    1.757759   -0.434445
    153          1           0        8.238473    2.454255    1.268610
    154          1           0        7.366281    0.900298    0.976570
    155          1           0       10.026024   -3.355882   -0.060759
    156          1           0        9.156254   -5.738577    3.244410
    157          1           0       10.726337   -6.298606    2.885497
    158          1           0        9.359329   -6.835343    1.848203
 ---------------------------------------------------------------------

 SCF Done:  E(RPBE1PBE) =  -4067.37008325     A.U. after   16 cycles

 Excitation energies and oscillator strengths:

 Excited State   1:      Singlet-A      1.7291 eV  717.05 nm  f=0.0000  <S**2>=0.000
     312 -> 313        0.70710
 This state for optimization and/or second-order correction.
 Total Energy, E(TD-HF/TD-DFT) =  -4067.30654029
 Copying the excited state density for this state as the 1-particle RhoCI density.

 Excited State   2:      Singlet-A      1.8311 eV  677.10 nm  f=0.3701  <S**2>=0.000
     309 -> 315       -0.18186
     312 -> 314        0.68839

 Excited State   3:      Singlet-A      1.8615 eV  666.06 nm  f=0.3467  <S**2>=0.000
     310 -> 316       -0.15491
     311 -> 313        0.69304
     311 <- 313       -0.10791

 Excited State   4:      Singlet-A      2.1648 eV  572.73 nm  f=0.0000  <S**2>=0.000
     311 -> 314        0.70710

 Excited State   5:      Singlet-A      2.2730 eV  545.47 nm  f=0.0119  <S**2>=0.000
     309 -> 314        0.57942
     312 -> 315        0.39815

 The electronic state is 1-A.
 Alpha  occ. eigenvalues --  -46.92734 -46.91116 -19.26761 -19.25919 -19.19987
 Alpha  occ. eigenvalues --  -19.19862 -19.19400 -19.19098 -19.19074 -19.17837
 Alpha  occ. eigenvalues --  -14.41725 -14.41647 -14.41424 -14.41086 -14.39658
 Alpha  occ. eigenvalues --  -14.38850 -14.38846 -14.38209 -10.36706 -10.35360
 Alpha  occ. eigenvalues --  -10.33094 -10.32533 -10.32138 -10.30461 -10.29389
 Alpha  occ. eigenvalues --  -10.28830 -10.28810 -10.28775 -10.28708 -10.28582
 Alpha  occ. eigenvalues --  -10.28535 -10.28391 -10.28385 -10.28343 -10.28171
 Alpha  occ. eigenvalues --  -10.28036 -10.27898 -10.27153 -10.26974 -10.26631
 Alpha  occ. eigenvalues --  -10.26586 -10.26505 -10.26405 -10.26313 -10.26239
 Alpha  occ. eigenvalues --  -10.26233 -10.26131 -10.26034 -10.26016 -10.25811
 Alpha  occ. eigenvalues --  -10.25468 -10.25353 -10.25341 -10.25321 -10.25228
 Alpha  occ. eigenvalues --  -10.25196 -10.25185 -10.25157 -10.25083 -10.25011
 Alpha  occ. eigenvalues --  -10.24984 -10.24940 -10.24776 -10.24722 -10.24378
 Alpha  occ. eigenvalues --  -10.24362 -10.24092 -10.24010 -10.23974 -10.23890
 Alpha  occ. eigenvalues --  -10.23858 -10.23708 -10.23687 -10.23609 -10.23527
 Alpha  occ. eigenvalues --  -10.23512 -10.23416 -10.23364 -10.23362 -10.23143
 Alpha  occ. eigenvalues --  -10.22895 -10.22840 -10.22732 -10.22637 -10.22444
 Alpha  occ. eigenvalues --  -10.21585  -3.14656  -3.13402  -1.87490  -1.87017
 Alpha  occ. eigenvalues --   -1.86879  -1.86254  -1.85757  -1.85657  -1.11922
 Alpha  occ. eigenvalues --   -1.10773  -1.06201  -1.04802  -1.04298  -1.02656
 Alpha  occ. eigenvalues --   -1.01930  -1.01892  -0.99405  -0.98696  -0.98495
 Alpha  occ. eigenvalues --   -0.97507  -0.97469  -0.97294  -0.96961  -0.96179
 Alpha  occ. eigenvalues --   -0.87116  -0.85606  -0.83792  -0.83118  -0.82853
 Alpha  occ. eigenvalues --   -0.82645  -0.82635  -0.82427  -0.82190  -0.81519
 Alpha  occ. eigenvalues --   -0.81495  -0.81439  -0.80896  -0.79868  -0.78611
 Alpha  occ. eigenvalues --   -0.78235  -0.78075  -0.77800  -0.76789  -0.76510
 Alpha  occ. eigenvalues --   -0.76473  -0.75938  -0.75498  -0.74978  -0.74714
 Alpha  occ. eigenvalues --   -0.74633  -0.72995  -0.72301  -0.71795  -0.71778
 Alpha  occ. eigenvalues --   -0.71073  -0.70844  -0.69895  -0.69743  -0.69265
 Alpha  occ. eigenvalues --   -0.69166  -0.67558  -0.66525  -0.65891  -0.65772
 Alpha  occ. eigenvalues --   -0.63428  -0.63201  -0.63064  -0.62268  -0.62020
 Alpha  occ. eigenvalues --   -0.61794  -0.61740  -0.60642  -0.59761  -0.59672
 Alpha  occ. eigenvalues --   -0.59518  -0.59448  -0.59284  -0.59047  -0.58933
 Alpha  occ. eigenvalues --   -0.58745  -0.57053  -0.56612  -0.55164  -0.54333
 Alpha  occ. eigenvalues --   -0.54144  -0.53665  -0.53620  -0.53175  -0.52948
 Alpha  occ. eigenvalues --   -0.52765  -0.52306  -0.51962  -0.51844  -0.51478
 Alpha  occ. eigenvalues --   -0.51127  -0.50442  -0.50167  -0.49956  -0.49822
 Alpha  occ. eigenvalues --   -0.49593  -0.48983  -0.48830  -0.48506  -0.48405
 Alpha  occ. eigenvalues --   -0.48048  -0.47998  -0.47992  -0.47521  -0.47400
 Alpha  occ. eigenvalues --   -0.47272  -0.47166  -0.47088  -0.47040  -0.46965
 Alpha  occ. eigenvalues --   -0.46695  -0.46416  -0.46362  -0.45918  -0.45548
 Alpha  occ. eigenvalues --   -0.45469  -0.45222  -0.45143  -0.45075  -0.44980
 Alpha  occ. eigenvalues --   -0.44840  -0.44822  -0.44520  -0.44467  -0.44202
 Alpha  occ. eigenvalues --   -0.43943  -0.43779  -0.43760  -0.43360  -0.43252
 Alpha  occ. eigenvalues --   -0.43242  -0.43012  -0.42822  -0.42767  -0.42538
 Alpha  occ. eigenvalues --   -0.42506  -0.42422  -0.42307  -0.42148  -0.42073
 Alpha  occ. eigenvalues --   -0.41849  -0.41483  -0.41292  -0.41280  -0.41149
 Alpha  occ. eigenvalues --   -0.41008  -0.40930  -0.40851  -0.40755  -0.40445
 Alpha  occ. eigenvalues --   -0.40100  -0.40014  -0.39850  -0.39480  -0.39424
 Alpha  occ. eigenvalues --   -0.39255  -0.39246  -0.39194  -0.39024  -0.39021
 Alpha  occ. eigenvalues --   -0.38715  -0.38508  -0.38415  -0.38213  -0.38159
 Alpha  occ. eigenvalues --   -0.37853  -0.37751  -0.37725  -0.37550  -0.37510
 Alpha  occ. eigenvalues --   -0.37393  -0.37211  -0.37192  -0.36797  -0.36752
 Alpha  occ. eigenvalues --   -0.36737  -0.36447  -0.36332  -0.35976  -0.35948
 Alpha  occ. eigenvalues --   -0.35615  -0.35611  -0.35333  -0.35042  -0.34964
 Alpha  occ. eigenvalues --   -0.34631  -0.34614  -0.33679  -0.33671  -0.33395
 Alpha  occ. eigenvalues --   -0.33250  -0.32894  -0.32605  -0.32370  -0.32196
 Alpha  occ. eigenvalues --   -0.32022  -0.31907  -0.31898  -0.31450  -0.31292
 Alpha  occ. eigenvalues --   -0.31097  -0.29856  -0.29429  -0.29214  -0.28977
 Alpha  occ. eigenvalues --   -0.28907  -0.28291  -0.28118  -0.27157  -0.27042
 Alpha  occ. eigenvalues --   -0.26423  -0.26344  -0.25933  -0.25886  -0.25408
 Alpha  occ. eigenvalues --   -0.25253  -0.25008  -0.24563  -0.20989  -0.20971
 Alpha  occ. eigenvalues --   -0.18637  -0.17855
 Alpha virt. eigenvalues --   -0.11018  -0.10193  -0.05811  -0.05278  -0.04168
 Alpha virt. eigenvalues --   -0.03494  -0.01907  -0.01573  -0.00825   0.00553
 Alpha virt. eigenvalues --    0.00597   0.01099   0.01491   0.01747   0.01802

 Mulliken charges:
               1
     1  Mg  12.000000
     2  C    6.000000
     3  C    6.000000
     4  C    6.000000
     5  C    6.000000
     6  N    7.000000
     7  C    6.000000
     8  C    6.000000
     9  C    6.000000
    10  C    6.000000
    11  C    6.000000
    12  C    6.000000
    13  C    6.000000
    14  H    1.000000
    15  N    7.000000
    16  C    6.000000
    17  C    6.000000
    18  C    6.000000
    19  C    6.000000
    20  C    6.000000
    21  C    6.000000
    22  O    8.000000
    23  C    6.000000
    24  N    7.000000
    25  C    6.000000
    26  C    6.000000
    27  C    6.000000
    28  C    6.000000
    29  C    6.000000
    30  C    6.000000
    31  C    6.000000
    32  N    7.000000
    33  C    6.000000
    34  C    6.000000
    35  C    6.000000
    36  C    6.000000
    37  C    6.000000
    38  C    6.000000
    39  O    8.000000
    40  C    6.000000
    41  C    6.000000
    42  O    8.000000
    43  O    8.000000
    44  C    6.000000
    45  H    1.000000
    46  H    1.000000
    47  H    1.000000
    48  H    1.000000
    49  H    1.000000
    50  H    1.000000
    51  H    1.000000
    52  H    1.000000
    53  H    1.000000
    54  H    1.000000
    55  H    1.000000
    56  H    1.000000
    57  H    1.000000
    58  H    1.000000
    59  H    1.000000
    60  H    1.000000
    61  H    1.000000
    62  H    1.000000
    63  H    1.000000
    64  H    1.000000
    65  H    1.000000
    66  H    1.000000
    67  H    1.000000
    68  H    1.000000
    69  H    1.000000
    70  H    1.000000
    71  H    1.000000
    72  H    1.000000
    73  H    1.000000
    74  H    1.000000
    75  H    1.000000
    76  H    1.000000
    77  H    1.000000
    78  H    1.000000
    79  H    1.000000
    80  Mg  12.000000
    81  C    6.000000
    82  C    6.000000
    83  C    6.000000
    84  C    6.000000
    85  N    7.000000
    86  C    6.000000
    87  C    6.000000
    88  C    6.000000
    89  C    6.000000
    90  C    6.000000
    91  C    6.000000
    92  C    6.000000
    93  H    1.000000
    94  N    7.000000
    95  C    6.000000
    96  C    6.000000
    97  C    6.000000
    98  C    6.000000
    99  C    6.000000
   100  C    6.000000
   101  O    8.000000
   102  C    6.000000
   103  N    7.000000
   104  C    6.000000
   105  C    6.000000
   106  C    6.000000
   107  C    6.000000
   108  C    6.000000
   109  C    6.000000
   110  C    6.000000
   111  N    7.000000
   112  C    6.000000
   113  C    6.000000
   114  C    6.000000
   115  C    6.000000
   116  C    6.000000
   117  C    6.000000
   118  O    8.000000
   119  C    6.000000
   120  C    6.000000
   121  O    8.000000
   122  O    8.000000
   123  C    6.000000
   124  H    1.000000
   125  H    1.000000
   126  H    1.000000
   127  H    1.000000
   128  H    1.000000
   129  H    1.000000
   130  H    1.000000
   131  H    1.000000
   132  H    1.000000
   133  H    1.000000
   134  H    1.000000
   135  H    1.000000
   136  H    1.000000
   137  H    1.000000
   138  H    1.000000
   139  H    1.000000
   140  H    1.000000
   141  H    1.000000
   142  H    1.000000
   143  H    1.000000
   144  H    1.000000
   145  H    1.000000
   146  H    1.000000
   147  H    1.000000
   148  H    1.000000
   149  H    1.000000
   150  H    1.000000
   151  H    1.000000
   152  H    1.000000
   153  H    1.000000
   154  H    1.000000
   155  H    1.000000
   156  H    1.000000
   157  H    1.000000
   158  H    1.000000
 Sum of Mulliken charges = 624.00000

 Dipole moment (field-independent basis, Debye):
    X=              0.0000    Y=             -0.0000    Z=              0.0000  Tot=              0.0000
 Quadrupole moment (field-independent basis, Debye-Ang):
   XX=              0.0000   YY=             -0.0000   ZZ=              0.0000
   XY=              0.0000   XZ=             -0.0000   YZ=              0.0000

 Normal termination of Gaussian 16 at Thu Oct 14 19:54:58 2021.
