 Gaussian 16, Revision A.03,
 Gaussian 16:  ES64L-G16RevA.03 25-Dec-2016

 --------------------------------------------------------
 #p PBE1PBE/Def2SVP td=(nstates=5) density=(transition=1)
 --------------------------------------------------------

 --------------------------------
 TDDFT excited states in gaussian
 --------------------------------
 Symbolic Z-matrix:
 Charge =  0 Multiplicity = 1

                         Standard orientation:
 ---------------------------------------------------------------------
 Center     Atomic      Atomic             Coordinates (Angstroms)
 Number     Number       Type             X           Y           Z
 ---------------------------------------------------------------------
      1         12           0      -32.078566   -0.189655   -0.759935
      2          6           0      -28.807585    0.826977    0.477841
      3          6           0      -31.300712   -3.380328    0.242126
      4          6           0      -35.350861   -0.812358   -0.465422
      5          6           0      -32.620080    2.995083   -1.813759
      6          7           0      -30.297187   -1.105889    0.437652
      7          6           0      -29.032457   -0.496538    0.764880
      8          6           0      -28.055910   -1.576534    1.238950
      9          6           0      -28.721617   -2.916867    0.808614
     10          6           0      -30.215748   -2.504066    0.446588
     11          6           0      -28.013385   -3.610776   -0.449396
     12          6           0      -27.562673   -1.483977    2.653346
     13          6           0      -28.360197   -0.588639    3.630800
     14          1           0      -28.088879   -0.394544    5.133853
     15          7           0      -33.193400   -1.933663   -0.316124
     16          6           0      -32.673564   -3.141483    0.093902
     17          6           0      -33.800931   -4.119332    0.201463
     18          6           0      -34.942257   -3.327052    0.107457
     19          6           0      -34.568069   -1.944980   -0.183120
     20          6           0      -33.542626   -5.555489    0.491114
     21          6           0      -36.395256   -3.850222    0.301780
     22          8           0      -36.540944   -5.011032    0.641457
     23          6           0      -37.618610   -2.996407    0.248563
     24          7           0      -33.713524    1.036201   -0.957944
     25          6           0      -34.980631    0.455547   -0.916980
     26          6           0      -36.053742    1.450285   -1.359487
     27          6           0      -35.211464    2.565577   -2.078485
     28          6           0      -33.796160    2.175615   -1.646305
     29          6           0      -37.214769    0.938531   -2.250450
     30          6           0      -35.592958    4.042179   -1.739114
     31          6           0      -36.357161    4.847789   -2.886854
     32          7           0      -30.947802    1.573206   -0.781831
     33          6           0      -31.297865    2.795571   -1.336672
     34          6           0      -30.144145    3.661071   -1.334541
     35          6           0      -29.221345    2.934850   -0.569550
     36          6           0      -29.773134    1.660644   -0.288117
     37          6           0      -30.147867    5.090911   -1.902488
     38          6           0      -27.894727    2.927539   -0.033602
     39          8           0      -27.059876    3.844552   -0.169698
     40          6           0      -27.477794    1.509619    0.560389
     41          6           0      -26.957353    1.816165    1.907720
     42          8           0      -27.498741    2.520992    2.765988
     43          8           0      -25.834765    1.072842    2.065012
     44          6           0      -25.017742    1.355675    3.286554
     45          1           0      -31.058331   -4.390547    0.577116
     46          1           0      -36.416552   -1.035173   -0.378055
     47          1           0      -32.784657    3.971305   -2.273780
     48          1           0      -27.247803   -1.343794    0.545441
     49          1           0      -28.866274   -3.606593    1.640338
     50          1           0      -27.583181   -4.515727   -0.022176
     51          1           0      -27.287303   -2.922068   -0.882019
     52          1           0      -28.822717   -3.869775   -1.132965
     53          1           0      -26.508158   -1.216963    2.586485
     54          1           0      -27.609337   -2.531708    2.952187
     55          1           0      -29.390010   -0.936232    3.542710
     56          1           0      -28.320256    0.446558    3.291281
     57          1           0      -33.918980   -5.727908    1.499022
     58          1           0      -32.469788   -5.729411    0.413918
     59          1           0      -34.020978   -6.169500   -0.272758
     60          1           0      -37.742618   -2.226215    1.008878
     61          1           0      -38.533676   -3.562315    0.420735
     62          1           0      -37.573069   -2.652511   -0.784669
     63          1           0      -36.404182    1.718792   -0.362222
     64          1           0      -35.315829    2.341612   -3.140342
     65          1           0      -38.136078    0.749420   -1.698585
     66          1           0      -36.944675   -0.024717   -2.681948
     67          1           0      -37.344744    1.657228   -3.060311
     68          1           0      -34.751567    4.662447   -1.428935
     69          1           0      -36.202666    3.953217   -0.839892
     70          1           0      -37.140737    5.351644   -2.321512
     71          1           0      -36.787327    4.229826   -3.675148
     72          1           0      -35.611282    5.467623   -3.383143
     73          1           0      -29.187842    5.445354   -2.278401
     74          1           0      -30.408593    5.660712   -1.011267
     75          1           0      -30.772606    5.140041   -2.794064
     76          1           0      -26.735696    1.050553   -0.094449
     77          1           0      -24.152125    0.692498    3.300848
     78          1           0      -25.589822    1.169418    4.195670
     79          1           0      -24.753132    2.402158    3.141710
     80         12           0       31.835369    0.586905   -0.493050
     81          6           0       30.289804   -2.580104    0.181849
     82          6           0       29.571880    1.893711    1.941853
     83          6           0       33.692515    3.365062   -0.144172
     84          6           0       34.302913   -1.060385   -2.194218
     85          7           0       30.190890   -0.283589    0.884050
     86          6           0       29.727569   -1.564405    0.963580
     87          6           0       28.559918   -1.699931    2.002212
     88          6           0       28.145832   -0.163321    2.197549
     89          6           0       29.416106    0.517825    1.713767
     90          6           0       26.959908    0.281910    1.372921
     91          6           0       28.933514   -2.514759    3.229449
     92          6           0       27.903169   -3.555867    3.738864
     93          1           0       26.958177   -3.233391    4.988207
     94          7           0       31.617008    2.488644    0.682389
     95          6           0       30.549683    2.821284    1.542456
     96          6           0       30.740072    4.197103    2.017828
     97          6           0       31.947400    4.655114    1.357268
     98          6           0       32.512073    3.507722    0.679949
     99          6           0       29.900874    4.930474    2.995241
    100          6           0       32.470567    6.069163    1.392435
    101          8           0       31.766792    6.926156    1.877713
    102          6           0       33.814644    6.496354    0.849282
    103          7           0       33.719351    0.974049   -0.986030
    104          6           0       34.196962    2.276446   -0.870112
    105          6           0       35.601740    2.303271   -1.476883
    106          6           0       35.685927    0.967551   -2.302537
    107          6           0       34.461551    0.258545   -1.830638
    108          6           0       36.050703    3.592832   -2.257435
    109          6           0       36.998383    0.129876   -2.212970
    110          6           0       37.696665   -0.216929   -3.487371
    111          7           0       32.202857   -1.352283   -1.045453
    112          6           0       33.220259   -1.888052   -1.815675
    113          6           0       32.919200   -3.285650   -2.181380
    114          6           0       31.783306   -3.586442   -1.333786
    115          6           0       31.434755   -2.395197   -0.689968
    116          6           0       33.640842   -4.226007   -3.110417
    117          6           0       30.836132   -4.680537   -0.967964
    118          8           0       30.832943   -5.840780   -1.266426
    119          6           0       29.936219   -4.067849    0.100282
    120          6           0       28.514203   -4.253277   -0.338138
    121          8           0       28.127679   -3.672818   -1.329754
    122          8           0       27.690193   -5.037712    0.523669
    123          6           0       26.228950   -5.059541    0.211292
    124          1           0       28.864219    2.343355    2.641716
    125          1           0       34.402704    4.193587   -0.152403
    126          1           0       35.008838   -1.498769   -2.902280
    127          1           0       27.663944   -2.125260    1.550989
    128          1           0       28.038877    0.089210    3.252418
    129          1           0       27.305264    0.491622    0.360834
    130          1           0       26.524369    1.143371    1.878984
    131          1           0       26.136792   -0.415804    1.215254
    132          1           0       29.053628   -1.796514    4.039909
    133          1           0       29.940362   -2.903212    3.076503
    134          1           0       28.526796   -4.417021    3.980076
    135          1           0       27.204191   -3.884384    2.969606
    136          1           0       29.228662    5.555561    2.408229
    137          1           0       30.524717    5.638824    3.540452
    138          1           0       29.318581    4.385597    3.739272
    139          1           0       34.092970    7.530137    1.053104
    140          1           0       33.740522    6.378389   -0.231848
    141          1           0       34.701424    5.915825    1.100949
    142          1           0       36.221913    2.335794   -0.580630
    143          1           0       35.416310    1.191700   -3.334173
    144          1           0       35.183063    4.173903   -2.571089
    145          1           0       36.698117    3.326875   -3.092835
    146          1           0       36.685061    4.212807   -1.624314
    147          1           0       36.786406   -0.795839   -1.678077
    148          1           0       37.662852    0.653065   -1.525453
    149          1           0       37.547004   -1.275568   -3.698434
    150          1           0       38.767603   -0.049126   -3.374009
    151          1           0       37.393822    0.313958   -4.389633
    152          1           0       32.983690   -5.029721   -3.441894
    153          1           0       34.494509   -4.613149   -2.553408
    154          1           0       34.071979   -3.631059   -3.915768
    155          1           0       30.211304   -4.517807    1.054323
    156          1           0       26.050680   -5.751564   -0.611943
    157          1           0       25.891069   -4.083716   -0.136919
    158          1           0       25.648761   -5.331155    1.092959
 ---------------------------------------------------------------------

 SCF Done:  E(RPBE1PBE) =  -4067.34082731     A.U. after   16 cycles

 Excitation energies and oscillator strengths:

 Excited State   1:      Singlet-A      1.8047 eV  686.99 nm  f=0.3438  <S**2>=0.000
     309 -> 315       -0.15296
     312 -> 314        0.69767
     312 <- 314       -0.11784
 This state for optimization and/or second-order correction.
 Total Energy, E(TD-HF/TD-DFT) =  -4067.27450443
 Copying the excited state density for this state as the 1-particle RhoCI density.

 Excited State   2:      Singlet-A      1.8362 eV  675.21 nm  f=0.3837  <S**2>=0.000
     310 -> 316        0.16416
     311 -> 313        0.69670
     311 <- 313       -0.11953

 Excited State   3:      Singlet-A      1.8658 eV  664.49 nm  f=0.0000  <S**2>=0.000
     312 -> 313        0.70711

 Excited State   4:      Singlet-A      2.0330 eV  609.87 nm  f=0.0000  <S**2>=0.000
     311 -> 314        0.70711

 Excited State   5:      Singlet-A      2.2360 eV  554.48 nm  f=0.1176  <S**2>=0.000
     307 -> 313        0.10066
     310 -> 313        0.64817
     311 -> 316       -0.25656

 The electronic state is 1-A.
 Alpha  occ. eigenvalues --  -46.92729 -46.92683 -19.26067 -19.25853 -19.20853
 Alpha  occ. eigenvalues --  -19.19825 -19.19742 -19.19084 -19.18229 -19.17603
 Alpha  occ. eigenvalues --  -14.42119 -14.41967 -14.41349 -14.41151 -14.39261
 Alpha  occ. eigenvalues --  -14.38995 -14.38816 -14.38499 -10.37173 -10.36226
 Alpha  occ. eigenvalues --  -10.32491 -10.32467 -10.31680 -10.30961 -10.29463
 Alpha  occ. eigenvalues --  -10.29449 -10.29371 -10.29261 -10.29119 -10.29014
 Alpha  occ. eigenvalues --  -10.29014 -10.28478 -10.28392 -10.28283 -10.28178
 Alpha  occ. eigenvalues --  -10.28174 -10.27937 -10.27912 -10.27273 -10.27107
 Alpha  occ. eigenvalues --  -10.26781 -10.26697 -10.26484 -10.26441 -10.26389
 Alpha  occ. eigenvalues --  -10.26382 -10.26360 -10.26344 -10.26237 -10.26217
 Alpha  occ. eigenvalues --  -10.26212 -10.25916 -10.25829 -10.25759 -10.25613
 Alpha  occ. eigenvalues --  -10.25569 -10.25565 -10.25466 -10.25452 -10.25106
 Alpha  occ. eigenvalues --  -10.25075 -10.24951 -10.24896 -10.24837 -10.24776
 Alpha  occ. eigenvalues --  -10.24743 -10.24710 -10.24462 -10.24381 -10.24329
 Alpha  occ. eigenvalues --  -10.24324 -10.24218 -10.24062 -10.24031 -10.23984
 Alpha  occ. eigenvalues --  -10.23926 -10.23903 -10.23644 -10.23538 -10.23509
 Alpha  occ. eigenvalues --  -10.23499 -10.23222 -10.23208 -10.23174 -10.22823
 Alpha  occ. eigenvalues --  -10.22020  -3.14875  -3.14752  -1.87661  -1.87563
 Alpha  occ. eigenvalues --   -1.87256  -1.87148  -1.87104  -1.86955  -1.10897
 Alpha  occ. eigenvalues --   -1.10009  -1.06397  -1.05242  -1.04993  -1.02632
 Alpha  occ. eigenvalues --   -1.02373  -1.01620  -0.99683  -0.99231  -0.98777
 Alpha  occ. eigenvalues --   -0.98187  -0.97368  -0.97270  -0.96190  -0.94868
 Alpha  occ. eigenvalues --   -0.87026  -0.86403  -0.83719  -0.83651  -0.83224
 Alpha  occ. eigenvalues --   -0.83135  -0.82887  -0.82779  -0.81895  -0.81092
 Alpha  occ. eigenvalues --   -0.80903  -0.80543  -0.80511  -0.79953  -0.78754
 Alpha  occ. eigenvalues --   -0.78598  -0.78269  -0.78077  -0.76766  -0.76760
 Alpha  occ. eigenvalues --   -0.76593  -0.76019  -0.75345  -0.74840  -0.74530
 Alpha  occ. eigenvalues --   -0.74509  -0.72489  -0.72284  -0.72081  -0.71787
 Alpha  occ. eigenvalues --   -0.71088  -0.70848  -0.70591  -0.70353  -0.69595
 Alpha  occ. eigenvalues --   -0.69537  -0.67543  -0.67099  -0.66221  -0.66085
 Alpha  occ. eigenvalues --   -0.64028  -0.63907  -0.63331  -0.63302  -0.62340
 Alpha  occ. eigenvalues --   -0.62160  -0.61322  -0.61131  -0.60564  -0.60395
 Alpha  occ. eigenvalues --   -0.59800  -0.59511  -0.59262  -0.59133  -0.58834
 Alpha  occ. eigenvalues --   -0.58133  -0.56867  -0.56760  -0.54347  -0.54107
 Alpha  occ. eigenvalues --   -0.53981  -0.53785  -0.53761  -0.53683  -0.53467
 Alpha  occ. eigenvalues --   -0.52993  -0.52519  -0.52237  -0.52040  -0.51806
 Alpha  occ. eigenvalues --   -0.51361  -0.51105  -0.50727  -0.50191  -0.50047
 Alpha  occ. eigenvalues --   -0.49739  -0.49182  -0.48793  -0.48788  -0.48435
 Alpha  occ. eigenvalues --   -0.48312  -0.47895  -0.47771  -0.47722  -0.47482
 Alpha  occ. eigenvalues --   -0.47453  -0.47139  -0.46973  -0.46882  -0.46482
 Alpha  occ. eigenvalues --   -0.46326  -0.46245  -0.45922  -0.45887  -0.45805
 Alpha  occ. eigenvalues --   -0.45563  -0.45505  -0.45464  -0.45327  -0.45075
 Alpha  occ. eigenvalues --   -0.44595  -0.44484  -0.44431  -0.44337  -0.44303
 Alpha  occ. eigenvalues --   -0.43987  -0.43927  -0.43781  -0.43642  -0.43356
 Alpha  occ. eigenvalues --   -0.43315  -0.43267  -0.42995  -0.42815  -0.42809
 Alpha  occ. eigenvalues --   -0.42467  -0.42378  -0.42276  -0.41869  -0.41834
 Alpha  occ. eigenvalues --   -0.41660  -0.41563  -0.41370  -0.41240  -0.41104
 Alpha  occ. eigenvalues --   -0.41022  -0.41001  -0.40868  -0.40812  -0.40686
 Alpha  occ. eigenvalues --   -0.40604  -0.40491  -0.40224  -0.39949  -0.39939
 Alpha  occ. eigenvalues --   -0.39708  -0.39652  -0.39377  -0.39308  -0.38818
 Alpha  occ. eigenvalues --   -0.38731  -0.38600  -0.38435  -0.38347  -0.38256
 Alpha  occ. eigenvalues --   -0.38229  -0.38117  -0.37789  -0.37665  -0.37569
 Alpha  occ. eigenvalues --   -0.37495  -0.37423  -0.37369  -0.37173  -0.37073
 Alpha  occ. eigenvalues --   -0.37040  -0.36803  -0.36792  -0.36665  -0.36389
 Alpha  occ. eigenvalues --   -0.36022  -0.35960  -0.35750  -0.35647  -0.35522
 Alpha  occ. eigenvalues --   -0.35204  -0.34901  -0.34329  -0.34228  -0.34038
 Alpha  occ. eigenvalues --   -0.33440  -0.33386  -0.32681  -0.32414  -0.32341
 Alpha  occ. eigenvalues --   -0.32156  -0.32035  -0.31590  -0.31559  -0.31390
 Alpha  occ. eigenvalues --   -0.30867  -0.30848  -0.29781  -0.29552  -0.29274
 Alpha  occ. eigenvalues --   -0.29048  -0.28825  -0.28304  -0.27096  -0.26844
 Alpha  occ. eigenvalues --   -0.26341  -0.25835  -0.25403  -0.25315  -0.25277
 Alpha  occ. eigenvalues --   -0.25230  -0.24397  -0.24296  -0.21267  -0.21199
 Alpha  occ. eigenvalues --   -0.18776  -0.18457
 Alpha virt. eigenvalues --   -0.11393  -0.11098  -0.05302  -0.05019  -0.03541
 Alpha virt. eigenvalues --   -0.03126  -0.02013  -0.01956  -0.01543  -0.01399
 Alpha virt. eigenvalues --   -0.00205   0.00160   0.00245   0.01020   0.01253

 Mulliken charges:
               1
     1  Mg  12.000284
     2  C    6.027422
     3  C    6.008844
     4  C    5.968893
     5  C    5.992163
     6  N    7.023620
     7  C    5.974274
     8  C    6.003546
     9  C    5.997845
    10  C    6.011955
    11  C    5.997982
    12  C    6.001356
    13  C    6.005882
    14  H    0.998024
    15  N    6.991791
    16  C    6.031732
    17  C    6.026895
    18  C    6.002016
    19  C    6.045158
    20  C    5.995492
    21  C    6.011862
    22  O    8.015867
    23  C    5.998215
    24  N    6.991442
    25  C    6.039323
    26  C    5.989821
    27  C    6.011431
    28  C    5.968092
    29  C    6.000075
    30  C    6.006464
    31  C    5.998015
    32  N    6.999641
    33  C    5.969436
    34  C    5.976018
    35  C    5.998730
    36  C    5.964315
    37  C    5.998730
    38  C    5.983821
    39  O    7.967770
    40  C    5.992994
    41  C    5.996108
    42  O    7.998890
    43  O    7.997746
    44  C    5.999898
    45  H    1.013285
    46  H    1.005121
    47  H    0.984279
    48  H    1.004872
    49  H    0.999216
    50  H    1.005001
    51  H    1.013909
    52  H    0.997215
    53  H    1.002799
    54  H    0.992220
    55  H    0.990088
    56  H    1.006838
    57  H    1.017437
    58  H    1.014269
    59  H    1.017972
    60  H    1.010281
    61  H    1.010921
    62  H    1.007526
    63  H    1.000480
    64  H    0.993342
    65  H    0.997167
    66  H    0.995110
    67  H    1.008771
    68  H    1.005417
    69  H    0.991105
    70  H    0.995169
    71  H    0.994384
    72  H    1.002517
    73  H    0.985120
    74  H    0.984504
    75  H    0.986986
    76  H    0.994241
    77  H    0.995439
    78  H    0.995954
    79  H    1.001163
    80  Mg  12.000003
    81  C    5.999998
    82  C    6.000023
    83  C    5.999932
    84  C    5.999955
    85  N    7.000018
    86  C    5.999951
    87  C    6.000026
    88  C    5.999992
    89  C    6.000066
    90  C    5.999963
    91  C    6.000015
    92  C    5.999999
    93  H    0.999982
    94  N    7.000036
    95  C    6.000142
    96  C    6.000038
    97  C    6.000063
    98  C    6.000098
    99  C    5.999960
   100  C    6.000050
   101  O    8.000072
   102  C    5.999980
   103  N    6.999987
   104  C    6.000071
   105  C    5.999966
   106  C    6.000014
   107  C    5.999950
   108  C    6.000000
   109  C    6.000029
   110  C    6.000008
   111  N    6.999952
   112  C    5.999923
   113  C    5.999909
   114  C    6.000007
   115  C    5.999926
   116  C    6.000022
   117  C    5.999896
   118  O    7.999908
   119  C    6.000031
   120  C    5.999977
   121  O    7.999997
   122  O    7.999995
   123  C    6.000006
   124  H    1.000053
   125  H    1.000011
   126  H    0.999944
   127  H    1.000000
   128  H    1.000005
   129  H    1.000022
   130  H    1.000015
   131  H    1.000066
   132  H    0.999962
   133  H    1.000014
   134  H    0.999999
   135  H    1.000012
   136  H    1.000092
   137  H    1.000060
   138  H    1.000075
   139  H    1.000046
   140  H    1.000044
   141  H    1.000035
   142  H    0.999997
   143  H    0.999988
   144  H    0.999996
   145  H    1.000024
   146  H    0.999985
   147  H    1.000006
   148  H    0.999951
   149  H    1.000007
   150  H    0.999968
   151  H    0.999986
   152  H    0.999936
   153  H    0.999907
   154  H    0.999936
   155  H    0.999962
   156  H    0.999991
   157  H    0.999991
   158  H    0.999980
 Sum of Mulliken charges = 624.00000

 Dipole moment (field-independent basis, Debye):
    X=             -4.3094    Y=             -8.9167    Z=              1.5506  Tot=             10.0241
 Quadrupole moment (field-independent basis, Debye-Ang):
   XX=            273.7361   YY=              3.6420   ZZ=             -3.5956
   XY=            288.0666   XZ=            -50.0176   YZ=              4.6233

 Normal termination of Gaussian 16 at Thu Oct 14 00:01:50 2021.
