 Gaussian 16, Revision A.03,
 Gaussian 16:  ES64L-G16RevA.03 25-Dec-2016

 --------------------------------------------------------
 #p PBE1PBE/Def2SVP td=(nstates=5) density=(transition=1)
 --------------------------------------------------------

 --------------------------------
 TDDFT excited states in gaussian
 --------------------------------
 Symbolic Z-matrix:
 Charge =  0 Multiplicity = 1

                         Standard orientation:
 ---------------------------------------------------------------------
 Center     Atomic      Atomic             Coordinates (Angstroms)
 Number     Number       Type             X           Y           Z
 ---------------------------------------------------------------------
      1         12           0      -22.023773   -0.803270   -0.235770
      2          6           0      -23.657371    1.897884    1.370199
      3          6           0      -20.244320    1.635210   -1.998144
      4          6           0      -20.333350   -3.182028   -1.740267
      5          6           0      -24.439594   -2.971164    1.010811
      6          7           0      -21.970017    1.481027   -0.246913
      7          6           0      -22.603755    2.356943    0.581506
      8          6           0      -22.296881    3.846317    0.349137
      9          6           0      -21.252804    3.668514   -0.866205
     10          6           0      -21.184307    2.179374   -1.033413
     11          6           0      -21.711319    4.338592   -2.221536
     12          6           0      -21.664923    4.542907    1.598143
     13          6           0      -22.353819    5.618873    2.428508
     14          1           0      -21.565768    6.766903    3.045354
     15          7           0      -20.437615   -0.809629   -1.622532
     16          6           0      -19.886341    0.294612   -2.288354
     17          6           0      -18.950905   -0.214432   -3.266309
     18          6           0      -18.836295   -1.592907   -3.104145
     19          6           0      -19.852072   -1.913277   -2.082430
     20          6           0      -18.146277    0.761758   -4.054722
     21          6           0      -17.996114   -2.632959   -3.844464
     22          8           0      -18.018531   -3.846073   -3.615297
     23          6           0      -16.989697   -2.125430   -4.800498
     24          7           0      -22.370168   -2.790698   -0.455884
     25          6           0      -21.421932   -3.644836   -0.946850
     26          6           0      -21.715757   -5.121569   -0.515183
     27          6           0      -23.033813   -5.001459    0.238713
     28          6           0      -23.363282   -3.482961    0.215414
     29          6           0      -21.696745   -6.136511   -1.704604
     30          6           0      -22.872816   -5.574363    1.655048
     31          6           0      -23.946908   -6.450451    2.189297
     32          7           0      -23.773882   -0.627821    0.862324
     33          6           0      -24.640205   -1.587108    1.322276
     34          6           0      -25.680019   -1.012084    2.122167
     35          6           0      -25.318713    0.413216    2.294285
     36          6           0      -24.122659    0.563230    1.487605
     37          6           0      -26.879100   -1.768128    2.719616
     38          6           0      -25.661309    1.722176    2.905411
     39          8           0      -26.517520    2.009233    3.759148
     40          6           0      -24.578476    2.718894    2.319270
     41          6           0      -25.476785    3.706957    1.643150
     42          8           0      -25.941250    3.665113    0.510325
     43          8           0      -25.642959    4.766507    2.386524
     44          6           0      -26.626223    5.801148    1.983652
     45          1           0      -19.665115    2.489414   -2.354032
     46          1           0      -19.886212   -4.064643   -2.201636
     47          1           0      -25.146578   -3.677178    1.450634
     48          1           0      -23.213436    4.320486   -0.004078
     49          1           0      -20.219285    3.978658   -0.709017
     50          1           0      -22.760939    4.618412   -2.307283
     51          1           0      -21.523159    3.658817   -3.051823
     52          1           0      -21.111911    5.235395   -2.379295
     53          1           0      -20.746689    5.016603    1.250545
     54          1           0      -21.410216    3.801240    2.354144
     55          1           0      -22.660206    5.029944    3.293149
     56          1           0      -23.146481    5.941530    1.753392
     57          1           0      -17.079484    0.661121   -3.859723
     58          1           0      -18.429460    1.787368   -3.816666
     59          1           0      -18.259415    0.642951   -5.131878
     60          1           0      -16.396075   -1.345689   -4.323128
     61          1           0      -17.439630   -1.570425   -5.623805
     62          1           0      -16.276909   -2.874419   -5.144056
     63          1           0      -20.864853   -5.330505    0.133001
     64          1           0      -23.806859   -5.618318   -0.219227
     65          1           0      -21.326212   -5.721422   -2.641776
     66          1           0      -22.674725   -6.552828   -1.943276
     67          1           0      -21.166431   -7.041050   -1.407178
     68          1           0      -22.803497   -4.673436    2.263324
     69          1           0      -21.986721   -6.192254    1.798353
     70          1           0      -24.240328   -5.980195    3.127548
     71          1           0      -23.596613   -7.480604    2.253189
     72          1           0      -24.871376   -6.448657    1.611437
     73          1           0      -27.706092   -1.736193    2.011233
     74          1           0      -27.136019   -1.301689    3.670561
     75          1           0      -26.662773   -2.825027    2.876926
     76          1           0      -24.076208    3.170815    3.174410
     77          1           0      -26.411697    6.266470    1.022217
     78          1           0      -26.765152    6.594240    2.718103
     79          1           0      -27.663412    5.481897    1.886268
     80         12           0       22.270879   -0.723882    0.336900
     81          6           0       21.569923    2.456876   -1.040195
     82          6           0       23.053526    0.832543    3.285473
     83          6           0       23.536777   -3.591857    1.404627
     84          6           0       21.902250   -2.083533   -2.867304
     85          7           0       22.461383    1.427331    0.988160
     86          6           0       22.004659    2.531345    0.263386
     87          6           0       21.898179    3.765111    1.193292
     88          6           0       22.402111    3.216826    2.578166
     89          6           0       22.634222    1.701165    2.326414
     90          6           0       23.491824    4.007006    3.281477
     91          6           0       20.521274    4.441696    1.280548
     92          6           0       20.543857    5.960654    0.955983
     93          1           0       19.980334    6.863793    2.030579
     94          7           0       23.094332   -1.295483    2.153329
     95          6           0       23.376706   -0.530226    3.246521
     96          6           0       23.794640   -1.416926    4.306180
     97          6           0       24.086389   -2.720990    3.717159
     98          6           0       23.580083   -2.531350    2.366484
     99          6           0       24.161117   -0.886822    5.787805
    100          6           0       24.928203   -3.834379    4.172065
    101          8           0       25.109375   -4.883402    3.622538
    102          6           0       25.664494   -3.617009    5.490643
    103          7           0       22.854435   -2.532934   -0.691853
    104          6           0       23.300460   -3.593528    0.009147
    105          6           0       23.286542   -4.857412   -0.853826
    106          6           0       22.439158   -4.433050   -2.064027
    107          6           0       22.341581   -2.935679   -1.875011
    108          6           0       24.764890   -5.294557   -1.272180
    109          6           0       20.980948   -5.109043   -1.929164
    110          6           0       20.058393   -4.508388   -0.833567
    111          7           0       21.713796   -0.066745   -1.596455
    112          6           0       21.602932   -0.729696   -2.758956
    113          6           0       21.187498    0.204657   -3.770355
    114          6           0       21.116604    1.430797   -3.136176
    115          6           0       21.509295    1.254888   -1.806499
    116          6           0       20.904731   -0.038727   -5.240590
    117          6           0       20.842924    2.839353   -3.433442
    118          8           0       20.616940    3.528183   -4.388119
    119          6           0       21.047183    3.555123   -2.072065
    120          6           0       22.098493    4.574564   -2.312594
    121          8           0       23.170223    4.275431   -2.776131
    122          8           0       21.686546    5.868920   -2.038974
    123          6           0       22.577400    6.970715   -2.535131
    124          1           0       23.096546    1.309880    4.266797
    125          1           0       23.832616   -4.589252    1.737670
    126          1           0       21.560519   -2.448132   -3.838283
    127          1           0       22.643766    4.498354    0.885092
    128          1           0       21.591968    3.334042    3.298174
    129          1           0       23.983866    4.695519    2.596088
    130          1           0       24.241070    3.383499    3.769952
    131          1           0       22.978279    4.639106    4.005484
    132          1           0       20.004452    4.428944    2.240163
    133          1           0       19.813370    3.963411    0.604011
    134          1           0       20.116521    6.165807   -0.025490
    135          1           0       21.587726    6.263110    0.882905
    136          1           0       23.653092   -1.530486    6.505847
    137          1           0       23.827948    0.120210    6.035917
    138          1           0       25.210730   -0.802854    6.069421
    139          1           0       24.855204   -3.491596    6.210345
    140          1           0       26.234658   -2.700770    5.340570
    141          1           0       26.260099   -4.466667    5.825898
    142          1           0       22.765141   -5.695837   -0.390776
    143          1           0       22.814887   -4.576464   -3.077365
    144          1           0       24.747992   -6.376917   -1.402583
    145          1           0       25.584387   -5.092368   -0.581680
    146          1           0       24.918378   -4.811043   -2.236813
    147          1           0       21.027836   -6.187667   -1.780541
    148          1           0       20.388355   -4.873302   -2.813217
    149          1           0       19.148395   -5.070928   -0.627577
    150          1           0       19.752808   -3.517960   -1.171245
    151          1           0       20.654224   -4.401019    0.073419
    152          1           0       20.071858   -0.714858   -5.432302
    153          1           0       21.820537   -0.505953   -5.601725
    154          1           0       20.798711    0.886035   -5.807727
    155          1           0       20.090873    4.051227   -1.907347
    156          1           0       22.564707    7.603599   -1.647778
    157          1           0       22.154654    7.514285   -3.379864
    158          1           0       23.599424    6.754209   -2.845084
 ---------------------------------------------------------------------

 SCF Done:  E(RPBE1PBE) =  -4067.37910209     A.U. after   16 cycles

 Excitation energies and oscillator strengths:

 Excited State   1:      Singlet-A      1.8638 eV  665.22 nm  f=0.3453  <S**2>=0.000
     310 -> 315        0.18234
     312 -> 314        0.68635
 This state for optimization and/or second-order correction.
 Total Energy, E(TD-HF/TD-DFT) =  -4067.31060816
 Copying the excited state density for this state as the 1-particle RhoCI density.

 Excited State   2:      Singlet-A      1.8680 eV  663.74 nm  f=0.4064  <S**2>=0.000
     309 -> 316        0.16737
     311 -> 313        0.69121
     311 <- 313       -0.11113

 Excited State   3:      Singlet-A      1.8756 eV  661.05 nm  f=0.0000  <S**2>=0.000
     312 -> 313        0.70711

 Excited State   4:      Singlet-A      2.1331 eV  581.25 nm  f=0.0000  <S**2>=0.000
     311 -> 314        0.70711

 Excited State   5:      Singlet-A      2.2023 eV  562.97 nm  f=0.1250  <S**2>=0.000
     309 -> 313        0.66411
     311 -> 316       -0.22442

 The electronic state is 1-A.
 Alpha  occ. eigenvalues --  -46.92960 -46.91979 -19.25975 -19.25796 -19.19808
 Alpha  occ. eigenvalues --  -19.19529 -19.19487 -19.19390 -19.18662 -19.18512
 Alpha  occ. eigenvalues --  -14.41971 -14.41720 -14.41576 -14.41412 -14.39464
 Alpha  occ. eigenvalues --  -14.39376 -14.38895 -14.38876 -10.35805 -10.35730
 Alpha  occ. eigenvalues --  -10.32874 -10.32829 -10.32302 -10.31524 -10.29260
 Alpha  occ. eigenvalues --  -10.29227 -10.29168 -10.29049 -10.28961 -10.28871
 Alpha  occ. eigenvalues --  -10.28565 -10.28538 -10.28504 -10.28490 -10.28431
 Alpha  occ. eigenvalues --  -10.28061 -10.27995 -10.27736 -10.27450 -10.27029
 Alpha  occ. eigenvalues --  -10.27010 -10.26915 -10.26857 -10.26831 -10.26631
 Alpha  occ. eigenvalues --  -10.26557 -10.26496 -10.26409 -10.25940 -10.25933
 Alpha  occ. eigenvalues --  -10.25898 -10.25874 -10.25872 -10.25852 -10.25767
 Alpha  occ. eigenvalues --  -10.25750 -10.25579 -10.25411 -10.25366 -10.25360
 Alpha  occ. eigenvalues --  -10.25360 -10.24951 -10.24913 -10.24911 -10.24784
 Alpha  occ. eigenvalues --  -10.24741 -10.24673 -10.24245 -10.24231 -10.24146
 Alpha  occ. eigenvalues --  -10.24140 -10.23968 -10.23951 -10.23872 -10.23594
 Alpha  occ. eigenvalues --  -10.23548 -10.23516 -10.23470 -10.23464 -10.23381
 Alpha  occ. eigenvalues --  -10.23323 -10.23065 -10.22955 -10.22734 -10.22389
 Alpha  occ. eigenvalues --  -10.22377  -3.14948  -3.14154  -1.87770  -1.87335
 Alpha  occ. eigenvalues --   -1.87163  -1.86996  -1.86530  -1.86381  -1.12664
 Alpha  occ. eigenvalues --   -1.10426  -1.06428  -1.05870  -1.04545  -1.03374
 Alpha  occ. eigenvalues --   -1.02448  -1.01368  -1.00058  -0.99845  -0.98994
 Alpha  occ. eigenvalues --   -0.98564  -0.98466  -0.97457  -0.96640  -0.96313
 Alpha  occ. eigenvalues --   -0.86721  -0.86334  -0.83857  -0.83238  -0.83212
 Alpha  occ. eigenvalues --   -0.83102  -0.82966  -0.82607  -0.82110  -0.81886
 Alpha  occ. eigenvalues --   -0.81105  -0.80887  -0.80636  -0.79538  -0.78741
 Alpha  occ. eigenvalues --   -0.78705  -0.77908  -0.77787  -0.77194  -0.76789
 Alpha  occ. eigenvalues --   -0.76695  -0.75514  -0.75216  -0.75214  -0.74864
 Alpha  occ. eigenvalues --   -0.74452  -0.72893  -0.72700  -0.71887  -0.71728
 Alpha  occ. eigenvalues --   -0.71221  -0.71072  -0.70616  -0.70477  -0.69616
 Alpha  occ. eigenvalues --   -0.69509  -0.67580  -0.66814  -0.66259  -0.66248
 Alpha  occ. eigenvalues --   -0.63720  -0.63661  -0.63512  -0.62671  -0.62540
 Alpha  occ. eigenvalues --   -0.62261  -0.61660  -0.61283  -0.60228  -0.59937
 Alpha  occ. eigenvalues --   -0.59866  -0.59740  -0.59675  -0.59413  -0.59085
 Alpha  occ. eigenvalues --   -0.58800  -0.57109  -0.56866  -0.55284  -0.55045
 Alpha  occ. eigenvalues --   -0.54299  -0.54023  -0.53882  -0.53645  -0.53384
 Alpha  occ. eigenvalues --   -0.53134  -0.52643  -0.52446  -0.52303  -0.52185
 Alpha  occ. eigenvalues --   -0.51154  -0.50643  -0.50227  -0.49925  -0.49735
 Alpha  occ. eigenvalues --   -0.49641  -0.49249  -0.48919  -0.48831  -0.48692
 Alpha  occ. eigenvalues --   -0.48449  -0.48044  -0.47930  -0.47588  -0.47436
 Alpha  occ. eigenvalues --   -0.47260  -0.47115  -0.46964  -0.46915  -0.46762
 Alpha  occ. eigenvalues --   -0.46726  -0.46570  -0.46153  -0.46120  -0.45748
 Alpha  occ. eigenvalues --   -0.45357  -0.45352  -0.45002  -0.44672  -0.44637
 Alpha  occ. eigenvalues --   -0.44416  -0.44404  -0.44241  -0.44093  -0.44059
 Alpha  occ. eigenvalues --   -0.43946  -0.43944  -0.43679  -0.43578  -0.43501
 Alpha  occ. eigenvalues --   -0.43160  -0.43093  -0.42963  -0.42887  -0.42633
 Alpha  occ. eigenvalues --   -0.42587  -0.42398  -0.42289  -0.42226  -0.42065
 Alpha  occ. eigenvalues --   -0.41691  -0.41290  -0.41128  -0.41004  -0.40924
 Alpha  occ. eigenvalues --   -0.40829  -0.40806  -0.40669  -0.40626  -0.40361
 Alpha  occ. eigenvalues --   -0.40339  -0.40233  -0.40116  -0.40033  -0.39837
 Alpha  occ. eigenvalues --   -0.39831  -0.39545  -0.39344  -0.39172  -0.38942
 Alpha  occ. eigenvalues --   -0.38890  -0.38823  -0.38529  -0.38185  -0.38127
 Alpha  occ. eigenvalues --   -0.38095  -0.37911  -0.37835  -0.37742  -0.37724
 Alpha  occ. eigenvalues --   -0.37401  -0.37366  -0.37168  -0.37007  -0.36895
 Alpha  occ. eigenvalues --   -0.36721  -0.36437  -0.36345  -0.36334  -0.36326
 Alpha  occ. eigenvalues --   -0.36124  -0.35764  -0.35744  -0.35372  -0.35266
 Alpha  occ. eigenvalues --   -0.35047  -0.34841  -0.34703  -0.34441  -0.34022
 Alpha  occ. eigenvalues --   -0.33442  -0.33329  -0.33079  -0.32931  -0.32850
 Alpha  occ. eigenvalues --   -0.32269  -0.32129  -0.31757  -0.31386  -0.31367
 Alpha  occ. eigenvalues --   -0.31222  -0.30891  -0.29709  -0.29626  -0.29145
 Alpha  occ. eigenvalues --   -0.28880  -0.28773  -0.28103  -0.27284  -0.27268
 Alpha  occ. eigenvalues --   -0.26349  -0.26179  -0.26024  -0.25969  -0.25780
 Alpha  occ. eigenvalues --   -0.25724  -0.25142  -0.24710  -0.21158  -0.20838
 Alpha  occ. eigenvalues --   -0.19220  -0.18801
 Alpha virt. eigenvalues --   -0.11616  -0.11084  -0.05411  -0.05028  -0.04411
 Alpha virt. eigenvalues --   -0.03716  -0.02300  -0.01960  -0.01153  -0.00191
 Alpha virt. eigenvalues --    0.00784   0.01046   0.01127   0.01598   0.01771

 Mulliken charges:
               1
     1  Mg  12.004678
     2  C    5.980390
     3  C    6.000923
     4  C    6.025774
     5  C    5.993902
     6  N    6.988641
     7  C    6.032399
     8  C    5.984810
     9  C    6.010844
    10  C    5.969702
    11  C    6.004203
    12  C    5.997298
    13  C    5.997924
    14  H    1.005750
    15  N    7.006979
    16  C    5.967394
    17  C    5.981862
    18  C    5.981062
    19  C    5.973985
    20  C    6.005700
    21  C    5.987058
    22  O    7.971162
    23  C    6.004600
    24  N    7.010004
    25  C    5.959158
    26  C    6.005847
    27  C    5.992721
    28  C    6.027197
    29  C    6.002763
    30  C    5.997922
    31  C    5.999852
    32  N    6.999632
    33  C    6.028303
    34  C    6.030824
    35  C    6.000747
    36  C    6.030359
    37  C    5.999941
    38  C    6.018100
    39  O    8.026659
    40  C    6.001352
    41  C    6.000894
    42  O    8.007740
    43  O    8.000824
    44  C    5.997415
    45  H    0.987489
    46  H    0.997043
    47  H    1.009707
    48  H    1.000898
    49  H    1.000816
    50  H    0.987339
    51  H    1.004447
    52  H    0.993495
    53  H    1.008596
    54  H    0.998825
    55  H    0.995392
    56  H    0.999999
    57  H    0.982622
    58  H    0.985081
    59  H    0.982077
    60  H    0.994682
    61  H    0.992934
    62  H    0.986382
    63  H    1.000287
    64  H    1.002491
    65  H    1.006071
    66  H    0.992634
    67  H    0.996875
    68  H    0.996215
    69  H    1.010523
    70  H    0.996845
    71  H    1.005988
    72  H    0.999056
    73  H    1.019380
    74  H    1.014202
    75  H    1.017459
    76  H    1.007955
    77  H    1.006018
    78  H    1.004046
    79  H    1.000839
    80  Mg  12.000071
    81  C    5.997623
    82  C    6.000545
    83  C    6.001749
    84  C    5.999732
    85  N    6.999160
    86  C    6.003229
    87  C    5.998793
    88  C    6.001012
    89  C    5.997519
    90  C    6.000287
    91  C    6.000012
    92  C    5.999740
    93  H    1.000714
    94  N    7.000232
    95  C    5.996672
    96  C    5.997667
    97  C    5.998073
    98  C    5.997606
    99  C    6.000142
   100  C    5.999037
   101  O    7.996975
   102  C    6.000215
   103  N    7.000623
   104  C    5.996650
   105  C    6.000888
   106  C    5.999361
   107  C    6.002679
   108  C    6.000500
   109  C    5.999467
   110  C    5.999833
   111  N    6.999533
   112  C    6.003368
   113  C    6.003204
   114  C    5.999808
   115  C    6.003756
   116  C    6.000083
   117  C    6.001503
   118  O    8.002578
   119  C    6.000146
   120  C    6.000699
   121  O    8.000117
   122  O    8.000239
   123  C    5.999783
   124  H    0.998921
   125  H    0.999477
   126  H    1.001141
   127  H    1.000138
   128  H    0.999750
   129  H    0.998956
   130  H    1.000573
   131  H    0.999424
   132  H    1.000752
   133  H    0.999473
   134  H    0.999599
   135  H    1.000143
   136  H    0.998415
   137  H    0.998270
   138  H    0.998094
   139  H    0.999405
   140  H    0.999522
   141  H    0.998487
   142  H    0.999967
   143  H    0.999929
   144  H    0.999628
   145  H    1.000595
   146  H    0.998831
   147  H    1.001036
   148  H    0.999783
   149  H    1.000482
   150  H    0.998982
   151  H    1.001681
   152  H    1.002000
   153  H    1.001643
   154  H    1.001352
   155  H    1.000811
   156  H    1.000566
   157  H    1.000254
   158  H    1.000298
 Sum of Mulliken charges = 624.00000

 Dipole moment (field-independent basis, Debye):
    X=             -8.1848    Y=              0.5259    Z=              5.5161  Tot=              9.8841
 Quadrupole moment (field-independent basis, Debye-Ang):
   XX=            330.2133   YY=              1.7659   ZZ=             -7.1856
   XY=              7.9133   XZ=           -159.5777   YZ=             -2.0415

 Normal termination of Gaussian 16 at Fri Oct 15 13:55:31 2021.
