 Gaussian 16, Revision A.03,
 Gaussian 16:  ES64L-G16RevA.03 25-Dec-2016

 --------------------------------------------------------
 #p PBE1PBE/Def2SVP td=(nstates=5) density=(transition=1)
 --------------------------------------------------------

 --------------------------------
 TDDFT excited states in gaussian
 --------------------------------
 Symbolic Z-matrix:
 Charge =  0 Multiplicity = 1

                         Standard orientation:
 ---------------------------------------------------------------------
 Center     Atomic      Atomic             Coordinates (Angstroms)
 Number     Number       Type             X           Y           Z
 ---------------------------------------------------------------------
      1         12           0       17.664830   -0.619964    0.224778
      2          6           0       15.850497    2.285519    0.602138
      3          6           0       20.500344    1.277282    0.484318
      4          6           0       19.448844   -3.410765   -0.433348
      5          6           0       14.754729   -2.333602   -0.602197
      6          7           0       18.044215    1.614479    0.380502
      7          6           0       17.212170    2.526166    0.709179
      8          6           0       17.828447    3.983099    1.034647
      9          6           0       19.335303    3.666427    0.681495
     10          6           0       19.328553    2.087591    0.410383
     11          6           0       19.895131    4.393819   -0.650640
     12          6           0       17.609955    4.500865    2.522091
     13          6           0       17.472770    6.048891    2.744380
     14          1           0       17.813940    6.927774    1.579137
     15          7           0       19.635329   -1.030049    0.126523
     16          6           0       20.728849   -0.104331    0.351098
     17          6           0       21.969980   -0.867527    0.271026
     18          6           0       21.688465   -2.204433   -0.105646
     19          6           0       20.209893   -2.278139   -0.109429
     20          6           0       23.227551   -0.147361    0.601363
     21          6           0       22.622571   -3.414609   -0.340567
     22          8           0       22.288028   -4.484186   -0.755661
     23          6           0       24.126380   -3.115412   -0.175911
     24          7           0       17.238196   -2.605202   -0.535619
     25          6           0       18.093166   -3.559794   -0.725502
     26          6           0       17.447667   -4.775819   -1.448583
     27          6           0       15.930710   -4.474123   -1.397130
     28          6           0       15.935203   -3.050992   -0.790964
     29          6           0       18.008282   -4.932859   -2.878108
     30          6           0       15.135899   -5.542398   -0.585196
     31          6           0       15.000820   -6.911337   -1.271446
     32          7           0       15.663657   -0.158813    0.026458
     33          6           0       14.590911   -0.997693   -0.217956
     34          6           0       13.404938   -0.190609   -0.101740
     35          6           0       13.799334    1.150828    0.183765
     36          6           0       15.214070    1.047873    0.277119
     37          6           0       12.082472   -0.654331   -0.310297
     38          6           0       13.400672    2.486605    0.494559
     39          8           0       12.236408    2.986221    0.473266
     40          6           0       14.748668    3.289941    0.660057
     41          6           0       14.752830    4.336132   -0.340069
     42          8           0       15.075779    4.172604   -1.516383
     43          8           0       14.194681    5.448393    0.236879
     44          6           0       13.894652    6.518353   -0.737948
     45          1           0       21.422004    1.859710    0.537770
     46          1           0       20.090415   -4.277362   -0.610013
     47          1           0       13.863954   -2.934188   -0.800174
     48          1           0       17.389743    4.619638    0.265813
     49          1           0       19.984415    3.974873    1.500775
     50          1           0       19.038091    4.694325   -1.254034
     51          1           0       20.518284    3.699017   -1.213483
     52          1           0       20.517033    5.275992   -0.495156
     53          1           0       18.509985    4.170665    3.040074
     54          1           0       16.894212    3.944402    3.128182
     55          1           0       18.056530    6.425745    3.584117
     56          1           0       16.425163    6.288167    2.927281
     57          1           0       23.608406    0.381692   -0.272693
     58          1           0       23.951460   -0.771821    1.125106
     59          1           0       22.972793    0.598308    1.354099
     60          1           0       24.457200   -3.002647    0.857005
     61          1           0       24.224126   -2.195949   -0.752203
     62          1           0       24.806185   -3.821850   -0.651329
     63          1           0       17.705641   -5.602990   -0.787698
     64          1           0       15.541962   -4.385748   -2.411581
     65          1           0       18.410369   -4.026479   -3.331299
     66          1           0       17.318990   -5.230120   -3.669131
     67          1           0       18.799823   -5.677497   -2.794469
     68          1           0       14.117471   -5.184638   -0.440297
     69          1           0       15.590594   -5.671191    0.397611
     70          1           0       15.596406   -6.881451   -2.183863
     71          1           0       13.997988   -6.995967   -1.690364
     72          1           0       15.168609   -7.814811   -0.685697
     73          1           0       12.043188   -1.608031    0.216165
     74          1           0       11.798770   -0.858427   -1.342620
     75          1           0       11.389030    0.121190    0.016610
     76          1           0       14.640902    3.741666    1.646527
     77          1           0       13.106416    6.126604   -1.381461
     78          1           0       14.793545    6.878236   -1.237427
     79          1           0       13.486070    7.359249   -0.177324
     80         12           0      -17.339175   -0.797057    0.321451
     81          6           0      -17.644704    2.372320   -1.147039
     82          6           0      -16.341250    0.755826    3.227807
     83          6           0      -17.029259   -3.792469    1.671689
     84          6           0      -18.222134   -2.207845   -2.772536
     85          7           0      -17.130984    1.323380    0.927940
     86          6           0      -17.280155    2.491685    0.180393
     87          6           0      -17.315809    3.798949    1.065521
     88          6           0      -16.758824    3.221714    2.352484
     89          6           0      -16.741493    1.646648    2.180402
     90          6           0      -15.245740    3.684284    2.571261
     91          6           0      -18.869014    4.118301    1.219108
     92          6           0      -19.309111    5.644505    1.113673
     93          1           0      -18.222509    6.525731    1.674746
     94          7           0      -16.640332   -1.404402    2.095908
     95          6           0      -16.277521   -0.665356    3.140554
     96          6           0      -15.911370   -1.461322    4.282065
     97          6           0      -16.267763   -2.779844    3.936139
     98          6           0      -16.623677   -2.719941    2.468458
     99          6           0      -15.365954   -0.952449    5.565917
    100          6           0      -16.393219   -4.021720    4.794435
    101          8           0      -16.958802   -5.050780    4.407714
    102          6           0      -15.710599   -4.075197    6.164020
    103          7           0      -17.552464   -2.745855   -0.490242
    104          6           0      -17.421415   -3.808476    0.372381
    105          6           0      -17.849368   -5.079119   -0.358846
    106          6           0      -18.363369   -4.565133   -1.790954
    107          6           0      -18.102270   -3.084771   -1.697703
    108          6           0      -16.680282   -6.126176   -0.335717
    109          6           0      -19.786394   -4.930316   -2.183444
    110          6           0      -19.897024   -5.612698   -3.582833
    111          7           0      -17.808310   -0.076124   -1.573290
    112          6           0      -18.135476   -0.786026   -2.771053
    113          6           0      -18.346378    0.121986   -3.841342
    114          6           0      -18.161896    1.371924   -3.226646
    115          6           0      -17.792121    1.174406   -1.880060
    116          6           0      -18.727111   -0.119959   -5.266454
    117          6           0      -18.186763    2.784677   -3.432739
    118          8           0      -18.384979    3.468861   -4.409134
    119          6           0      -17.958107    3.467843   -2.054778
    120          6           0      -16.932135    4.531134   -2.208887
    121          8           0      -15.728166    4.388834   -2.402904
    122          8           0      -17.558311    5.699614   -2.038734
    123          6           0      -16.738321    6.892697   -2.061692
    124          1           0      -16.145965    1.115488    4.240082
    125          1           0      -16.896633   -4.753954    2.174064
    126          1           0      -18.559887   -2.599599   -3.734325
    127          1           0      -16.818556    4.558079    0.462522
    128          1           0      -17.399734    3.487328    3.192522
    129          1           0      -14.877608    4.303455    1.752973
    130          1           0      -14.624032    2.792581    2.649206
    131          1           0      -15.269780    4.221318    3.519543
    132          1           0      -19.283691    3.791940    2.172395
    133          1           0      -19.375868    3.519887    0.461622
    134          1           0      -20.121754    5.857475    1.808290
    135          1           0      -19.760458    5.865048    0.145987
    136          1           0      -16.138920   -1.118029    6.317624
    137          1           0      -15.173102    0.118482    5.520351
    138          1           0      -14.450907   -1.455503    5.877115
    139          1           0      -15.682353   -5.154878    6.309151
    140          1           0      -16.247790   -3.540584    6.948310
    141          1           0      -14.661489   -3.783918    6.211611
    142          1           0      -18.676308   -5.627583    0.092126
    143          1           0      -17.696080   -4.962689   -2.555770
    144          1           0      -17.142589   -7.075271   -0.064207
    145          1           0      -15.857555   -5.857478    0.326946
    146          1           0      -16.359411   -6.382492   -1.346082
    147          1           0      -20.485359   -4.094752   -2.163549
    148          1           0      -20.045204   -5.741123   -1.501014
    149          1           0      -18.907274   -5.817428   -3.991302
    150          1           0      -20.292971   -4.929228   -4.333689
    151          1           0      -20.457721   -6.545906   -3.525669
    152          1           0      -19.782655   -0.372689   -5.162428
    153          1           0      -18.060466   -0.898117   -5.637496
    154          1           0      -18.674421    0.783823   -5.871868
    155          1           0      -18.899314    3.991052   -1.880820
    156          1           0      -16.148043    6.920991   -2.978019
    157          1           0      -15.981133    6.983769   -1.282197
    158          1           0      -17.430482    7.734534   -2.036198
 ---------------------------------------------------------------------

 SCF Done:  E(RPBE1PBE) =  -4067.41585447     A.U. after   17 cycles

 Excitation energies and oscillator strengths:

 Excited State   1:      Singlet-A      1.8615 eV  666.05 nm  f=0.3666  <S**2>=0.000
     309 -> 315       -0.15510
     312 -> 313        0.69389
     312 <- 313       -0.10801
 This state for optimization and/or second-order correction.
 Total Energy, E(TD-HF/TD-DFT) =  -4067.34744602
 Copying the excited state density for this state as the 1-particle RhoCI density.

 Excited State   2:      Singlet-A      1.9095 eV  649.29 nm  f=0.3717  <S**2>=0.000
     310 -> 316       -0.19439
     311 -> 314        0.68531

 Excited State   3:      Singlet-A      1.9995 eV  620.09 nm  f=0.0000  <S**2>=0.000
     312 -> 314        0.70710

 Excited State   4:      Singlet-A      2.0183 eV  614.29 nm  f=0.0000  <S**2>=0.000
     311 -> 313        0.70710

 Excited State   5:      Singlet-A      2.2083 eV  561.44 nm  f=0.1048  <S**2>=0.000
     310 -> 314        0.65634
     311 -> 316        0.25142

 The electronic state is 1-A.
 Alpha  occ. eigenvalues --  -46.91803 -46.91120 -19.25927 -19.25446 -19.20181
 Alpha  occ. eigenvalues --  -19.19863 -19.19528 -19.19080 -19.18655 -19.17848
 Alpha  occ. eigenvalues --  -14.41729 -14.41590 -14.41090 -14.41065 -14.39661
 Alpha  occ. eigenvalues --  -14.39315 -14.38654 -14.38214 -10.35533 -10.35367
 Alpha  occ. eigenvalues --  -10.33234 -10.33094 -10.32036 -10.30472 -10.29446
 Alpha  occ. eigenvalues --  -10.29393 -10.28590 -10.28472 -10.28395 -10.28386
 Alpha  occ. eigenvalues --  -10.28348 -10.28191 -10.28176 -10.28164 -10.28109
 Alpha  occ. eigenvalues --  -10.28040 -10.27974 -10.27902 -10.26979 -10.26876
 Alpha  occ. eigenvalues --  -10.26826 -10.26746 -10.26728 -10.26685 -10.26516
 Alpha  occ. eigenvalues --  -10.26316 -10.26244 -10.26035 -10.25999 -10.25593
 Alpha  occ. eigenvalues --  -10.25431 -10.25382 -10.25370 -10.25356 -10.25347
 Alpha  occ. eigenvalues --  -10.25324 -10.25282 -10.25086 -10.25018 -10.24982
 Alpha  occ. eigenvalues --  -10.24960 -10.24945 -10.24784 -10.24776 -10.24694
 Alpha  occ. eigenvalues --  -10.24422 -10.24383 -10.24382 -10.24367 -10.24224
 Alpha  occ. eigenvalues --  -10.23898 -10.23867 -10.23685 -10.23576 -10.23417
 Alpha  occ. eigenvalues --  -10.23412 -10.23377 -10.23367 -10.23143 -10.23113
 Alpha  occ. eigenvalues --  -10.22968 -10.22903 -10.22834 -10.22390 -10.22200
 Alpha  occ. eigenvalues --  -10.21592  -3.13993  -3.13406  -1.86827  -1.86372
 Alpha  occ. eigenvalues --   -1.86259  -1.86220  -1.85761  -1.85661  -1.11930
 Alpha  occ. eigenvalues --   -1.10268  -1.07101  -1.04803  -1.04310  -1.02022
 Alpha  occ. eigenvalues --   -1.01937  -1.01583  -1.00001  -0.99408  -0.98970
 Alpha  occ. eigenvalues --   -0.98702  -0.98261  -0.97473  -0.96965  -0.95326
 Alpha  occ. eigenvalues --   -0.87122  -0.86938  -0.83796  -0.83598  -0.82649
 Alpha  occ. eigenvalues --   -0.82639  -0.82581  -0.82194  -0.82027  -0.81814
 Alpha  occ. eigenvalues --   -0.81502  -0.81300  -0.81091  -0.80900  -0.78241
 Alpha  occ. eigenvalues --   -0.78194  -0.77805  -0.77715  -0.76564  -0.76515
 Alpha  occ. eigenvalues --   -0.75941  -0.75808  -0.75503  -0.75354  -0.74637
 Alpha  occ. eigenvalues --   -0.74575  -0.72997  -0.72751  -0.71784  -0.71699
 Alpha  occ. eigenvalues --   -0.71080  -0.70662  -0.70034  -0.69901  -0.69268
 Alpha  occ. eigenvalues --   -0.69166  -0.67564  -0.66689  -0.65892  -0.65775
 Alpha  occ. eigenvalues --   -0.63738  -0.63432  -0.63206  -0.63131  -0.62661
 Alpha  occ. eigenvalues --   -0.62024  -0.61748  -0.61336  -0.60182  -0.59792
 Alpha  occ. eigenvalues --   -0.59766  -0.59678  -0.59522  -0.59289  -0.59053
 Alpha  occ. eigenvalues --   -0.58625  -0.57059  -0.56132  -0.55166  -0.54468
 Alpha  occ. eigenvalues --   -0.54149  -0.53961  -0.53677  -0.53670  -0.53180
 Alpha  occ. eigenvalues --   -0.52889  -0.52451  -0.52313  -0.52142  -0.51850
 Alpha  occ. eigenvalues --   -0.51130  -0.50532  -0.50173  -0.50161  -0.49826
 Alpha  occ. eigenvalues --   -0.49760  -0.49091  -0.48990  -0.48560  -0.48410
 Alpha  occ. eigenvalues --   -0.48001  -0.47850  -0.47639  -0.47402  -0.47354
 Alpha  occ. eigenvalues --   -0.47172  -0.47148  -0.47043  -0.46742  -0.46700
 Alpha  occ. eigenvalues --   -0.46468  -0.46369  -0.45941  -0.45927  -0.45583
 Alpha  occ. eigenvalues --   -0.45472  -0.45431  -0.45278  -0.45226  -0.45082
 Alpha  occ. eigenvalues --   -0.44843  -0.44802  -0.44526  -0.44207  -0.44081
 Alpha  occ. eigenvalues --   -0.43782  -0.43701  -0.43568  -0.43258  -0.43136
 Alpha  occ. eigenvalues --   -0.43081  -0.43014  -0.42824  -0.42783  -0.42542
 Alpha  occ. eigenvalues --   -0.42460  -0.42439  -0.42312  -0.42151  -0.41853
 Alpha  occ. eigenvalues --   -0.41648  -0.41490  -0.41297  -0.41266  -0.41135
 Alpha  occ. eigenvalues --   -0.41012  -0.41002  -0.40760  -0.40704  -0.40366
 Alpha  occ. eigenvalues --   -0.40021  -0.39895  -0.39856  -0.39677  -0.39486
 Alpha  occ. eigenvalues --   -0.39260  -0.39251  -0.39180  -0.39058  -0.39027
 Alpha  occ. eigenvalues --   -0.38907  -0.38513  -0.38484  -0.38190  -0.38159
 Alpha  occ. eigenvalues --   -0.37874  -0.37859  -0.37766  -0.37571  -0.37518
 Alpha  occ. eigenvalues --   -0.37484  -0.37394  -0.37218  -0.37104  -0.36744
 Alpha  occ. eigenvalues --   -0.36600  -0.36465  -0.36454  -0.36276  -0.36060
 Alpha  occ. eigenvalues --   -0.35954  -0.35621  -0.35471  -0.35338  -0.35135
 Alpha  occ. eigenvalues --   -0.34969  -0.34665  -0.34619  -0.34307  -0.33677
 Alpha  occ. eigenvalues --   -0.33254  -0.33161  -0.32928  -0.32612  -0.32600
 Alpha  occ. eigenvalues --   -0.32374  -0.31953  -0.31912  -0.31470  -0.31455
 Alpha  occ. eigenvalues --   -0.31383  -0.31298  -0.29550  -0.29434  -0.29081
 Alpha  occ. eigenvalues --   -0.28982  -0.28569  -0.28123  -0.27160  -0.26949
 Alpha  occ. eigenvalues --   -0.26426  -0.26346  -0.26235  -0.25762  -0.25374
 Alpha  occ. eigenvalues --   -0.25261  -0.24945  -0.24574  -0.20976  -0.20601
 Alpha  occ. eigenvalues --   -0.18823  -0.18642
 Alpha virt. eigenvalues --   -0.11023  -0.10917  -0.05282  -0.05126  -0.04208
 Alpha virt. eigenvalues --   -0.03498  -0.02262  -0.01581  -0.00106   0.00587
 Alpha virt. eigenvalues --    0.00892   0.01484   0.01522   0.01798   0.02021

 Mulliken charges:
               1
     1  Mg  11.999971
     2  C    5.999989
     3  C    5.999896
     4  C    6.000001
     5  C    6.000063
     6  N    7.000055
     7  C    5.999841
     8  C    6.000069
     9  C    5.999925
    10  C    6.000231
    11  C    5.999967
    12  C    6.000047
    13  C    5.999979
    14  H    1.000063
    15  N    6.999985
    16  C    6.000276
    17  C    6.000085
    18  C    6.000198
    19  C    6.000095
    20  C    5.999951
    21  C    6.000094
    22  O    8.000198
    23  C    5.999962
    24  N    6.999961
    25  C    6.000121
    26  C    5.999984
    27  C    6.000088
    28  C    5.999809
    29  C    5.999961
    30  C    6.000030
    31  C    5.999985
    32  N    6.999998
    33  C    5.999748
    34  C    5.999794
    35  C    5.999979
    36  C    5.999907
    37  C    6.000076
    38  C    5.999787
    39  O    7.999760
    40  C    6.000037
    41  C    5.999979
    42  O    8.000009
    43  O    7.999967
    44  C    5.999994
    45  H    1.000083
    46  H    1.000037
    47  H    0.999922
    48  H    1.000047
    49  H    1.000019
    50  H    1.000117
    51  H    1.000002
    52  H    1.000074
    53  H    0.999920
    54  H    0.999969
    55  H    0.999964
    56  H    0.999997
    57  H    1.000175
    58  H    1.000103
    59  H    1.000084
    60  H    1.000047
    61  H    1.000054
    62  H    1.000128
    63  H    0.999950
    64  H    1.000023
    65  H    1.000028
    66  H    1.000108
    67  H    0.999987
    68  H    0.999977
    69  H    0.999902
    70  H    1.000029
    71  H    0.999994
    72  H    0.999928
    73  H    0.999792
    74  H    0.999885
    75  H    0.999847
    76  H    0.999892
    77  H    1.000040
    78  H    1.000005
    79  H    0.999956
    80  Mg  11.996946
    81  C    6.025510
    82  C    6.003310
    83  C    5.975026
    84  C    5.997656
    85  N    7.017986
    86  C    5.967115
    87  C    6.003575
    88  C    5.997358
    89  C    6.020318
    90  C    5.996580
    91  C    6.000631
    92  C    6.003132
    93  H    0.994035
    94  N    6.993230
    95  C    6.029618
    96  C    6.024581
    97  C    6.010057
    98  C    6.038147
    99  C    5.995743
   100  C    6.012547
   101  O    8.028933
   102  C    5.993901
   103  N    6.992693
   104  C    6.031070
   105  C    5.989329
   106  C    6.011729
   107  C    5.972324
   108  C    5.996628
   109  C    6.006947
   110  C    6.000296
   111  N    6.999419
   112  C    5.966277
   113  C    5.976325
   114  C    5.996620
   115  C    5.970354
   116  C    5.997727
   117  C    5.982441
   118  O    7.969263
   119  C    5.995546
   120  C    5.996830
   121  O    7.994642
   122  O    7.998927
   123  C    6.001783
   124  H    1.012445
   125  H    1.002106
   126  H    0.986160
   127  H    1.003675
   128  H    1.002321
   129  H    1.013750
   130  H    0.995554
   131  H    1.003507
   132  H    0.989483
   133  H    1.006874
   134  H    0.996831
   135  H    1.004272
   136  H    1.018236
   137  H    1.015410
   138  H    1.017751
   139  H    1.012993
   140  H    1.008240
   141  H    1.007726
   142  H    1.000756
   143  H    0.996871
   144  H    1.001876
   145  H    0.993450
   146  H    1.008690
   147  H    1.000497
   148  H    0.987822
   149  H    0.997932
   150  H    1.003180
   151  H    0.993922
   152  H    0.985102
   153  H    0.986221
   154  H    0.988104
   155  H    0.995714
   156  H    0.999368
   157  H    0.993425
   158  H    0.996630
 Sum of Mulliken charges = 624.00000

 Dipole moment (field-independent basis, Debye):
    X=              2.8753    Y=             -2.6972    Z=              9.3987  Tot=             10.1920
 Quadrupole moment (field-independent basis, Debye-Ang):
   XX=            -93.6729   YY=              0.8254   ZZ=              7.0101
   XY=             43.4824   XZ=           -160.6247   YZ=             -8.3900

 Normal termination of Gaussian 16 at Fri Oct 15 11:21:51 2021.
