 Gaussian 16, Revision A.03,
 Gaussian 16:  ES64L-G16RevA.03 25-Dec-2016

 --------------------------------------------------------
 #p PBE1PBE/Def2SVP td=(nstates=5) density=(transition=1)
 --------------------------------------------------------

 --------------------------------
 TDDFT excited states in gaussian
 --------------------------------
 Symbolic Z-matrix:
 Charge =  0 Multiplicity = 1

                         Standard orientation:
 ---------------------------------------------------------------------
 Center     Atomic      Atomic             Coordinates (Angstroms)
 Number     Number       Type             X           Y           Z
 ---------------------------------------------------------------------
      1         12           0      -23.796630    0.533421    0.173084
      2          6           0      -22.051984   -2.396920   -0.614690
      3          6           0      -20.736093    2.132942   -0.014846
      4          6           0      -25.409496    3.428472    0.572264
      5          6           0      -26.808901   -1.099871   -0.518990
      6          7           0      -21.561820   -0.132909   -0.497401
      7          6           0      -21.120414   -1.397263   -0.640391
      8          6           0      -19.636515   -1.493096   -0.902087
      9          6           0      -19.270328   -0.046398   -0.394640
     10          6           0      -20.564196    0.758658   -0.330399
     11          6           0      -18.668646   -0.122792    1.033975
     12          6           0      -19.350231   -1.898979   -2.353389
     13          6           0      -20.205917   -1.315072   -3.496776
     14          1           0      -19.435460   -0.747272   -4.682897
     15          7           0      -23.177835    2.480503    0.276609
     16          6           0      -21.872624    2.895395    0.296804
     17          6           0      -21.811397    4.243131    0.877306
     18          6           0      -23.176801    4.735622    0.921844
     19          6           0      -23.976567    3.515815    0.594924
     20          6           0      -20.467162    5.056732    1.006871
     21          6           0      -23.629407    6.163549    1.236868
     22          8           0      -22.841061    6.984639    1.615126
     23          6           0      -25.079364    6.535268    1.118870
     24          7           0      -25.866837    1.092441   -0.183690
     25          6           0      -26.348854    2.368052    0.163902
     26          6           0      -27.925620    2.491827    0.030563
     27          6           0      -28.333737    0.970552   -0.265676
     28          6           0      -26.910808    0.245484   -0.287567
     29          6           0      -28.790205    3.176740    1.203251
     30          6           0      -29.214735    0.684235   -1.566003
     31          6           0      -30.218401   -0.545730   -1.309401
     32          7           0      -24.397807   -1.385296   -0.396623
     33          6           0      -25.662648   -1.916089   -0.548375
     34          6           0      -25.553222   -3.348540   -0.796133
     35          6           0      -24.168415   -3.656584   -0.776861
     36          6           0      -23.491954   -2.395188   -0.605335
     37          6           0      -26.687741   -4.337133   -0.862722
     38          6           0      -23.086844   -4.677151   -0.967824
     39          8           0      -23.157111   -5.837068   -1.308053
     40          6           0      -21.726620   -3.873984   -0.807772
     41          6           0      -21.012547   -4.471169    0.373554
     42          8           0      -20.393482   -5.564109    0.341268
     43          8           0      -21.022494   -3.569363    1.427790
     44          6           0      -20.187417   -3.907168    2.531668
     45          1           0      -19.761257    2.624162    0.017180
     46          1           0      -26.045409    4.259765    0.884476
     47          1           0      -27.761690   -1.633420   -0.534096
     48          1           0      -19.146946   -2.173804   -0.205880
     49          1           0      -18.567835    0.539107   -0.986208
     50          1           0      -18.987896    0.788972    1.539402
     51          1           0      -17.592974   -0.286878    0.988032
     52          1           0      -19.057339   -0.861362    1.735773
     53          1           0      -19.554364   -2.968113   -2.402724
     54          1           0      -18.295676   -1.710297   -2.554785
     55          1           0      -20.791914   -0.482616   -3.108040
     56          1           0      -20.823044   -2.117560   -3.899814
     57          1           0      -20.099321    5.492611    0.077601
     58          1           0      -19.693439    4.415852    1.429765
     59          1           0      -20.465067    5.864467    1.737855
     60          1           0      -25.234869    7.609732    1.221399
     61          1           0      -25.712624    6.031108    1.849147
     62          1           0      -25.278894    6.314333    0.069975
     63          1           0      -27.978282    3.097420   -0.873413
     64          1           0      -28.872365    0.539616    0.577795
     65          1           0      -28.853637    4.239736    0.973551
     66          1           0      -28.334724    3.018620    2.180426
     67          1           0      -29.774167    2.707770    1.223414
     68          1           0      -28.596273    0.316741   -2.384798
     69          1           0      -29.730885    1.585602   -1.897422
     70          1           0      -30.012589   -1.367459   -1.995454
     71          1           0      -31.244325   -0.213830   -1.466143
     72          1           0      -30.169770   -1.079250   -0.360767
     73          1           0      -27.358218   -4.035847   -1.666863
     74          1           0      -27.241689   -4.321276    0.076134
     75          1           0      -26.346681   -5.345428   -1.096922
     76          1           0      -21.147836   -4.166650   -1.683535
     77          1           0      -20.197456   -3.089435    3.251937
     78          1           0      -19.197417   -4.218246    2.197705
     79          1           0      -20.604256   -4.719918    3.126405
     80         12           0       23.944151    0.488057   -0.312179
     81          6           0       22.253294   -2.260563    1.352175
     82          6           0       22.514637    2.464718    2.014663
     83          6           0       25.392133    2.898470   -1.827448
     84          6           0       25.027489   -1.786935   -2.799680
     85          7           0       22.502251    0.076330    1.573279
     86          6           0       22.059511   -1.093500    2.065553
     87          6           0       21.359959   -0.871001    3.420063
     88          6           0       21.113103    0.702027    3.267825
     89          6           0       22.126894    1.115846    2.285713
     90          6           0       19.683648    1.197880    3.127276
     91          6           0       22.309498   -1.315874    4.545841
     92          6           0       21.556167   -1.736641    5.842021
     93          1           0       19.977043   -1.978144    5.896406
     94          7           0       24.007884    2.469354    0.058068
     95          6           0       23.283235    3.148626    1.018595
     96          6           0       23.543629    4.575211    0.851622
     97          6           0       24.451024    4.714003   -0.227536
     98          6           0       24.638809    3.315981   -0.708754
     99          6           0       22.942995    5.626007    1.675038
    100          6           0       25.170656    6.036698   -0.818015
    101          8           0       26.052401    5.962773   -1.629472
    102          6           0       24.981691    7.415987   -0.161433
    103          7           0       24.826716    0.561904   -2.221110
    104          6           0       25.486991    1.675197   -2.529506
    105          6           0       26.340121    1.569832   -3.764958
    106          6           0       26.520089    0.032608   -3.805390
    107          6           0       25.257966   -0.410039   -2.987912
    108          6           0       25.642699    2.118835   -5.095492
    109          6           0       27.897090   -0.525389   -3.249711
    110          6           0       29.183986    0.344390   -3.349226
    111          7           0       23.632349   -1.542375   -0.751518
    112          6           0       24.150933   -2.348150   -1.710972
    113          6           0       23.853708   -3.688731   -1.479438
    114          6           0       23.089989   -3.667186   -0.347477
    115          6           0       22.975052   -2.367159    0.103720
    116          6           0       24.356013   -4.875044   -2.297800
    117          6           0       22.393265   -4.580259    0.571005
    118          8           0       22.094792   -5.763246    0.503969
    119          6           0       21.895443   -3.650178    1.761903
    120          6           0       20.478650   -3.907238    1.952154
    121          8           0       19.546565   -3.478116    1.264705
    122          8           0       20.379735   -4.908701    2.851105
    123          6           0       19.064162   -5.522959    2.857360
    124          1           0       21.908424    3.112067    2.651886
    125          1           0       25.839353    3.751317   -2.341245
    126          1           0       25.464767   -2.462419   -3.537649
    127          1           0       20.380418   -1.348401    3.449191
    128          1           0       21.419641    1.138336    4.217514
    129          1           0       19.361461    1.772136    3.995385
    130          1           0       19.005002    0.356231    2.990118
    131          1           0       19.507515    1.800516    2.236232
    132          1           0       22.889088   -0.441634    4.843126
    133          1           0       23.030684   -2.075531    4.244884
    134          1           0       21.831518   -1.109403    6.690484
    135          1           0       22.120914   -2.617358    6.147479
    136          1           0       22.633014    5.248802    2.649348
    137          1           0       22.088861    5.982583    1.099101
    138          1           0       23.610416    6.461802    1.886174
    139          1           0       25.393588    7.484678    0.845378
    140          1           0       23.919954    7.631282   -0.283673
    141          1           0       25.441810    8.186048   -0.781178
    142          1           0       27.209412    2.174719   -3.508100
    143          1           0       26.423855   -0.382714   -4.808262
    144          1           0       26.444790    2.714873   -5.530194
    145          1           0       24.775279    2.756067   -4.919844
    146          1           0       25.357592    1.363953   -5.827281
    147          1           0       28.081808   -1.500610   -3.697940
    148          1           0       27.682128   -0.551599   -2.181289
    149          1           0       29.262526    1.006162   -2.487017
    150          1           0       29.087148    0.821568   -4.325056
    151          1           0       30.086264   -0.261696   -3.423105
    152          1           0       25.318608   -4.546376   -2.690292
    153          1           0       23.735807   -5.091187   -3.167211
    154          1           0       24.451111   -5.732433   -1.631754
    155          1           0       22.468603   -3.946171    2.641426
    156          1           0       18.975642   -6.348860    3.562582
    157          1           0       18.626769   -5.751052    1.885231
    158          1           0       18.324107   -4.829262    3.257848
 ---------------------------------------------------------------------

 SCF Done:  E(RPBE1PBE) =  -4067.34566951     A.U. after   16 cycles

 Excitation energies and oscillator strengths:

 Excited State   1:      Singlet-A      1.8968 eV  653.64 nm  f=0.3440  <S**2>=0.000
     309 -> 315       -0.18765
     311 -> 313        0.68733
 This state for optimization and/or second-order correction.
 Total Energy, E(TD-HF/TD-DFT) =  -4067.27596285
 Copying the excited state density for this state as the 1-particle RhoCI density.

 Excited State   2:      Singlet-A      1.9474 eV  636.65 nm  f=0.3592  <S**2>=0.000
     310 -> 316       -0.18522
     312 -> 314        0.68731

 Excited State   3:      Singlet-A      2.0241 eV  612.54 nm  f=0.0000  <S**2>=0.000
     312 -> 313        0.70711

 Excited State   4:      Singlet-A      2.1737 eV  570.37 nm  f=0.0000  <S**2>=0.000
     311 -> 314        0.70711

 Excited State   5:      Singlet-A      2.2341 eV  554.97 nm  f=0.1059  <S**2>=0.000
     309 -> 313        0.64922
     311 -> 315        0.26849

 The electronic state is 1-A.
 Alpha  occ. eigenvalues --  -46.93783 -46.92748 -19.26687 -19.25559 -19.20497
 Alpha  occ. eigenvalues --  -19.20273 -19.19875 -19.19305 -19.19107 -19.19024
 Alpha  occ. eigenvalues --  -14.41855 -14.41191 -14.40769 -14.40731 -14.40054
 Alpha  occ. eigenvalues --  -14.39429 -14.39217 -14.38465 -10.37015 -10.35215
 Alpha  occ. eigenvalues --  -10.33936 -10.33072 -10.32318 -10.32175 -10.30480
 Alpha  occ. eigenvalues --  -10.29296 -10.29178 -10.28730 -10.28580 -10.28439
 Alpha  occ. eigenvalues --  -10.28353 -10.28227 -10.28110 -10.28053 -10.28029
 Alpha  occ. eigenvalues --  -10.27777 -10.27702 -10.27533 -10.27499 -10.27491
 Alpha  occ. eigenvalues --  -10.27184 -10.27045 -10.26864 -10.26731 -10.26658
 Alpha  occ. eigenvalues --  -10.26508 -10.26231 -10.26216 -10.26138 -10.26010
 Alpha  occ. eigenvalues --  -10.26009 -10.25918 -10.25794 -10.25731 -10.25693
 Alpha  occ. eigenvalues --  -10.25575 -10.25497 -10.25455 -10.25279 -10.25275
 Alpha  occ. eigenvalues --  -10.25226 -10.25203 -10.25184 -10.25168 -10.25166
 Alpha  occ. eigenvalues --  -10.25115 -10.24812 -10.24475 -10.24431 -10.24423
 Alpha  occ. eigenvalues --  -10.24234 -10.23933 -10.23909 -10.23877 -10.23809
 Alpha  occ. eigenvalues --  -10.23794 -10.23599 -10.23576 -10.23516 -10.23455
 Alpha  occ. eigenvalues --  -10.23454 -10.23449 -10.23105 -10.23014 -10.22898
 Alpha  occ. eigenvalues --  -10.21730  -3.15730  -3.14830  -1.88530  -1.88122
 Alpha  occ. eigenvalues --   -1.87941  -1.87672  -1.87222  -1.87039  -1.11288
 Alpha  occ. eigenvalues --   -1.11220  -1.07154  -1.06139  -1.05519  -1.04395
 Alpha  occ. eigenvalues --   -1.01854  -1.01453  -1.00435  -0.99755  -0.99332
 Alpha  occ. eigenvalues --   -0.99153  -0.98431  -0.98368  -0.97679  -0.96626
 Alpha  occ. eigenvalues --   -0.86881  -0.86793  -0.83267  -0.83213  -0.82955
 Alpha  occ. eigenvalues --   -0.82587  -0.82404  -0.82000  -0.81718  -0.81694
 Alpha  occ. eigenvalues --   -0.81240  -0.80484  -0.80166  -0.79808  -0.79097
 Alpha  occ. eigenvalues --   -0.78582  -0.77659  -0.77459  -0.76864  -0.76617
 Alpha  occ. eigenvalues --   -0.76067  -0.75892  -0.75141  -0.75072  -0.74731
 Alpha  occ. eigenvalues --   -0.74450  -0.72680  -0.71836  -0.71596  -0.71140
 Alpha  occ. eigenvalues --   -0.70972  -0.70921  -0.70707  -0.70102  -0.69651
 Alpha  occ. eigenvalues --   -0.69582  -0.67303  -0.67303  -0.66464  -0.66053
 Alpha  occ. eigenvalues --   -0.64242  -0.63962  -0.63768  -0.63151  -0.62749
 Alpha  occ. eigenvalues --   -0.62185  -0.61539  -0.61064  -0.60337  -0.59911
 Alpha  occ. eigenvalues --   -0.59528  -0.59423  -0.59315  -0.59158  -0.59126
 Alpha  occ. eigenvalues --   -0.58293  -0.58246  -0.56433  -0.55176  -0.54560
 Alpha  occ. eigenvalues --   -0.53993  -0.53872  -0.53830  -0.53457  -0.52957
 Alpha  occ. eigenvalues --   -0.52815  -0.52503  -0.52295  -0.52121  -0.51904
 Alpha  occ. eigenvalues --   -0.50994  -0.50766  -0.50614  -0.50061  -0.50008
 Alpha  occ. eigenvalues --   -0.49801  -0.49624  -0.49132  -0.48830  -0.48542
 Alpha  occ. eigenvalues --   -0.48342  -0.48208  -0.48026  -0.47789  -0.47552
 Alpha  occ. eigenvalues --   -0.47492  -0.47309  -0.47230  -0.46816  -0.46532
 Alpha  occ. eigenvalues --   -0.46169  -0.46068  -0.46017  -0.45924  -0.45739
 Alpha  occ. eigenvalues --   -0.45738  -0.45333  -0.45240  -0.45158  -0.44989
 Alpha  occ. eigenvalues --   -0.44739  -0.44619  -0.44537  -0.44320  -0.44270
 Alpha  occ. eigenvalues --   -0.44118  -0.43592  -0.43553  -0.43443  -0.43358
 Alpha  occ. eigenvalues --   -0.43331  -0.43294  -0.43053  -0.42868  -0.42643
 Alpha  occ. eigenvalues --   -0.42216  -0.42215  -0.42077  -0.41959  -0.41898
 Alpha  occ. eigenvalues --   -0.41721  -0.41582  -0.41445  -0.41339  -0.41071
 Alpha  occ. eigenvalues --   -0.40781  -0.40773  -0.40559  -0.40486  -0.40267
 Alpha  occ. eigenvalues --   -0.40255  -0.40110  -0.39946  -0.39826  -0.39611
 Alpha  occ. eigenvalues --   -0.39425  -0.39112  -0.39022  -0.38956  -0.38817
 Alpha  occ. eigenvalues --   -0.38798  -0.38664  -0.38662  -0.38429  -0.38406
 Alpha  occ. eigenvalues --   -0.38160  -0.38062  -0.37998  -0.37985  -0.37819
 Alpha  occ. eigenvalues --   -0.37791  -0.37629  -0.37552  -0.37390  -0.37187
 Alpha  occ. eigenvalues --   -0.37145  -0.37052  -0.37034  -0.36847  -0.36620
 Alpha  occ. eigenvalues --   -0.36282  -0.36160  -0.36141  -0.35340  -0.35264
 Alpha  occ. eigenvalues --   -0.34830  -0.34627  -0.34209  -0.34183  -0.33884
 Alpha  occ. eigenvalues --   -0.33601  -0.33166  -0.33139  -0.32983  -0.32424
 Alpha  occ. eigenvalues --   -0.32246  -0.32201  -0.31717  -0.31663  -0.31366
 Alpha  occ. eigenvalues --   -0.30847  -0.30690  -0.29787  -0.29443  -0.29410
 Alpha  occ. eigenvalues --   -0.28694  -0.28658  -0.27975  -0.26946  -0.26917
 Alpha  occ. eigenvalues --   -0.26565  -0.26177  -0.26149  -0.26060  -0.25758
 Alpha  occ. eigenvalues --   -0.25518  -0.25440  -0.25281  -0.20974  -0.20335
 Alpha  occ. eigenvalues --   -0.19025  -0.18872
 Alpha virt. eigenvalues --   -0.11155  -0.10759  -0.05532  -0.04632  -0.04123
 Alpha virt. eigenvalues --   -0.03610  -0.02393  -0.01975  -0.01817  -0.00433
 Alpha virt. eigenvalues --   -0.00118   0.00129   0.01113   0.01150   0.01987

 Mulliken charges:
               1
     1  Mg  11.997667
     2  C    6.015741
     3  C    5.995550
     4  C    5.975224
     5  C    6.005375
     6  N    7.010691
     7  C    5.971276
     8  C    6.009402
     9  C    5.995904
    10  C    6.023481
    11  C    5.997293
    12  C    6.003205
    13  C    6.005493
    14  H    0.991935
    15  N    6.992747
    16  C    6.035071
    17  C    6.021505
    18  C    6.011599
    19  C    6.035327
    20  C    5.997716
    21  C    6.010893
    22  O    8.018456
    23  C    5.998534
    24  N    6.995048
    25  C    6.040720
    26  C    5.989434
    27  C    6.007381
    28  C    5.974095
    29  C    5.998975
    30  C    6.002830
    31  C    6.001074
    32  N    7.003581
    33  C    5.965788
    34  C    5.969939
    35  C    5.998541
    36  C    5.968781
    37  C    6.000079
    38  C    5.981310
    39  O    7.973749
    40  C    5.998917
    41  C    5.999224
    42  O    7.993974
    43  O    7.998901
    44  C    6.002629
    45  H    1.010571
    46  H    1.005675
    47  H    0.991199
    48  H    0.998676
    49  H    0.999328
    50  H    0.991737
    51  H    1.007083
    52  H    1.011797
    53  H    1.005538
    54  H    0.992523
    55  H    0.992082
    56  H    1.006719
    57  H    1.018594
    58  H    1.015596
    59  H    1.013688
    60  H    1.011686
    61  H    1.009657
    62  H    1.007050
    63  H    1.000355
    64  H    0.999038
    65  H    0.996575
    66  H    1.000791
    67  H    1.008537
    68  H    1.000804
    69  H    0.989668
    70  H    1.003724
    71  H    0.994345
    72  H    1.001890
    73  H    0.982836
    74  H    0.981582
    75  H    0.987070
    76  H    0.992906
    77  H    0.991999
    78  H    0.995201
    79  H    0.998425
    80  Mg  12.000022
    81  C    6.000027
    82  C    6.000056
    83  C    6.000051
    84  C    5.999877
    85  N    6.999908
    86  C    6.000109
    87  C    5.999974
    88  C    6.000048
    89  C    5.999827
    90  C    6.000022
    91  C    5.999966
    92  C    6.000001
    93  H    0.999992
    94  N    7.000032
    95  C    5.999770
    96  C    5.999938
    97  C    5.999867
    98  C    5.999903
    99  C    6.000021
   100  C    5.999911
   101  O    7.999875
   102  C    6.000031
   103  N    7.000036
   104  C    5.999824
   105  C    6.000027
   106  C    5.999969
   107  C    6.000200
   108  C    5.999995
   109  C    5.999972
   110  C    6.000006
   111  N    6.999978
   112  C    6.000210
   113  C    6.000103
   114  C    6.000093
   115  C    6.000102
   116  C    6.000004
   117  C    6.000118
   118  O    8.000165
   119  C    5.999958
   120  C    6.000013
   121  O    8.000037
   122  O    8.000021
   123  C    5.999985
   124  H    0.999897
   125  H    1.000001
   126  H    1.000100
   127  H    0.999992
   128  H    0.999986
   129  H    0.999955
   130  H    0.999930
   131  H    0.999990
   132  H    1.000052
   133  H    0.999988
   134  H    1.000011
   135  H    1.000011
   136  H    0.999920
   137  H    0.999875
   138  H    0.999910
   139  H    0.999960
   140  H    0.999943
   141  H    0.999921
   142  H    1.000026
   143  H    1.000017
   144  H    0.999995
   145  H    1.000002
   146  H    0.999959
   147  H    1.000008
   148  H    1.000007
   149  H    1.000033
   150  H    1.000022
   151  H    1.000028
   152  H    1.000083
   153  H    1.000120
   154  H    1.000094
   155  H    1.000045
   156  H    1.000048
   157  H    1.000014
   158  H    1.000013
 Sum of Mulliken charges = 624.00000

 Dipole moment (field-independent basis, Debye):
    X=              2.9852    Y=              9.1294    Z=              1.8400  Tot=              9.7797
 Quadrupole moment (field-independent basis, Debye-Ang):
   XX=           -142.4084   YY=              9.1106   ZZ=             -0.6341
   XY=           -216.8117   XZ=            -44.6634   YZ=              2.0953

 Normal termination of Gaussian 16 at Thu Oct 14 23:16:47 2021.
