 Gaussian 16, Revision A.03,
 Gaussian 16:  ES64L-G16RevA.03 25-Dec-2016

 --------------------------------------------------------
 #p PBE1PBE/Def2SVP td=(nstates=5) density=(transition=1)
 --------------------------------------------------------

 --------------------------------
 TDDFT excited states in gaussian
 --------------------------------
 Symbolic Z-matrix:
 Charge =  0 Multiplicity = 1

                         Standard orientation:
 ---------------------------------------------------------------------
 Center     Atomic      Atomic             Coordinates (Angstroms)
 Number     Number       Type             X           Y           Z
 ---------------------------------------------------------------------
      1         12           0      -27.607219    0.126827   -0.252369
      2          6           0      -24.264897   -0.513033   -0.155087
      3          6           0      -28.118039   -3.107560    0.890893
      4          6           0      -30.866998    0.885427    0.014012
      5          6           0      -26.954219    3.548516   -0.753771
      6          7           0      -26.299611   -1.527219    0.551539
      7          6           0      -24.957498   -1.526022    0.424624
      8          6           0      -24.328591   -2.734828    1.015081
      9          6           0      -25.641878   -3.738571    0.998426
     10          6           0      -26.801900   -2.740584    0.798685
     11          6           0      -25.536847   -4.853838   -0.083305
     12          6           0      -23.849564   -2.427585    2.425009
     13          6           0      -24.886897   -1.845832    3.493297
     14          1           0      -24.852349   -2.322131    4.940136
     15          7           0      -29.259309   -0.943207    0.361729
     16          6           0      -29.293813   -2.326279    0.671888
     17          6           0      -30.665960   -2.698998    0.763779
     18          6           0      -31.487803   -1.594963    0.573976
     19          6           0      -30.586144   -0.473837    0.259861
     20          6           0      -30.991148   -4.149465    1.057362
     21          6           0      -32.988116   -1.525979    0.730596
     22          8           0      -33.550251   -2.600527    1.058572
     23          6           0      -33.776535   -0.339721    0.745477
     24          7           0      -28.709010    2.012977   -0.143993
     25          6           0      -30.071935    2.030981   -0.094848
     26          6           0      -30.616572    3.478058   -0.158412
     27          6           0      -29.318637    4.318084   -0.406823
     28          6           0      -28.241794    3.247229   -0.361230
     29          6           0      -31.692707    3.673298   -1.205012
     30          6           0      -29.146057    5.476199    0.714125
     31          6           0      -28.673816    6.822751    0.153975
     32          7           0      -25.936939    1.385010   -0.443820
     33          6           0      -25.803389    2.677911   -0.837788
     34          6           0      -24.419310    2.871181   -1.175200
     35          6           0      -23.713519    1.634307   -0.976465
     36          6           0      -24.693972    0.777503   -0.504187
     37          6           0      -23.768086    4.190224   -1.414575
     38          6           0      -22.468771    0.935495   -0.958913
     39          8           0      -21.388078    1.420667   -1.316780
     40          6           0      -22.786659   -0.465315   -0.469476
     41          6           0      -22.370630   -1.435190   -1.511616
     42          8           0      -21.214762   -1.442904   -1.886954
     43          8           0      -23.342528   -2.308106   -1.895036
     44          6           0      -22.936970   -3.285653   -2.906886
     45          1           0      -28.291392   -4.182068    0.978083
     46          1           0      -31.935572    1.058646   -0.128317
     47          1           0      -26.685373    4.552856   -1.088612
     48          1           0      -23.469268   -3.169870    0.504685
     49          1           0      -25.675840   -4.348600    1.902034
     50          1           0      -25.596952   -5.834829    0.386600
     51          1           0      -24.548558   -4.762166   -0.534622
     52          1           0      -26.273666   -4.782755   -0.884451
     53          1           0      -22.964980   -1.797585    2.329424
     54          1           0      -23.378122   -3.366904    2.713766
     55          1           0      -25.941097   -1.986985    3.254521
     56          1           0      -24.598792   -0.795499    3.525659
     57          1           0      -30.946601   -4.240927    2.142767
     58          1           0      -30.210308   -4.778684    0.632023
     59          1           0      -31.950776   -4.515103    0.690724
     60          1           0      -34.663626   -0.450492    1.369895
     61          1           0      -33.987294    0.057347   -0.248344
     62          1           0      -33.184092    0.375978    1.313850
     63          1           0      -30.997946    3.640506    0.850293
     64          1           0      -29.319924    4.691199   -1.430792
     65          1           0      -32.008721    2.752058   -1.693726
     66          1           0      -31.606085    4.445828   -1.968600
     67          1           0      -32.575059    3.875018   -0.596966
     68          1           0      -28.444450    5.220797    1.508309
     69          1           0      -30.062240    5.635326    1.282519
     70          1           0      -29.516914    7.512568    0.180499
     71          1           0      -28.437538    6.687353   -0.901674
     72          1           0      -27.837889    7.246205    0.710979
     73          1           0      -24.027601    4.721666   -2.329381
     74          1           0      -22.696950    3.986928   -1.385218
     75          1           0      -24.003477    4.911985   -0.632354
     76          1           0      -22.181446   -0.617260    0.424718
     77          1           0      -22.086813   -3.841121   -2.509880
     78          1           0      -22.728946   -2.841682   -3.880525
     79          1           0      -23.775853   -3.925361   -3.180629
     80         12           0       27.351780    0.649677   -0.384496
     81          6           0       25.688760   -2.446200   -0.395023
     82          6           0       24.367793    2.167342    0.399507
     83          6           0       29.108129    3.357066    0.344087
     84          6           0       30.409747   -1.071315   -0.936647
     85          7           0       25.354806   -0.089276    0.203504
     86          6           0       24.871561   -1.421000    0.125471
     87          6           0       23.400920   -1.498821    0.159853
     88          6           0       22.987403    0.027793    0.318782
     89          6           0       24.312751    0.771584    0.270727
     90          6           0       21.901962    0.458360   -0.697313
     91          6           0       22.840109   -2.238116    1.336229
     92          6           0       23.571121   -2.062481    2.675607
     93          1           0       22.784375   -2.025818    4.043407
     94          7           0       26.834561    2.557602    0.255599
     95          6           0       25.564164    2.984048    0.389378
     96          6           0       25.584999    4.401578    0.650407
     97          6           0       26.942029    4.800138    0.568749
     98          6           0       27.716389    3.567918    0.349548
     99          6           0       24.390487    5.257211    0.976443
    100          6           0       27.459726    6.232332    0.698435
    101          8           0       26.698637    7.158305    0.900384
    102          6           0       28.889162    6.686677    0.718798
    103          7           0       29.448159    1.026204   -0.055146
    104          6           0       29.939961    2.279401    0.195821
    105          6           0       31.487171    2.342159   -0.024853
    106          6           0       31.862328    0.832641   -0.126090
    107          6           0       30.507162    0.221388   -0.407334
    108          6           0       31.948890    3.107998   -1.288189
    109          6           0       32.344472    0.134870    1.232240
    110          6           0       33.560568   -0.715280    1.154773
    111          7           0       27.957133   -1.251661   -0.714802
    112          6           0       29.149782   -1.729010   -1.095518
    113          6           0       28.986947   -3.098621   -1.714007
    114          6           0       27.599470   -3.363931   -1.483867
    115          6           0       27.056224   -2.274563   -0.745738
    116          6           0       30.008541   -4.015259   -2.371565
    117          6           0       26.618395   -4.407085   -1.567721
    118          8           0       26.706787   -5.549696   -1.988639
    119          6           0       25.317683   -3.824451   -0.881157
    120          6           0       25.080563   -4.637469    0.374588
    121          8           0       25.738715   -4.656293    1.361741
    122          8           0       23.876739   -5.294234    0.232489
    123          6           0       23.379469   -5.889083    1.477158
    124          1           0       23.394853    2.660159    0.450458
    125          1           0       29.692454    4.276585    0.406770
    126          1           0       31.368938   -1.499851   -1.234539
    127          1           0       23.075144   -1.984232   -0.760112
    128          1           0       22.657746    0.333431    1.311711
    129          1           0       21.201840    0.964914   -0.032746
    130          1           0       21.509205   -0.453472   -1.147350
    131          1           0       22.262959    1.185184   -1.425259
    132          1           0       22.605808   -3.283024    1.131104
    133          1           0       21.827052   -1.948417    1.616186
    134          1           0       24.149092   -1.145237    2.557867
    135          1           0       24.288701   -2.882726    2.649378
    136          1           0       24.594987    5.906998    1.828005
    137          1           0       23.512783    4.627271    1.120542
    138          1           0       24.253732    5.868124    0.083830
    139          1           0       29.474076    6.355651    1.576331
    140          1           0       28.763812    7.755469    0.892855
    141          1           0       29.368490    6.640914   -0.259667
    142          1           0       31.924700    2.837448    0.841862
    143          1           0       32.558881    0.612447   -0.935471
    144          1           0       32.379100    2.392263   -1.988489
    145          1           0       32.511157    4.006442   -1.034245
    146          1           0       31.068637    3.511453   -1.787388
    147          1           0       31.535615   -0.436276    1.687336
    148          1           0       32.543360    0.975730    1.896913
    149          1           0       34.340063   -0.408952    1.852069
    150          1           0       33.988421   -0.773369    0.153673
    151          1           0       33.350517   -1.747375    1.434109
    152          1           0       29.999300   -4.943949   -1.800970
    153          1           0       30.940720   -3.457379   -2.468699
    154          1           0       29.584204   -4.272021   -3.342105
    155          1           0       24.454107   -3.845615   -1.545528
    156          1           0       23.693742   -5.342560    2.366234
    157          1           0       23.815800   -6.887968    1.470646
    158          1           0       22.311824   -6.043625    1.323476
 ---------------------------------------------------------------------

 SCF Done:  E(RPBE1PBE) =  -4067.36683475     A.U. after   16 cycles

 Excitation energies and oscillator strengths:

 Excited State   1:      Singlet-A      1.8294 eV  677.74 nm  f=0.3612  <S**2>=0.000
     310 -> 316        0.16661
     312 -> 314        0.69540
     312 <- 314       -0.11481
 This state for optimization and/or second-order correction.
 Total Energy, E(TD-HF/TD-DFT) =  -4067.29960643
 Copying the excited state density for this state as the 1-particle RhoCI density.

 Excited State   2:      Singlet-A      1.8679 eV  663.75 nm  f=0.0000  <S**2>=0.000
     312 -> 313        0.70711

 Excited State   3:      Singlet-A      1.8908 eV  655.72 nm  f=0.3797  <S**2>=0.000
     309 -> 315       -0.16973
     311 -> 313        0.69198
     311 <- 313       -0.10820

 Excited State   4:      Singlet-A      2.1231 eV  583.97 nm  f=0.0000  <S**2>=0.000
     311 -> 314        0.70711

 Excited State   5:      Singlet-A      2.2081 eV  561.51 nm  f=0.1163  <S**2>=0.000
     309 -> 313        0.66032
     311 -> 315        0.22049

 The electronic state is 1-A.
 Alpha  occ. eigenvalues --  -46.92476 -46.91943 -19.27058 -19.25238 -19.20570
 Alpha  occ. eigenvalues --  -19.19760 -19.19340 -19.18686 -19.18405 -19.18253
 Alpha  occ. eigenvalues --  -14.41863 -14.41576 -14.41486 -14.41392 -14.39389
 Alpha  occ. eigenvalues --  -14.39230 -14.39100 -14.38386 -10.36519 -10.36218
 Alpha  occ. eigenvalues --  -10.32117 -10.31824 -10.31732 -10.31707 -10.29979
 Alpha  occ. eigenvalues --  -10.29244 -10.28978 -10.28742 -10.28685 -10.28643
 Alpha  occ. eigenvalues --  -10.28596 -10.28470 -10.28418 -10.28333 -10.28332
 Alpha  occ. eigenvalues --  -10.28047 -10.28029 -10.27874 -10.27566 -10.27141
 Alpha  occ. eigenvalues --  -10.27054 -10.26584 -10.26470 -10.26311 -10.26265
 Alpha  occ. eigenvalues --  -10.26250 -10.26222 -10.26149 -10.26126 -10.26098
 Alpha  occ. eigenvalues --  -10.26073 -10.25916 -10.25913 -10.25880 -10.25774
 Alpha  occ. eigenvalues --  -10.25697 -10.25694 -10.25619 -10.25332 -10.25042
 Alpha  occ. eigenvalues --  -10.24982 -10.24912 -10.24907 -10.24891 -10.24873
 Alpha  occ. eigenvalues --  -10.24700 -10.24684 -10.24491 -10.24425 -10.24103
 Alpha  occ. eigenvalues --  -10.24062 -10.24037 -10.24024 -10.23989 -10.23945
 Alpha  occ. eigenvalues --  -10.23789 -10.23663 -10.23575 -10.23083 -10.22893
 Alpha  occ. eigenvalues --  -10.22877 -10.22860 -10.22780 -10.22761 -10.22569
 Alpha  occ. eigenvalues --  -10.22467  -3.14512  -3.14165  -1.87327  -1.86967
 Alpha  occ. eigenvalues --   -1.86904  -1.86717  -1.86544  -1.86406  -1.12214
 Alpha  occ. eigenvalues --   -1.11973  -1.05098  -1.04683  -1.03900  -1.03759
 Alpha  occ. eigenvalues --   -1.02960  -1.02890  -0.99565  -0.99192  -0.99148
 Alpha  occ. eigenvalues --   -0.98662  -0.97891  -0.97556  -0.97240  -0.95983
 Alpha  occ. eigenvalues --   -0.88544  -0.87517  -0.84122  -0.83719  -0.83534
 Alpha  occ. eigenvalues --   -0.83323  -0.83046  -0.82679  -0.82091  -0.81821
 Alpha  occ. eigenvalues --   -0.80615  -0.80524  -0.80183  -0.80088  -0.79399
 Alpha  occ. eigenvalues --   -0.78987  -0.78456  -0.78441  -0.77511  -0.77059
 Alpha  occ. eigenvalues --   -0.76974  -0.75871  -0.75796  -0.75267  -0.75134
 Alpha  occ. eigenvalues --   -0.74785  -0.72984  -0.72272  -0.72252  -0.71776
 Alpha  occ. eigenvalues --   -0.71390  -0.71109  -0.70443  -0.70334  -0.69485
 Alpha  occ. eigenvalues --   -0.69286  -0.67148  -0.67008  -0.66555  -0.66069
 Alpha  occ. eigenvalues --   -0.64428  -0.63916  -0.63633  -0.63268  -0.63241
 Alpha  occ. eigenvalues --   -0.63010  -0.61542  -0.61503  -0.60977  -0.60273
 Alpha  occ. eigenvalues --   -0.59828  -0.59760  -0.59599  -0.59039  -0.58910
 Alpha  occ. eigenvalues --   -0.58879  -0.58411  -0.56634  -0.54788  -0.54496
 Alpha  occ. eigenvalues --   -0.54235  -0.54054  -0.53846  -0.53500  -0.53384
 Alpha  occ. eigenvalues --   -0.53234  -0.53009  -0.52678  -0.52668  -0.51987
 Alpha  occ. eigenvalues --   -0.51297  -0.51141  -0.51090  -0.50511  -0.50425
 Alpha  occ. eigenvalues --   -0.49945  -0.49725  -0.49645  -0.49175  -0.49145
 Alpha  occ. eigenvalues --   -0.48878  -0.48664  -0.48436  -0.47798  -0.47700
 Alpha  occ. eigenvalues --   -0.47591  -0.47546  -0.46969  -0.46866  -0.46750
 Alpha  occ. eigenvalues --   -0.46601  -0.46489  -0.46431  -0.46238  -0.46020
 Alpha  occ. eigenvalues --   -0.45922  -0.45790  -0.45753  -0.45542  -0.45512
 Alpha  occ. eigenvalues --   -0.44754  -0.44597  -0.44205  -0.44204  -0.44053
 Alpha  occ. eigenvalues --   -0.43974  -0.43916  -0.43800  -0.43501  -0.43402
 Alpha  occ. eigenvalues --   -0.43370  -0.43362  -0.43194  -0.43176  -0.43050
 Alpha  occ. eigenvalues --   -0.42768  -0.42265  -0.42205  -0.41866  -0.41785
 Alpha  occ. eigenvalues --   -0.41766  -0.41581  -0.41491  -0.41434  -0.41133
 Alpha  occ. eigenvalues --   -0.41079  -0.41016  -0.40754  -0.40673  -0.40578
 Alpha  occ. eigenvalues --   -0.40530  -0.40434  -0.40227  -0.39986  -0.39951
 Alpha  occ. eigenvalues --   -0.39582  -0.39483  -0.39458  -0.39445  -0.39310
 Alpha  occ. eigenvalues --   -0.39144  -0.38821  -0.38677  -0.38414  -0.38394
 Alpha  occ. eigenvalues --   -0.38334  -0.38011  -0.37677  -0.37634  -0.37390
 Alpha  occ. eigenvalues --   -0.37353  -0.37152  -0.37148  -0.37104  -0.37019
 Alpha  occ. eigenvalues --   -0.36982  -0.36776  -0.36698  -0.36651  -0.36094
 Alpha  occ. eigenvalues --   -0.36045  -0.36027  -0.35811  -0.35634  -0.35270
 Alpha  occ. eigenvalues --   -0.35248  -0.34771  -0.34516  -0.34121  -0.34014
 Alpha  occ. eigenvalues --   -0.33667  -0.33400  -0.32815  -0.32810  -0.32688
 Alpha  occ. eigenvalues --   -0.32470  -0.32229  -0.32068  -0.31958  -0.31432
 Alpha  occ. eigenvalues --   -0.31034  -0.30721  -0.29885  -0.29774  -0.29388
 Alpha  occ. eigenvalues --   -0.29190  -0.28646  -0.28563  -0.27376  -0.26978
 Alpha  occ. eigenvalues --   -0.26066  -0.25591  -0.25483  -0.25436  -0.25362
 Alpha  occ. eigenvalues --   -0.25228  -0.25110  -0.24813  -0.21205  -0.21204
 Alpha  occ. eigenvalues --   -0.19260  -0.18682
 Alpha virt. eigenvalues --   -0.11576  -0.11215  -0.05411  -0.05296  -0.04043
 Alpha virt. eigenvalues --   -0.03980  -0.02360  -0.01884  -0.01386  -0.01301
 Alpha virt. eigenvalues --    0.00517   0.00906   0.01037   0.01309   0.01431

 Mulliken charges:
               1
     1  Mg  12.000000
     2  C    5.999972
     3  C    6.000012
     4  C    6.000036
     5  C    6.000020
     6  N    6.999997
     7  C    5.999970
     8  C    6.000021
     9  C    5.999975
    10  C    6.000025
    11  C    5.999986
    12  C    6.000017
    13  C    6.000002
    14  H    0.999988
    15  N    6.999997
    16  C    6.000092
    17  C    6.000028
    18  C    6.000035
    19  C    6.000055
    20  C    5.999995
    21  C    6.000057
    22  O    8.000072
    23  C    5.999984
    24  N    7.000006
    25  C    6.000011
    26  C    5.999989
    27  C    6.000024
    28  C    5.999942
    29  C    6.000003
    30  C    6.000014
    31  C    6.000007
    32  N    6.999978
    33  C    5.999938
    34  C    5.999919
    35  C    6.000025
    36  C    5.999972
    37  C    6.000003
    38  C    5.999915
    39  O    7.999913
    40  C    6.000004
    41  C    5.999999
    42  O    7.999984
    43  O    7.999999
    44  C    5.999994
    45  H    1.000048
    46  H    1.000013
    47  H    0.999959
    48  H    1.000010
    49  H    1.000021
    50  H    1.000023
    51  H    1.000043
    52  H    0.999999
    53  H    1.000008
    54  H    0.999992
    55  H    0.999963
    56  H    1.000006
    57  H    1.000059
    58  H    1.000057
    59  H    1.000056
    60  H    1.000039
    61  H    1.000034
    62  H    1.000012
    63  H    0.999998
    64  H    0.999995
    65  H    0.999998
    66  H    1.000019
    67  H    0.999997
    68  H    0.999997
    69  H    0.999971
    70  H    0.999979
    71  H    1.000006
    72  H    0.999988
    73  H    0.999919
    74  H    0.999946
    75  H    0.999914
    76  H    0.999969
    77  H    1.000001
    78  H    0.999996
    79  H    0.999990
    80  Mg  12.002005
    81  C    6.027657
    82  C    5.992254
    83  C    5.978596
    84  C    6.007020
    85  N    7.006555
    86  C    5.960516
    87  C    6.013874
    88  C    5.991512
    89  C    6.029010
    90  C    5.998135
    91  C    6.003487
    92  C    6.005632
    93  H    0.991546
    94  N    6.991745
    95  C    6.039800
    96  C    6.022101
    97  C    6.005664
    98  C    6.042627
    99  C    5.997276
   100  C    6.010618
   101  O    8.018477
   102  C    5.996352
   103  N    6.996270
   104  C    6.032680
   105  C    5.993675
   106  C    6.005491
   107  C    5.976741
   108  C    6.000176
   109  C    6.007171
   110  C    6.000245
   111  N    7.001216
   112  C    5.965638
   113  C    5.961471
   114  C    6.004880
   115  C    5.962754
   116  C    6.000437
   117  C    5.984846
   118  O    7.975260
   119  C    5.997990
   120  C    5.997339
   121  O    7.996256
   122  O    7.998005
   123  C    6.001228
   124  H    1.012220
   125  H    1.007605
   126  H    0.988929
   127  H    0.998706
   128  H    0.998139
   129  H    1.000132
   130  H    1.012235
   131  H    0.998197
   132  H    1.003511
   133  H    0.991453
   134  H    0.990520
   135  H    1.006644
   136  H    1.015864
   137  H    1.017099
   138  H    1.017419
   139  H    1.010478
   140  H    1.010674
   141  H    1.011126
   142  H    0.999624
   143  H    1.000249
   144  H    1.012033
   145  H    1.000089
   146  H    0.995355
   147  H    1.000766
   148  H    0.986121
   149  H    0.994718
   150  H    0.999431
   151  H    1.002951
   152  H    0.981679
   153  H    0.982647
   154  H    0.981324
   155  H    0.990283
   156  H    0.996038
   157  H    0.998627
   158  H    0.994886
 Sum of Mulliken charges = 624.00000

 Dipole moment (field-independent basis, Debye):
    X=             -2.6504    Y=              9.6234    Z=              2.1202  Tot=             10.2044
 Quadrupole moment (field-independent basis, Debye-Ang):
   XX=           -143.0569   YY=             12.1987   ZZ=             -3.6518
   XY=            261.2635   XZ=             59.9142   YZ=             -2.4735

 Normal termination of Gaussian 16 at Thu Oct 14 21:44:03 2021.
