 Gaussian 16, Revision A.03,
 Gaussian 16:  ES64L-G16RevA.03 25-Dec-2016

 --------------------------------------------------------
 #p PBE1PBE/Def2SVP td=(nstates=5) density=(transition=1)
 --------------------------------------------------------

 --------------------------------
 TDDFT excited states in gaussian
 --------------------------------
 Symbolic Z-matrix:
 Charge =  0 Multiplicity = 1

                         Standard orientation:
 ---------------------------------------------------------------------
 Center     Atomic      Atomic             Coordinates (Angstroms)
 Number     Number       Type             X           Y           Z
 ---------------------------------------------------------------------
      1         12           0       -0.632366    0.021709    0.159067
      2          6           0        2.764476    0.189591    0.092891
      3          6           0       -0.529432   -3.414479    0.021577
      4          6           0       -4.015925    0.017847    0.048239
      5          6           0       -0.699868    3.538773   -0.183660
      6          7           0        0.953602   -1.440806   -0.157057
      7          6           0        2.237204   -1.141869    0.177684
      8          6           0        3.077797   -2.345156    0.440404
      9          6           0        1.989337   -3.501640    0.142369
     10          6           0        0.702683   -2.759106   -0.011593
     11          6           0        2.338513   -4.356516   -1.158897
     12          6           0        3.536791   -2.329711    1.972700
     13          6           0        4.789715   -3.128768    2.337805
     14          1           0        5.454068   -4.182857    1.417461
     15          7           0       -2.113467   -1.454997    0.150399
     16          6           0       -1.848734   -2.831888    0.069305
     17          6           0       -3.125957   -3.505987    0.037818
     18          6           0       -4.140930   -2.528357    0.075643
     19          6           0       -3.415148   -1.267475    0.143722
     20          6           0       -3.215266   -5.049948    0.032935
     21          6           0       -5.738090   -2.758086   -0.038043
     22          8           0       -6.558489   -1.850249    0.147006
     23          6           0       -6.389760   -4.097118   -0.341448
     24          7           0       -2.155844    1.622039    0.025106
     25          6           0       -3.471817    1.308201   -0.040538
     26          6           0       -4.316993    2.522709   -0.421039
     27          6           0       -3.263134    3.747615   -0.165173
     28          6           0       -1.947989    2.972423    0.011144
     29          6           0       -5.036066    2.461345   -1.845745
     30          6           0       -3.457018    4.589634    1.196069
     31          6           0       -3.482458    6.106279    1.148222
     32          7           0        0.701935    1.623949    0.035331
     33          6           0        0.560403    2.953194   -0.109210
     34          6           0        1.901463    3.614844   -0.050989
     35          6           0        2.777907    2.512415    0.086722
     36          6           0        1.980897    1.344609    0.003299
     37          6           0        2.283420    5.052604   -0.073574
     38          6           0        4.159292    2.233999    0.213629
     39          8           0        5.137763    3.007758    0.256805
     40          6           0        4.219795    0.708607    0.219535
     41          6           0        5.013430    0.269145   -0.905274
     42          8           0        4.905372    0.494488   -2.070034
     43          8           0        5.945950   -0.628308   -0.393578
     44          6           0        6.930736   -1.361324   -1.278032
     45          1           0       -0.576771   -4.489454    0.205573
     46          1           0       -5.100063    0.006040   -0.084612
     47          1           0       -0.635983    4.587302   -0.479896
     48          1           0        3.985165   -2.543854   -0.129605
     49          1           0        1.910080   -4.196136    0.978705
     50          1           0        2.090220   -5.416595   -1.112555
     51          1           0        3.372901   -4.164800   -1.443768
     52          1           0        1.723639   -3.951236   -1.963161
     53          1           0        2.740375   -2.675439    2.631999
     54          1           0        3.712112   -1.278759    2.204012
     55          1           0        4.561193   -3.608667    3.290265
     56          1           0        5.584033   -2.427975    2.591970
     57          1           0       -2.252607   -5.555317    0.109203
     58          1           0       -3.734624   -5.327146   -0.883817
     59          1           0       -3.860019   -5.333931    0.864969
     60          1           0       -6.205701   -4.695693    0.549935
     61          1           0       -5.823633   -4.682856   -1.065955
     62          1           0       -7.393855   -3.950780   -0.739016
     63          1           0       -5.103279    2.623929    0.327984
     64          1           0       -3.274232    4.451706   -0.997409
     65          1           0       -4.732854    3.295611   -2.478771
     66          1           0       -6.118015    2.455494   -1.718646
     67          1           0       -4.725696    1.571867   -2.394534
     68          1           0       -2.747418    4.285394    1.965349
     69          1           0       -4.407092    4.262274    1.617241
     70          1           0       -2.695872    6.448586    1.819784
     71          1           0       -4.452366    6.524789    1.415540
     72          1           0       -3.187962    6.446569    0.154473
     73          1           0        1.446056    5.750206   -0.071639
     74          1           0        2.868843    5.285345   -0.963453
     75          1           0        2.895999    5.257224    0.804252
     76          1           0        4.661838    0.317266    1.136269
     77          1           0        6.751905   -1.120350   -2.326135
     78          1           0        6.778273   -2.437066   -1.180951
     79          1           0        7.915734   -1.030445   -0.948903
 ---------------------------------------------------------------------

 SCF Done:  E(RPBE1PBE) =  -2033.68776289     A.U. after   16 cycles

 Excitation energies and oscillator strengths:

 Excited State   1:      Singlet-A      1.8923 eV  655.20 nm  f=0.3847  <S**2>=0.000
     155 ->158         0.18629
     156 ->157         0.68966
     156 <-157        -0.10200
 This state for optimization and/or second-order correction.
 Total Energy, E(TD-HF/TD-DFT) =  -2033.61822126
 Copying the excited state density for this state as the 1-particle RhoCI density.

 Excited State   2:      Singlet-A      2.2346 eV  554.84 nm  f=0.1012  <S**2>=0.000
     155 ->157         0.65139
     156 ->158        -0.26687

 Excited State   3:      Singlet-A      3.0095 eV  411.97 nm  f=0.0005  <S**2>=0.000
     151 ->157         0.27550
     151 ->159        -0.12140
     152 ->157         0.18681
     153 ->157         0.13174
     154 ->157         0.55704
     154 ->159        -0.13980

 Excited State   4:      Singlet-A      3.1981 eV  387.68 nm  f=0.0012  <S**2>=0.000
     151 ->157         0.11856
     153 ->157         0.64152
     154 ->157        -0.19403

 Excited State   5:      Singlet-A      3.2589 eV  380.44 nm  f=0.0025  <S**2>=0.000
     152 ->157         0.63909
     154 ->157        -0.21493

 The electronic state is 1-A.
 Alpha  occ. eigenvalues --  -46.92777 -19.24327 -19.19722 -19.19498 -19.18946
 Alpha  occ. eigenvalues --  -14.42002 -14.41145 -14.39231 -14.38955 -10.35579
 Alpha  occ. eigenvalues --  -10.33498 -10.31520 -10.29401 -10.29097 -10.28447
 Alpha  occ. eigenvalues --  -10.28342 -10.27997 -10.27721 -10.27608 -10.27496
 Alpha  occ. eigenvalues --  -10.26512 -10.26387 -10.26327 -10.26135 -10.26124
 Alpha  occ. eigenvalues --  -10.26049 -10.26001 -10.25834 -10.25678 -10.25542
 Alpha  occ. eigenvalues --  -10.25347 -10.25085 -10.25078 -10.24903 -10.24012
 Alpha  occ. eigenvalues --  -10.23974 -10.23763 -10.23699 -10.23588 -10.23564
 Alpha  occ. eigenvalues --  -10.23539 -10.22780 -10.22374  -3.14769  -1.87630
 Alpha  occ. eigenvalues --   -1.87125  -1.87003  -1.10316  -1.04323  -1.02964
 Alpha  occ. eigenvalues --   -1.01989  -1.00198  -0.99103  -0.98297  -0.97282
 Alpha  occ. eigenvalues --   -0.87813  -0.82950  -0.82508  -0.81841  -0.81337
 Alpha  occ. eigenvalues --   -0.81190  -0.80527  -0.78649  -0.77740  -0.76625
 Alpha  occ. eigenvalues --   -0.75820  -0.75451  -0.74669  -0.72755  -0.71805
 Alpha  occ. eigenvalues --   -0.71382  -0.70477  -0.69554  -0.67028  -0.66447
 Alpha  occ. eigenvalues --   -0.63721  -0.63006  -0.62619  -0.60438  -0.59715
 Alpha  occ. eigenvalues --   -0.59665  -0.59071  -0.58806  -0.56324  -0.55072
 Alpha  occ. eigenvalues --   -0.54456  -0.53795  -0.53380  -0.52888  -0.52313
 Alpha  occ. eigenvalues --   -0.50662  -0.50151  -0.49800  -0.48655  -0.48333
 Alpha  occ. eigenvalues --   -0.47692  -0.47498  -0.47343  -0.46719  -0.46631
 Alpha  occ. eigenvalues --   -0.46236  -0.46151  -0.45984  -0.45378  -0.45120
 Alpha  occ. eigenvalues --   -0.44459  -0.44197  -0.44051  -0.43717  -0.43542
 Alpha  occ. eigenvalues --   -0.42940  -0.42788  -0.42601  -0.42306  -0.41950
 Alpha  occ. eigenvalues --   -0.41616  -0.41288  -0.41166  -0.40950  -0.40868
 Alpha  occ. eigenvalues --   -0.40355  -0.39890  -0.39434  -0.39151  -0.39027
 Alpha  occ. eigenvalues --   -0.38778  -0.38749  -0.38535  -0.38073  -0.37514
 Alpha  occ. eigenvalues --   -0.37138  -0.36649  -0.36472  -0.36158  -0.35982
 Alpha  occ. eigenvalues --   -0.35901  -0.35669  -0.35087  -0.34685  -0.34340
 Alpha  occ. eigenvalues --   -0.33405  -0.32799  -0.32559  -0.31834  -0.31591
 Alpha  occ. eigenvalues --   -0.31033  -0.29421  -0.29339  -0.28674  -0.26809
 Alpha  occ. eigenvalues --   -0.26108  -0.25997  -0.25681  -0.25478  -0.20792
 Alpha  occ. eigenvalues --   -0.18776
 Alpha virt. eigenvalues --   -0.11000  -0.05189  -0.04200  -0.02125  -0.00093
 Alpha virt. eigenvalues --    0.00774   0.01350   0.01607   0.02930   0.03579
 Alpha virt. eigenvalues --    0.04470   0.05473   0.06060   0.06201   0.06720

 Mulliken charges:
               1
     1  Mg  12.001320
     2  C    6.018202
     3  C    5.981917
     4  C    5.984411
     5  C    6.008864
     6  N    6.999666
     7  C    5.964319
     8  C    6.017260
     9  C    5.985937
    10  C    6.038023
    11  C    5.997881
    12  C    6.003842
    13  C    6.000554
    14  H    0.993984
    15  N    6.994477
    16  C    6.047633
    17  C    6.010518
    18  C    6.021177
    19  C    6.025414
    20  C    5.999880
    21  C    6.012462
    22  O    8.026991
    23  C    5.998601
    24  N    6.998434
    25  C    6.029780
    26  C    5.989780
    27  C    6.009667
    28  C    5.972566
    29  C    5.998291
    30  C    6.007738
    31  C    5.999047
    32  N    7.002841
    33  C    5.964714
    34  C    5.966600
    35  C    5.999309
    36  C    5.973178
    37  C    6.004381
    38  C    5.982990
    39  O    7.970654
    40  C    6.001366
    41  C    5.996127
    42  O    7.996578
    43  O    7.998580
    44  C    6.001230
    45  H    1.009297
    46  H    1.005730
    47  H    0.991896
    48  H    0.996803
    49  H    1.002297
    50  H    1.000349
    51  H    1.014721
    52  H    1.000307
    53  H    0.988685
    54  H    1.007905
    55  H    0.995844
    56  H    1.003105
    57  H    1.016279
    58  H    1.015055
    59  H    1.015319
    60  H    1.006877
    61  H    1.006157
    62  H    1.013051
    63  H    0.999268
    64  H    0.997009
    65  H    1.010418
    66  H    0.999891
    67  H    0.995718
    68  H    1.000759
    69  H    0.987675
    70  H    1.002541
    71  H    0.994630
    72  H    1.000714
    73  H    0.981764
    74  H    0.980756
    75  H    0.983069
    76  H    0.991058
    77  H    0.996854
    78  H    0.993346
    79  H    0.997669
 Sum of Mulliken charges = 312.00000

 Dipole moment (field-independent basis, Debye):
    X=             -7.1861    Y=             -7.4534    Z=             -0.1792  Tot=             10.3549
 Quadrupole moment (field-independent basis, Debye-Ang):
   XX=              7.6456   YY=             -1.4484   ZZ=             -0.2412
   XY=              6.1130   XZ=              0.1707   YZ=              0.0668

 Normal termination of Gaussian 16 at Wed Oct 13 19:24:56 2021.
