 Gaussian 16, Revision A.03,
 Gaussian 16:  ES64L-G16RevA.03 25-Dec-2016

 --------------------------------------------------------
 #p PBE1PBE/Def2SVP td=(nstates=5) density=(transition=1)
 --------------------------------------------------------

 --------------------------------
 TDDFT excited states in gaussian
 --------------------------------
 Symbolic Z-matrix:
 Charge =  0 Multiplicity = 1

                         Standard orientation:
 ---------------------------------------------------------------------
 Center     Atomic      Atomic             Coordinates (Angstroms)
 Number     Number       Type             X           Y           Z
 ---------------------------------------------------------------------
      1         12           0       -0.713334    0.139503    0.370142
      2          6           0        2.777719    0.024653    0.223510
      3          6           0       -0.729155   -3.296722    0.055745
      4          6           0       -4.077530    0.242370   -0.197895
      5          6           0       -0.540041    3.580217    0.017392
      6          7           0        0.853123   -1.383970    0.260285
      7          6           0        2.169328   -1.209056    0.434424
      8          6           0        2.961279   -2.501536    0.680797
      9          6           0        1.852332   -3.595983    0.438250
     10          6           0        0.484815   -2.717500    0.322975
     11          6           0        2.040359   -4.536776   -0.771399
     12          6           0        3.636177   -2.584653    2.050077
     13          6           0        4.880761   -3.490729    2.060815
     14          1           0        5.295580   -4.212396    0.770846
     15          7           0       -2.223600   -1.303079    0.094166
     16          6           0       -2.037398   -2.704309    0.058767
     17          6           0       -3.336130   -3.332377   -0.078529
     18          6           0       -4.337524   -2.300948   -0.222349
     19          6           0       -3.582029   -1.057685   -0.076860
     20          6           0       -3.489971   -4.824784    0.025998
     21          6           0       -5.925263   -2.406548   -0.323758
     22          8           0       -6.664704   -1.452787   -0.298085
     23          6           0       -6.495833   -3.799814   -0.476455
     24          7           0       -2.081363    1.663974   -0.122553
     25          6           0       -3.425628    1.486261   -0.272426
     26          6           0       -4.185537    2.845134   -0.497581
     27          6           0       -3.044765    3.850937   -0.352086
     28          6           0       -1.823142    2.975024   -0.147078
     29          6           0       -5.123662    3.070096   -1.751185
     30          6           0       -3.288850    4.806539    0.839366
     31          6           0       -2.921031    4.333510    2.263219
     32          7           0        0.772131    1.615013    0.306145
     33          6           0        0.702772    2.976405    0.161333
     34          6           0        2.000730    3.563426    0.167803
     35          6           0        2.902812    2.406651    0.185708
     36          6           0        2.119008    1.320656    0.241811
     37          6           0        2.438007    4.960420    0.122621
     38          6           0        4.286105    1.967693    0.064056
     39          8           0        5.330857    2.627416    0.055635
     40          6           0        4.294247    0.410790    0.088414
     41          6           0        4.924999   -0.140329   -1.106595
     42          8           0        4.411795   -0.232868   -2.216685
     43          8           0        6.261374   -0.333217   -0.861219
     44          6           0        7.198984   -0.479669   -1.991493
     45          1           0       -0.636700   -4.377774   -0.069342
     46          1           0       -5.168410    0.291024   -0.194985
     47          1           0       -0.482981    4.670603    0.003908
     48          1           0        3.684759   -2.686089   -0.112995
     49          1           0        1.628336   -4.188721    1.324428
     50          1           0        1.944690   -5.504758   -0.279826
     51          1           0        3.033079   -4.414660   -1.203982
     52          1           0        1.284280   -4.338321   -1.531142
     53          1           0        2.947116   -2.913653    2.826992
     54          1           0        3.957967   -1.593446    2.370668
     55          1           0        4.600255   -4.202790    2.837227
     56          1           0        5.749088   -2.984429    2.484862
     57          1           0       -2.475276   -5.222679    0.008452
     58          1           0       -4.081860   -5.180755   -0.817510
     59          1           0       -4.009033   -5.138124    0.933052
     60          1           0       -6.396144   -4.273439   -1.453646
     61          1           0       -7.539175   -3.765585   -0.162841
     62          1           0       -5.927910   -4.354462    0.270411
     63          1           0       -4.853761    2.846278    0.363267
     64          1           0       -3.003009    4.403498   -1.290026
     65          1           0       -4.951163    4.002517   -2.287419
     66          1           0       -6.151635    3.131264   -1.395344
     67          1           0       -5.040497    2.188441   -2.387388
     68          1           0       -4.346362    5.062810    0.788098
     69          1           0       -2.729331    5.707769    0.587001
     70          1           0       -3.744604    4.682465    2.885641
     71          1           0       -2.013950    4.796283    2.651315
     72          1           0       -2.730526    3.264115    2.346649
     73          1           0        3.262687    5.069980    0.826029
     74          1           0        1.671707    5.701909    0.348834
     75          1           0        2.930897    5.164105   -0.828168
     76          1           0        4.837225    0.165925    1.001154
     77          1           0        6.687230   -0.474943   -2.954507
     78          1           0        7.692129   -1.446547   -1.888246
     79          1           0        7.837021    0.390455   -1.840981
 ---------------------------------------------------------------------

 SCF Done:  E(RPBE1PBE) =  -2033.70285370     A.U. after   16 cycles

 Excitation energies and oscillator strengths:

 Excited State   1:      Singlet-A      1.8755 eV  661.07 nm  f=0.3934  <S**2>=0.000
     155 ->158         0.17453
     156 ->157         0.69095
     156 <-157        -0.10935
 This state for optimization and/or second-order correction.
 Total Energy, E(TD-HF/TD-DFT) =  -2033.63393033
 Copying the excited state density for this state as the 1-particle RhoCI density.

 Excited State   2:      Singlet-A      2.1488 eV  577.00 nm  f=0.1405  <S**2>=0.000
     155 ->157         0.66661
     156 ->158        -0.21025

 Excited State   3:      Singlet-A      2.8047 eV  442.06 nm  f=0.0074  <S**2>=0.000
     153 ->157        -0.10763
     154 ->157         0.69063

 Excited State   4:      Singlet-A      3.0188 eV  410.71 nm  f=0.0165  <S**2>=0.000
     152 ->157         0.25834
     153 ->157         0.63752

 Excited State   5:      Singlet-A      3.0385 eV  408.05 nm  f=0.0047  <S**2>=0.000
     152 ->157         0.62813
     152 ->159        -0.14999
     153 ->157        -0.26309

 The electronic state is 1-A.
 Alpha  occ. eigenvalues --  -46.91668 -19.24559 -19.20073 -19.19211 -19.19006
 Alpha  occ. eigenvalues --  -14.41703 -14.41475 -14.39091 -14.37923 -10.35659
 Alpha  occ. eigenvalues --  -10.33270 -10.32291 -10.28603 -10.28601 -10.28451
 Alpha  occ. eigenvalues --  -10.28443 -10.28398 -10.27982 -10.27519 -10.26602
 Alpha  occ. eigenvalues --  -10.26383 -10.26229 -10.25981 -10.25876 -10.25783
 Alpha  occ. eigenvalues --  -10.25595 -10.25502 -10.25476 -10.25250 -10.25234
 Alpha  occ. eigenvalues --  -10.24808 -10.24724 -10.24589 -10.24348 -10.24143
 Alpha  occ. eigenvalues --  -10.23989 -10.23562 -10.23466 -10.23458 -10.23325
 Alpha  occ. eigenvalues --  -10.23252 -10.22882 -10.22564  -3.13773  -1.86615
 Alpha  occ. eigenvalues --   -1.86144  -1.86003  -1.09852  -1.06263  -1.03659
 Alpha  occ. eigenvalues --   -1.01463  -0.99045  -0.97979  -0.97150  -0.95633
 Alpha  occ. eigenvalues --   -0.86474  -0.83456  -0.83049  -0.82450  -0.81401
 Alpha  occ. eigenvalues --   -0.80718  -0.80415  -0.78485  -0.77693  -0.76592
 Alpha  occ. eigenvalues --   -0.76092  -0.75328  -0.74543  -0.72450  -0.71423
 Alpha  occ. eigenvalues --   -0.71140  -0.70216  -0.69388  -0.66901  -0.65542
 Alpha  occ. eigenvalues --   -0.64166  -0.62853  -0.62123  -0.60458  -0.59259
 Alpha  occ. eigenvalues --   -0.59124  -0.58948  -0.58291  -0.55990  -0.54291
 Alpha  occ. eigenvalues --   -0.53670  -0.53605  -0.52851  -0.52309  -0.51982
 Alpha  occ. eigenvalues --   -0.50411  -0.49993  -0.49694  -0.49196  -0.48256
 Alpha  occ. eigenvalues --   -0.47821  -0.47460  -0.47262  -0.46784  -0.46696
 Alpha  occ. eigenvalues --   -0.46407  -0.46259  -0.45515  -0.45148  -0.44767
 Alpha  occ. eigenvalues --   -0.44210  -0.44099  -0.43944  -0.43666  -0.43611
 Alpha  occ. eigenvalues --   -0.43170  -0.42902  -0.42766  -0.42322  -0.41787
 Alpha  occ. eigenvalues --   -0.41431  -0.40999  -0.40873  -0.40526  -0.40390
 Alpha  occ. eigenvalues --   -0.40003  -0.39785  -0.39405  -0.39063  -0.38642
 Alpha  occ. eigenvalues --   -0.38452  -0.38240  -0.38004  -0.37886  -0.37643
 Alpha  occ. eigenvalues --   -0.37465  -0.37250  -0.36849  -0.36342  -0.35940
 Alpha  occ. eigenvalues --   -0.35735  -0.35548  -0.35103  -0.34826  -0.33485
 Alpha  occ. eigenvalues --   -0.33328  -0.32805  -0.32690  -0.31733  -0.31200
 Alpha  occ. eigenvalues --   -0.30607  -0.29552  -0.28970  -0.28485  -0.26607
 Alpha  occ. eigenvalues --   -0.26339  -0.25734  -0.25188  -0.24388  -0.20505
 Alpha  occ. eigenvalues --   -0.18889
 Alpha virt. eigenvalues --   -0.11283  -0.04874  -0.03629  -0.01925  -0.00172
 Alpha virt. eigenvalues --    0.00696   0.01090   0.01705   0.03030   0.04371
 Alpha virt. eigenvalues --    0.04832   0.05300   0.05968   0.06352   0.07354

 Mulliken charges:
               1
     1  Mg  12.002690
     2  C    5.984779
     3  C    6.013705
     4  C    6.016234
     5  C    5.998682
     6  N    6.993602
     7  C    6.031504
     8  C    5.987060
     9  C    6.002573
    10  C    5.973257
    11  C    6.002583
    12  C    5.997956
    13  C    5.998952
    14  H    1.004124
    15  N    7.000999
    16  C    5.962085
    17  C    5.980836
    18  C    5.982070
    19  C    5.972522
    20  C    6.004191
    21  C    5.985028
    22  O    7.975239
    23  C    6.003884
    24  N    7.007109
    25  C    5.964743
    26  C    6.007659
    27  C    5.989908
    28  C    6.030673
    29  C    5.998808
    30  C    5.995556
    31  C    5.994505
    32  N    7.002037
    33  C    6.023694
    34  C    6.038301
    35  C    6.000229
    36  C    6.020004
    37  C    5.995257
    38  C    6.014554
    39  O    8.024604
    40  C    6.001738
    41  C    6.004814
    42  O    8.007039
    43  O    8.000672
    44  C    5.998457
    45  H    0.990019
    46  H    0.993898
    47  H    1.010394
    48  H    1.000888
    49  H    1.000989
    50  H    0.998893
    51  H    0.988318
    52  H    1.002950
    53  H    1.007816
    54  H    0.992540
    55  H    1.004179
    56  H    0.997698
    57  H    0.983505
    58  H    0.982230
    59  H    0.980001
    60  H    0.990274
    61  H    0.986033
    62  H    0.997957
    63  H    1.001837
    64  H    1.003397
    65  H    0.990921
    66  H    1.000439
    67  H    1.003883
    68  H    1.011174
    69  H    0.996976
    70  H    1.007909
    71  H    0.994773
    72  H    1.006653
    73  H    1.019222
    74  H    1.019076
    75  H    1.023467
    76  H    1.007065
    77  H    1.003410
    78  H    1.006014
    79  H    1.000289
 Sum of Mulliken charges = 312.00000

 Dipole moment (field-independent basis, Debye):
    X=              7.4877    Y=              7.3790    Z=              0.3475  Tot=             10.5183
 Quadrupole moment (field-independent basis, Debye-Ang):
   XX=             -9.8266   YY=              2.3887   ZZ=              0.5224
   XY=             -5.7024   XZ=             -1.6854   YZ=              0.4867

 Normal termination of Gaussian 16 at Wed Oct 13 19:33:38 2021.
