 Gaussian 16, Revision A.03,
 Gaussian 16:  ES64L-G16RevA.03 25-Dec-2016

 --------------------------------------------------------
 #p PBE1PBE/Def2SVP td=(nstates=5) density=(transition=1)
 --------------------------------------------------------

 --------------------------------
 TDDFT excited states in gaussian
 --------------------------------
 Symbolic Z-matrix:
 Charge =  0 Multiplicity = 1

                         Standard orientation:
 ---------------------------------------------------------------------
 Center     Atomic      Atomic             Coordinates (Angstroms)
 Number     Number       Type             X           Y           Z
 ---------------------------------------------------------------------
      1         12           0      -26.777829    0.561358    0.039470
      2          6           0      -24.889865   -2.187269    1.201737
      3          6           0      -28.063404   -1.388018   -2.455603
      4          6           0      -27.949423    3.311483   -1.351310
      5          6           0      -25.012306    2.588385    2.354624
      6          7           0      -26.570764   -1.592803   -0.464152
      7          6           0      -25.786199   -2.462064    0.141664
      8          6           0      -26.200309   -3.857520   -0.289163
      9          6           0      -26.846887   -3.618971   -1.707897
     10          6           0      -27.192416   -2.089451   -1.568769
     11          6           0      -25.864878   -4.041584   -2.865829
     12          6           0      -27.260071   -4.480995    0.655108
     13          6           0      -27.380456   -6.067498    0.605888
     14          1           0      -26.527859   -6.915614   -0.341707
     15          7           0      -28.003565    0.882736   -1.518404
     16          6           0      -28.525929   -0.059774   -2.440871
     17          6           0      -29.448415    0.651154   -3.356685
     18          6           0      -29.343797    2.060507   -3.074543
     19          6           0      -28.407862    2.186846   -1.936273
     20          6           0      -30.300931   -0.030790   -4.367764
     21          6           0      -30.031443    3.334516   -3.703006
     22          8           0      -29.891615    4.485329   -3.266997
     23          6           0      -30.791595    3.171103   -4.987218
     24          7           0      -26.426910    2.695029    0.375581
     25          6           0      -27.067452    3.616862   -0.293064
     26          6           0      -26.809323    5.028972    0.152386
     27          6           0      -25.837983    4.816530    1.366335
     28          6           0      -25.810477    3.257280    1.450819
     29          6           0      -26.355710    5.918515   -1.008845
     30          6           0      -26.312119    5.430831    2.677431
     31          6           0      -25.217586    6.116003    3.571715
     32          7           0      -25.277822    0.321336    1.588995
     33          6           0      -24.696657    1.250263    2.474261
     34          6           0      -23.911684    0.542820    3.426572
     35          6           0      -23.793957   -0.780200    2.893134
     36          6           0      -24.660990   -0.873177    1.834039
     37          6           0      -23.386239    1.101594    4.717743
     38          6           0      -23.297354   -2.168582    3.048764
     39          8           0      -22.540704   -2.638686    3.872744
     40          6           0      -23.812771   -3.016051    1.790222
     41          6           0      -24.010595   -4.448756    2.163474
     42          8           0      -24.767743   -4.875339    2.984707
     43          8           0      -23.102561   -5.283984    1.486185
     44          6           0      -22.678191   -6.510645    2.193759
     45          1           0      -28.359271   -1.887262   -3.381091
     46          1           0      -28.394049    4.264676   -1.642813
     47          1           0      -24.544092    3.230578    3.103602
     48          1           0      -25.279994   -4.429457   -0.171266
     49          1           0      -27.769612   -4.187456   -1.828883
     50          1           0      -24.923780   -4.400258   -2.450295
     51          1           0      -25.606717   -3.092461   -3.335579
     52          1           0      -26.239751   -4.830992   -3.517414
     53          1           0      -28.203517   -4.050037    0.317532
     54          1           0      -27.036028   -4.129815    1.662307
     55          1           0      -28.436356   -6.252197    0.402467
     56          1           0      -27.211117   -6.387826    1.634190
     57          1           0      -30.390942   -1.116165   -4.341975
     58          1           0      -29.955880    0.145021   -5.386267
     59          1           0      -31.295144    0.375901   -4.181046
     60          1           0      -31.836756    2.892809   -4.852807
     61          1           0      -30.178915    2.398924   -5.454097
     62          1           0      -30.677070    4.112755   -5.523430
     63          1           0      -27.796312    5.334831    0.499135
     64          1           0      -24.829446    5.191708    1.196967
     65          1           0      -25.876677    5.372987   -1.822464
     66          1           0      -25.598447    6.575772   -0.583276
     67          1           0      -27.172128    6.499967   -1.437753
     68          1           0      -26.791154    4.684065    3.310425
     69          1           0      -27.159706    6.049750    2.383473
     70          1           0      -24.214958    5.934252    3.185044
     71          1           0      -25.312624    5.622163    4.538542
     72          1           0      -25.288061    7.187565    3.761371
     73          1           0      -22.916750    2.045762    4.441230
     74          1           0      -22.640803    0.478637    5.212400
     75          1           0      -24.216065    1.339867    5.383875
     76          1           0      -22.993975   -3.105954    1.077082
     77          1           0      -23.038932   -7.365750    1.621937
     78          1           0      -23.041580   -6.543262    3.221474
     79          1           0      -21.588672   -6.480036    2.186749
     80         12           0       26.676352    0.676647    0.064969
     81          6           0       24.905831   -2.001045   -1.579731
     82          6           0       28.096734   -1.775457    2.130649
     83          6           0       28.388435    3.084197    1.497578
     84          6           0       24.915890    2.979772   -1.888876
     85          7           0       26.456165   -1.669118    0.225613
     86          6           0       25.871955   -2.520860   -0.657836
     87          6           0       26.305381   -3.960260   -0.432637
     88          6           0       27.071271   -3.919207    1.005019
     89          6           0       27.200989   -2.375847    1.155197
     90          6           0       26.350125   -4.669844    2.152488
     91          6           0       27.194207   -4.513555   -1.597298
     92          6           0       26.636677   -5.800446   -2.258920
     93          1           0       27.598869   -7.109524   -2.066571
     94          7           0       28.014828    0.655115    1.550656
     95          6           0       28.500037   -0.431911    2.353838
     96          6           0       29.501888   -0.016320    3.363838
     97          6           0       29.600356    1.390613    3.108183
     98          6           0       28.662503    1.751147    2.031692
     99          6           0       30.168267   -0.950285    4.376074
    100          6           0       30.402250    2.403961    3.832285
    101          8           0       30.636753    3.542222    3.440970
    102          6           0       31.123524    1.964935    5.121753
    103          7           0       26.763880    2.677675   -0.293171
    104          6           0       27.537978    3.492879    0.458990
    105          6           0       27.234821    4.950169    0.247501
    106          6           0       26.159127    4.960737   -0.866403
    107          6           0       25.946357    3.447733   -1.097974
    108          6           0       26.883288    5.714011    1.506906
    109          6           0       26.734609    5.688604   -2.219214
    110          6           0       25.828450    6.902396   -2.805606
    111          7           0       25.010228    0.573605   -1.252069
    112          6           0       24.472989    1.628688   -2.028226
    113          6           0       23.491864    1.047387   -2.951602
    114          6           0       23.758235   -0.345198   -2.877874
    115          6           0       24.576700   -0.577763   -1.771527
    116          6           0       22.469067    1.732507   -3.852897
    117          6           0       23.222100   -1.648251   -3.363036
    118          8           0       22.314793   -2.004946   -4.164914
    119          6           0       24.065040   -2.742672   -2.601075
    120          6           0       23.116030   -3.714277   -1.963734
    121          8           0       22.126766   -3.398730   -1.365255
    122          8           0       23.491958   -4.991419   -2.275233
    123          6           0       22.430148   -5.985315   -1.976427
    124          1           0       28.403982   -2.556178    2.829301
    125          1           0       28.924413    3.929440    1.934999
    126          1           0       24.381521    3.677712   -2.536416
    127          1           0       25.386723   -4.532991   -0.305305
    128          1           0       28.093662   -4.293171    0.944273
    129          1           0       26.020171   -3.974190    2.924600
    130          1           0       27.008398   -5.422599    2.588185
    131          1           0       25.498870   -5.283840    1.858326
    132          1           0       28.200196   -4.758708   -1.255745
    133          1           0       27.295074   -3.788346   -2.405203
    134          1           0       26.632309   -5.754251   -3.348245
    135          1           0       25.604874   -6.043026   -2.006628
    136          1           0       30.126823   -2.019644    4.166663
    137          1           0       29.860103   -0.815371    5.412816
    138          1           0       31.223839   -0.677732    4.351612
    139          1           0       30.399848    1.642491    5.870318
    140          1           0       31.778804    2.742443    5.515872
    141          1           0       31.764166    1.119089    4.872359
    142          1           0       28.156425    5.441068   -0.068087
    143          1           0       25.230306    5.409335   -0.515283
    144          1           0       27.668604    6.395119    1.835883
    145          1           0       26.734887    5.099154    2.394542
    146          1           0       25.952666    6.251187    1.322749
    147          1           0       26.884429    5.009434   -3.057855
    148          1           0       27.717458    6.133843   -2.066980
    149          1           0       25.214572    7.235652   -1.968598
    150          1           0       25.211601    6.579793   -3.645381
    151          1           0       26.436806    7.776496   -3.036417
    152          1           0       22.283851    1.169575   -4.767513
    153          1           0       22.925816    2.652793   -4.218838
    154          1           0       21.646766    1.958570   -3.173909
    155          1           0       24.582821   -3.305034   -3.377677
    156          1           0       22.146831   -5.852557   -0.932473
    157          1           0       22.953801   -6.939120   -2.038911
    158          1           0       21.500012   -5.958269   -2.544001
 ---------------------------------------------------------------------

 SCF Done:  E(RPBE1PBE) =  -4067.35650077     A.U. after   17 cycles

 Excitation energies and oscillator strengths:

 Excited State   1:      Singlet-A      1.8271 eV  678.59 nm  f=0.3548  <S**2>=0.000
     309 -> 316        0.18292
     311 -> 313        0.69142
     311 <- 313       -0.10667
 This state for optimization and/or second-order correction.
 Total Energy, E(TD-HF/TD-DFT) =  -4067.28935665
 Copying the excited state density for this state as the 1-particle RhoCI density.

 Excited State   2:      Singlet-A      1.8894 eV  656.20 nm  f=0.3604  <S**2>=0.000
     310 -> 315        0.18731
     312 -> 314        0.68568

 Excited State   3:      Singlet-A      1.9685 eV  629.83 nm  f=0.0000  <S**2>=0.000
     312 -> 313        0.70711

 Excited State   4:      Singlet-A      2.0802 eV  596.01 nm  f=0.0000  <S**2>=0.000
     311 -> 314        0.70711

 Excited State   5:      Singlet-A      2.1350 eV  580.72 nm  f=0.0934  <S**2>=0.000
     310 -> 314        0.65947
     312 -> 315       -0.23135

 The electronic state is 1-A.
 Alpha  occ. eigenvalues --  -46.91965 -46.91921 -19.26290 -19.24052 -19.20181
 Alpha  occ. eigenvalues --  -19.19955 -19.19868 -19.19055 -19.19034 -19.18899
 Alpha  occ. eigenvalues --  -14.41952 -14.41588 -14.41465 -14.41122 -14.40304
 Alpha  occ. eigenvalues --  -14.39295 -14.39010 -14.37899 -10.35839 -10.35680
 Alpha  occ. eigenvalues --  -10.33611 -10.32427 -10.32268 -10.32110 -10.29639
 Alpha  occ. eigenvalues --  -10.29446 -10.29142 -10.29088 -10.29081 -10.29038
 Alpha  occ. eigenvalues --  -10.28789 -10.28689 -10.28480 -10.28190 -10.28164
 Alpha  occ. eigenvalues --  -10.28084 -10.28032 -10.27987 -10.27938 -10.27838
 Alpha  occ. eigenvalues --  -10.27763 -10.26870 -10.26844 -10.26794 -10.26489
 Alpha  occ. eigenvalues --  -10.26443 -10.26421 -10.26395 -10.26260 -10.25934
 Alpha  occ. eigenvalues --  -10.25924 -10.25914 -10.25843 -10.25794 -10.25768
 Alpha  occ. eigenvalues --  -10.25673 -10.25608 -10.25525 -10.25519 -10.25461
 Alpha  occ. eigenvalues --  -10.25431 -10.25415 -10.25167 -10.25089 -10.25001
 Alpha  occ. eigenvalues --  -10.24966 -10.24935 -10.24573 -10.24549 -10.23995
 Alpha  occ. eigenvalues --  -10.23926 -10.23910 -10.23897 -10.23816 -10.23679
 Alpha  occ. eigenvalues --  -10.23655 -10.23464 -10.23432 -10.23382 -10.23316
 Alpha  occ. eigenvalues --  -10.23242 -10.23215 -10.23083 -10.22991 -10.22862
 Alpha  occ. eigenvalues --  -10.22570  -3.14184  -3.13965  -1.87023  -1.86818
 Alpha  occ. eigenvalues --   -1.86558  -1.86428  -1.86339  -1.86185  -1.11722
 Alpha  occ. eigenvalues --   -1.10054  -1.04866  -1.04588  -1.04562  -1.03506
 Alpha  occ. eigenvalues --   -1.01949  -1.01891  -0.99692  -0.99115  -0.98656
 Alpha  occ. eigenvalues --   -0.97851  -0.97249  -0.96667  -0.96626  -0.95280
 Alpha  occ. eigenvalues --   -0.86353  -0.85943  -0.83560  -0.83089  -0.82895
 Alpha  occ. eigenvalues --   -0.82766  -0.82329  -0.81984  -0.81712  -0.81602
 Alpha  occ. eigenvalues --   -0.81478  -0.81238  -0.80080  -0.80057  -0.78241
 Alpha  occ. eigenvalues --   -0.78177  -0.78110  -0.77481  -0.76783  -0.76075
 Alpha  occ. eigenvalues --   -0.75920  -0.75490  -0.75054  -0.75003  -0.74214
 Alpha  occ. eigenvalues --   -0.73972  -0.73259  -0.72716  -0.71505  -0.71473
 Alpha  occ. eigenvalues --   -0.71109  -0.70795  -0.70323  -0.69763  -0.69587
 Alpha  occ. eigenvalues --   -0.69411  -0.67038  -0.67009  -0.66146  -0.65849
 Alpha  occ. eigenvalues --   -0.64204  -0.63488  -0.63158  -0.62987  -0.61964
 Alpha  occ. eigenvalues --   -0.61759  -0.61517  -0.60963  -0.60415  -0.60376
 Alpha  occ. eigenvalues --   -0.60018  -0.59586  -0.59051  -0.58992  -0.58560
 Alpha  occ. eigenvalues --   -0.58055  -0.56950  -0.55729  -0.55283  -0.54511
 Alpha  occ. eigenvalues --   -0.53862  -0.53753  -0.53319  -0.53101  -0.52953
 Alpha  occ. eigenvalues --   -0.52667  -0.52473  -0.52203  -0.51732  -0.51496
 Alpha  occ. eigenvalues --   -0.50919  -0.50692  -0.50041  -0.49874  -0.49738
 Alpha  occ. eigenvalues --   -0.49476  -0.49066  -0.48769  -0.48393  -0.47961
 Alpha  occ. eigenvalues --   -0.47771  -0.47735  -0.47660  -0.47377  -0.47276
 Alpha  occ. eigenvalues --   -0.46897  -0.46775  -0.46658  -0.46618  -0.46311
 Alpha  occ. eigenvalues --   -0.46276  -0.46048  -0.45997  -0.45933  -0.45716
 Alpha  occ. eigenvalues --   -0.45457  -0.45349  -0.45085  -0.45041  -0.44842
 Alpha  occ. eigenvalues --   -0.44703  -0.44535  -0.44512  -0.44359  -0.44020
 Alpha  occ. eigenvalues --   -0.43901  -0.43723  -0.43713  -0.43274  -0.42970
 Alpha  occ. eigenvalues --   -0.42951  -0.42946  -0.42797  -0.42669  -0.42638
 Alpha  occ. eigenvalues --   -0.42468  -0.42268  -0.42160  -0.42067  -0.41949
 Alpha  occ. eigenvalues --   -0.41758  -0.41698  -0.41577  -0.41211  -0.41070
 Alpha  occ. eigenvalues --   -0.41040  -0.40927  -0.40908  -0.40723  -0.40380
 Alpha  occ. eigenvalues --   -0.40329  -0.40300  -0.39854  -0.39750  -0.39739
 Alpha  occ. eigenvalues --   -0.39643  -0.39513  -0.39243  -0.39127  -0.38897
 Alpha  occ. eigenvalues --   -0.38746  -0.38652  -0.38527  -0.38458  -0.38102
 Alpha  occ. eigenvalues --   -0.38028  -0.37959  -0.37691  -0.37517  -0.37449
 Alpha  occ. eigenvalues --   -0.37392  -0.37094  -0.36977  -0.36855  -0.36766
 Alpha  occ. eigenvalues --   -0.36570  -0.36440  -0.36393  -0.36282  -0.36146
 Alpha  occ. eigenvalues --   -0.36029  -0.35848  -0.35680  -0.35594  -0.35364
 Alpha  occ. eigenvalues --   -0.35135  -0.35111  -0.34900  -0.34463  -0.33959
 Alpha  occ. eigenvalues --   -0.33653  -0.33564  -0.33245  -0.32746  -0.32523
 Alpha  occ. eigenvalues --   -0.32509  -0.32247  -0.31455  -0.31449  -0.30815
 Alpha  occ. eigenvalues --   -0.30640  -0.30400  -0.29751  -0.29385  -0.29362
 Alpha  occ. eigenvalues --   -0.29021  -0.28581  -0.28432  -0.27134  -0.26652
 Alpha  occ. eigenvalues --   -0.26359  -0.25994  -0.25762  -0.25691  -0.25563
 Alpha  occ. eigenvalues --   -0.25343  -0.25010  -0.24249  -0.20842  -0.20575
 Alpha  occ. eigenvalues --   -0.18919  -0.18880
 Alpha virt. eigenvalues --   -0.11396  -0.11027  -0.05493  -0.05314  -0.04179
 Alpha virt. eigenvalues --   -0.04068  -0.02374  -0.01749  -0.00007  -0.00002
 Alpha virt. eigenvalues --    0.00264   0.00699   0.01013   0.01289   0.01338

 Mulliken charges:
               1
     1  Mg  11.999997
     2  C    5.999964
     3  C    5.999975
     4  C    6.000038
     5  C    5.999985
     6  N    6.999999
     7  C    5.999998
     8  C    5.999987
     9  C    5.999987
    10  C    6.000021
    11  C    6.000002
    12  C    6.000005
    13  C    5.999996
    14  H    0.999980
    15  N    6.999998
    16  C    6.000026
    17  C    6.000020
    18  C    5.999963
    19  C    5.999987
    20  C    5.999983
    21  C    6.000057
    22  O    8.000016
    23  C    5.999997
    24  N    7.000030
    25  C    5.999994
    26  C    6.000011
    27  C    5.999991
    28  C    6.000020
    29  C    5.999997
    30  C    6.000003
    31  C    5.999997
    32  N    7.000029
    33  C    5.999960
    34  C    5.999986
    35  C    5.999942
    36  C    6.000031
    37  C    6.000014
    38  C    6.000008
    39  O    7.999962
    40  C    6.000008
    41  C    5.999997
    42  O    8.000015
    43  O    7.999984
    44  C    6.000004
    45  H    1.000002
    46  H    1.000005
    47  H    0.999996
    48  H    0.999995
    49  H    1.000016
    50  H    0.999993
    51  H    0.999978
    52  H    1.000004
    53  H    1.000002
    54  H    1.000018
    55  H    1.000016
    56  H    1.000015
    57  H    1.000023
    58  H    1.000006
    59  H    1.000035
    60  H    1.000033
    61  H    0.999990
    62  H    1.000013
    63  H    1.000013
    64  H    0.999973
    65  H    0.999973
    66  H    0.999997
    67  H    1.000004
    68  H    1.000020
    69  H    1.000002
    70  H    0.999976
    71  H    1.000019
    72  H    1.000002
    73  H    0.999969
    74  H    0.999983
    75  H    1.000010
    76  H    0.999969
    77  H    0.999998
    78  H    1.000018
    79  H    0.999971
    80  Mg  12.003978
    81  C    5.975296
    82  C    5.997407
    83  C    6.029397
    84  C    5.997524
    85  N    6.982663
    86  C    6.032399
    87  C    5.990327
    88  C    6.011127
    89  C    5.972796
    90  C    6.002397
    91  C    5.998825
    92  C    5.997941
    93  H    1.006403
    94  N    7.002712
    95  C    5.969396
    96  C    5.976056
    97  C    5.987237
    98  C    5.973893
    99  C    6.003226
   100  C    5.988428
   101  O    7.968642
   102  C    6.003895
   103  N    7.008660
   104  C    5.964051
   105  C    6.008540
   106  C    5.989394
   107  C    6.028677
   108  C    6.000606
   109  C    5.995484
   110  C    5.999253
   111  N    6.998202
   112  C    6.036824
   113  C    6.030286
   114  C    6.002213
   115  C    6.028378
   116  C    6.001377
   117  C    6.011732
   118  O    8.029094
   119  C    6.003571
   120  C    6.006933
   121  O    8.000013
   122  O    8.001698
   123  C    5.998350
   124  H    0.986958
   125  H    0.998389
   126  H    1.012316
   127  H    0.997465
   128  H    0.999215
   129  H    1.000558
   130  H    0.996599
   131  H    0.987166
   132  H    1.007960
   133  H    0.995400
   134  H    0.997030
   135  H    0.998132
   136  H    0.985380
   137  H    0.981849
   138  H    0.985266
   139  H    0.992688
   140  H    0.986353
   141  H    0.994982
   142  H    1.001757
   143  H    1.003322
   144  H    1.002687
   145  H    1.005491
   146  H    0.991350
   147  H    0.999190
   148  H    1.011593
   149  H    1.003731
   150  H    0.997504
   151  H    1.006051
   152  H    1.013883
   153  H    1.014985
   154  H    1.015858
   155  H    1.004458
   156  H    1.004326
   157  H    1.004747
   158  H    1.000063
 Sum of Mulliken charges = 624.00000

 Dipole moment (field-independent basis, Debye):
    X=             -6.7729    Y=              0.9632    Z=             -7.4575  Tot=             10.1200
 Quadrupole moment (field-independent basis, Debye-Ang):
   XX=           -359.0243   YY=              3.7975   ZZ=             -3.5731
   XY=             21.4276   XZ=           -199.7656   YZ=             -3.7392

 Normal termination of Gaussian 16 at Thu Oct 14 08:08:15 2021.
