 Gaussian 16, Revision A.03,
 Gaussian 16:  ES64L-G16RevA.03 25-Dec-2016

 --------------------------------------------------------
 #p PBE1PBE/Def2SVP td=(nstates=5) density=(transition=1)
 --------------------------------------------------------

 --------------------------------
 TDDFT excited states in gaussian
 --------------------------------
 Symbolic Z-matrix:
 Charge =  0 Multiplicity = 1

                         Standard orientation:
 ---------------------------------------------------------------------
 Center     Atomic      Atomic             Coordinates (Angstroms)
 Number     Number       Type             X           Y           Z
 ---------------------------------------------------------------------
      1         12           0       16.279787   -0.499625    0.562736
      2          6           0       14.952537    2.372474   -1.122215
      3          6           0       17.646131    1.494649    2.784797
      4          6           0       18.048033   -3.151378    1.471552
      5          6           0       14.960369   -2.450030   -2.262825
      6          7           0       16.248220    1.684730    0.815483
      7          6           0       15.682446    2.693732    0.010896
      8          6           0       15.937164    4.152794    0.547918
      9          6           0       16.791865    3.754239    1.901532
     10          6           0       16.913237    2.233782    1.879600
     11          6           0       18.228776    4.431739    1.928688
     12          6           0       14.656954    5.028074    0.782236
     13          6           0       14.845526    6.254099    1.667650
     14          1           0       14.675040    7.602203    0.943681
     15          7           0       17.590066   -0.803041    2.012061
     16          6           0       18.073018    0.120805    2.908821
     17          6           0       18.982368   -0.466223    3.870239
     18          6           0       19.071050   -1.855237    3.459873
     19          6           0       18.135460   -1.990671    2.287129
     20          6           0       19.588959    0.196144    5.016404
     21          6           0       19.860144   -3.003410    4.064775
     22          8           0       19.765304   -4.144778    3.709808
     23          6           0       20.863336   -2.595348    5.110739
     24          7           0       16.527177   -2.508357   -0.316994
     25          6           0       17.313323   -3.418571    0.311167
     26          6           0       17.230272   -4.801554   -0.388529
     27          6           0       16.134454   -4.557799   -1.483654
     28          6           0       15.801458   -3.086550   -1.327038
     29          6           0       18.545842   -5.409781   -0.983452
     30          6           0       14.834876   -5.430123   -1.368024
     31          6           0       15.023975   -6.879301   -1.868356
     32          7           0       15.220838   -0.192673   -1.304127
     33          6           0       14.709661   -1.041897   -2.258340
     34          6           0       13.943334   -0.294058   -3.173907
     35          6           0       14.031882    1.006613   -2.845341
     36          6           0       14.855058    1.070695   -1.680405
     37          6           0       13.132676   -0.977134   -4.267606
     38          6           0       13.715307    2.402674   -3.163255
     39          8           0       13.086110    2.874795   -4.074752
     40          6           0       14.347149    3.342710   -2.029227
     41          6           0       15.452197    4.123362   -2.666263
     42          8           0       16.622052    3.868252   -2.843449
     43          8           0       14.872296    5.326540   -3.016554
     44          6           0       15.747672    6.333093   -3.662939
     45          1           0       18.181569    2.076863    3.537494
     46          1           0       18.763912   -3.936537    1.726385
     47          1           0       14.550336   -3.181551   -2.962995
     48          1           0       16.646477    4.633201   -0.126217
     49          1           0       16.247666    4.137999    2.764795
     50          1           0       18.420557    4.830829    2.924584
     51          1           0       18.466740    5.199235    1.192678
     52          1           0       19.004748    3.672894    1.832879
     53          1           0       13.983659    4.266732    1.178253
     54          1           0       14.100475    5.377077   -0.087885
     55          1           0       15.846324    6.230726    2.097959
     56          1           0       14.036976    6.282959    2.397547
     57          1           0       19.101023   -0.358749    5.817692
     58          1           0       19.383912    1.266746    5.006230
     59          1           0       20.664626    0.092615    5.157510
     60          1           0       20.408290   -2.678474    6.097625
     61          1           0       21.485977   -1.750827    4.814016
     62          1           0       21.686769   -3.287605    4.937395
     63          1           0       16.692746   -5.438972    0.314147
     64          1           0       16.601246   -4.606945   -2.467667
     65          1           0       18.539067   -5.623680   -2.052630
     66          1           0       18.620649   -6.405358   -0.546605
     67          1           0       19.450862   -4.828202   -0.807971
     68          1           0       14.048464   -4.985901   -1.977178
     69          1           0       14.547187   -5.363983   -0.317835
     70          1           0       15.875407   -6.939730   -2.546507
     71          1           0       14.078776   -7.157433   -2.334405
     72          1           0       15.264365   -7.595646   -1.082189
     73          1           0       12.275777   -0.370363   -4.560479
     74          1           0       12.829384   -1.962837   -3.914608
     75          1           0       13.768682   -1.209015   -5.122194
     76          1           0       13.594783    3.987022   -1.573733
     77          1           0       15.138533    6.789006   -4.443348
     78          1           0       16.657572    5.922388   -4.100298
     79          1           0       15.918527    6.988960   -2.808708
     80         12           0      -16.069859   -0.819840    0.056139
     81          6           0      -17.792830    1.981262    1.079425
     82          6           0      -13.482200    1.334982   -1.139288
     83          6           0      -14.535982   -3.401080   -1.265638
     84          6           0      -18.698624   -2.866406    1.087982
     85          7           0      -15.757399    1.397147    0.025610
     86          6           0      -16.572625    2.329962    0.526448
     87          6           0      -15.882545    3.727015    0.397198
     88          6           0      -14.556990    3.453185   -0.450842
     89          6           0      -14.614021    1.919417   -0.587683
     90          6           0      -14.520076    3.996191   -1.866441
     91          6           0      -15.656478    4.460286    1.727936
     92          6           0      -16.188469    5.882547    1.674537
     93          1           0      -15.592541    6.985447    2.561440
     94          7           0      -14.219860   -0.996185   -0.977683
     95          6           0      -13.295605   -0.053604   -1.325309
     96          6           0      -12.175306   -0.610489   -1.941523
     97          6           0      -12.480604   -2.004808   -2.120411
     98          6           0      -13.799323   -2.202891   -1.425214
     99          6           0      -10.950877    0.186363   -2.367753
    100          6           0      -11.697868   -3.066022   -2.876386
    101          8           0      -12.228032   -4.179887   -3.054091
    102          6           0      -10.394098   -2.778376   -3.501519
    103          7           0      -16.554088   -2.793524   -0.022046
    104          6           0      -15.725492   -3.744593   -0.581219
    105          6           0      -16.292859   -5.212096   -0.542126
    106          6           0      -17.493765   -4.993951    0.474200
    107          6           0      -17.613530   -3.459362    0.509084
    108          6           0      -16.766454   -5.949765   -1.856272
    109          6           0      -17.457736   -5.761075    1.873332
    110          6           0      -16.544250   -5.169987    2.914421
    111          7           0      -17.911782   -0.569992    0.769491
    112          6           0      -18.903540   -1.451467    1.155568
    113          6           0      -20.030148   -0.792385    1.677432
    114          6           0      -19.604723    0.540955    1.692377
    115          6           0      -18.298242    0.652145    1.133418
    116          6           0      -21.200015   -1.521398    2.186257
    117          6           0      -20.126729    1.821673    1.978244
    118          8           0      -21.271767    2.106249    2.335079
    119          6           0      -18.955258    2.877508    1.620692
    120          6           0      -19.455450    3.828392    0.643529
    121          8           0      -19.641383    3.627826   -0.534944
    122          8           0      -19.804740    4.962130    1.238886
    123          6           0      -20.438044    5.987584    0.466111
    124          1           0      -12.721873    2.003755   -1.547023
    125          1           0      -14.149681   -4.345475   -1.653840
    126          1           0      -19.499062   -3.542966    1.394765
    127          1           0      -16.605827    4.236533   -0.238678
    128          1           0      -13.765979    3.987511    0.076557
    129          1           0      -15.372876    4.620341   -2.135083
    130          1           0      -14.539922    3.176524   -2.584168
    131          1           0      -13.551801    4.459035   -2.059395
    132          1           0      -14.621579    4.485834    2.069601
    133          1           0      -16.173855    3.897256    2.504383
    134          1           0      -17.216960    5.827686    2.033162
    135          1           0      -16.107688    6.192231    0.632752
    136          1           0      -10.958096    1.192014   -1.947253
    137          1           0      -11.007063    0.365511   -3.441687
    138          1           0      -10.035498   -0.379163   -2.197550
    139          1           0      -10.174377   -3.499571   -4.289538
    140          1           0       -9.636454   -2.921656   -2.730476
    141          1           0      -10.388134   -1.772442   -3.920541
    142          1           0      -15.645433   -5.891635    0.013018
    143          1           0      -18.390858   -5.439939    0.046571
    144          1           0      -16.596446   -5.274220   -2.693698
    145          1           0      -17.856082   -5.998652   -1.857848
    146          1           0      -16.355850   -6.936327   -2.073161
    147          1           0      -17.044478   -6.746939    1.661685
    148          1           0      -18.441256   -5.952077    2.300945
    149          1           0      -16.994795   -5.381068    3.883615
    150          1           0      -16.250206   -4.121875    2.875282
    151          1           0      -15.590914   -5.688865    2.814222
    152          1           0      -21.052498   -2.509440    2.621537
    153          1           0      -22.080580   -1.521354    1.544967
    154          1           0      -21.523012   -0.853539    2.984438
    155          1           0      -18.690589    3.401217    2.539065
    156          1           0      -19.718071    6.670428    0.013594
    157          1           0      -21.027037    6.586215    1.160725
    158          1           0      -21.034318    5.537912   -0.327981
 ---------------------------------------------------------------------

 SCF Done:  E(RPBE1PBE) =  -4067.40066260     A.U. after   16 cycles

 Excitation energies and oscillator strengths:

 Excited State   1:      Singlet-A      1.8339 eV  676.06 nm  f=0.0000  <S**2>=0.000
     312 -> 313        0.70710
 This state for optimization and/or second-order correction.
 Total Energy, E(TD-HF/TD-DFT) =  -4067.33326688
 Copying the excited state density for this state as the 1-particle RhoCI density.

 Excited State   2:      Singlet-A      1.8599 eV  666.63 nm  f=0.4093  <S**2>=0.000
     310 -> 316       -0.16602
     311 -> 313       -0.11437
     312 -> 314        0.68391
     312 <- 314       -0.10679

 Excited State   3:      Singlet-A      1.8683 eV  663.62 nm  f=0.3767  <S**2>=0.000
     309 -> 315       -0.16341
     311 -> 313        0.68377
     312 -> 314        0.11422
     311 <- 313       -0.10965

 Excited State   4:      Singlet-A      2.0857 eV  594.44 nm  f=0.0000  <S**2>=0.000
     311 -> 314        0.70710

 Excited State   5:      Singlet-A      2.2252 eV  557.19 nm  f=0.1249  <S**2>=0.000
     310 -> 314        0.65923
     312 -> 316        0.23962

 The electronic state is 1-A.
 Alpha  occ. eigenvalues --  -46.92032 -46.91096 -19.25408 -19.24535 -19.20121
 Alpha  occ. eigenvalues --  -19.19334 -19.19212 -19.18905 -19.18795 -19.18409
 Alpha  occ. eigenvalues --  -14.41832 -14.41745 -14.41671 -14.40913 -14.39325
 Alpha  occ. eigenvalues --  -14.39316 -14.38666 -14.38559 -10.35976 -10.35214
 Alpha  occ. eigenvalues --  -10.32453 -10.31935 -10.31930 -10.31691 -10.29215
 Alpha  occ. eigenvalues --  -10.28914 -10.28894 -10.28716 -10.28649 -10.28451
 Alpha  occ. eigenvalues --  -10.28403 -10.28378 -10.28155 -10.28002 -10.27935
 Alpha  occ. eigenvalues --  -10.27900 -10.27864 -10.26981 -10.26914 -10.26836
 Alpha  occ. eigenvalues --  -10.26791 -10.26785 -10.26781 -10.26729 -10.26484
 Alpha  occ. eigenvalues --  -10.26387 -10.26235 -10.26126 -10.25980 -10.25896
 Alpha  occ. eigenvalues --  -10.25870 -10.25786 -10.25547 -10.25491 -10.25474
 Alpha  occ. eigenvalues --  -10.25387 -10.25190 -10.25044 -10.24986 -10.24821
 Alpha  occ. eigenvalues --  -10.24804 -10.24751 -10.24736 -10.24630 -10.24476
 Alpha  occ. eigenvalues --  -10.24472 -10.24468 -10.24448 -10.24437 -10.24420
 Alpha  occ. eigenvalues --  -10.24156 -10.23912 -10.23820 -10.23696 -10.23653
 Alpha  occ. eigenvalues --  -10.23509 -10.23424 -10.23303 -10.23220 -10.23062
 Alpha  occ. eigenvalues --  -10.23060 -10.23049 -10.23038 -10.22444 -10.22436
 Alpha  occ. eigenvalues --  -10.22381  -3.14153  -3.13455  -1.86990  -1.86508
 Alpha  occ. eigenvalues --   -1.86400  -1.86296  -1.85848  -1.85683  -1.12686
 Alpha  occ. eigenvalues --   -1.10448  -1.06172  -1.05569  -1.03645  -1.03153
 Alpha  occ. eigenvalues --   -1.02563  -1.02293  -0.99280  -0.98511  -0.98361
 Alpha  occ. eigenvalues --   -0.98034  -0.97927  -0.97203  -0.97171  -0.96245
 Alpha  occ. eigenvalues --   -0.87391  -0.86439  -0.83658  -0.83264  -0.83019
 Alpha  occ. eigenvalues --   -0.82612  -0.82577  -0.82349  -0.81939  -0.81885
 Alpha  occ. eigenvalues --   -0.81526  -0.81232  -0.81061  -0.80417  -0.78857
 Alpha  occ. eigenvalues --   -0.78236  -0.78123  -0.77504  -0.77224  -0.76511
 Alpha  occ. eigenvalues --   -0.76484  -0.76267  -0.75550  -0.75086  -0.74967
 Alpha  occ. eigenvalues --   -0.74468  -0.72593  -0.72471  -0.71657  -0.71333
 Alpha  occ. eigenvalues --   -0.71217  -0.70969  -0.70267  -0.69886  -0.69621
 Alpha  occ. eigenvalues --   -0.69243  -0.67916  -0.67250  -0.65881  -0.65776
 Alpha  occ. eigenvalues --   -0.64003  -0.63998  -0.63299  -0.63166  -0.62235
 Alpha  occ. eigenvalues --   -0.62162  -0.61480  -0.61464  -0.59847  -0.59568
 Alpha  occ. eigenvalues --   -0.59422  -0.59180  -0.59139  -0.58889  -0.58857
 Alpha  occ. eigenvalues --   -0.58502  -0.56893  -0.56056  -0.54937  -0.54674
 Alpha  occ. eigenvalues --   -0.54585  -0.54113  -0.53576  -0.53399  -0.53155
 Alpha  occ. eigenvalues --   -0.52827  -0.52710  -0.52535  -0.52203  -0.51570
 Alpha  occ. eigenvalues --   -0.51125  -0.50744  -0.50603  -0.50204  -0.49656
 Alpha  occ. eigenvalues --   -0.49634  -0.49160  -0.49057  -0.48918  -0.48864
 Alpha  occ. eigenvalues --   -0.48562  -0.48308  -0.48112  -0.47792  -0.47345
 Alpha  occ. eigenvalues --   -0.47302  -0.46994  -0.46913  -0.46788  -0.46636
 Alpha  occ. eigenvalues --   -0.46567  -0.46378  -0.46284  -0.45963  -0.45869
 Alpha  occ. eigenvalues --   -0.45515  -0.45172  -0.44924  -0.44869  -0.44781
 Alpha  occ. eigenvalues --   -0.44508  -0.44467  -0.44282  -0.44282  -0.44100
 Alpha  occ. eigenvalues --   -0.44069  -0.43896  -0.43802  -0.43739  -0.43541
 Alpha  occ. eigenvalues --   -0.43449  -0.43120  -0.43073  -0.42816  -0.42695
 Alpha  occ. eigenvalues --   -0.42524  -0.42455  -0.42438  -0.41998  -0.41806
 Alpha  occ. eigenvalues --   -0.41626  -0.41466  -0.41235  -0.41115  -0.41060
 Alpha  occ. eigenvalues --   -0.40798  -0.40628  -0.40450  -0.40265  -0.40229
 Alpha  occ. eigenvalues --   -0.40203  -0.40035  -0.39963  -0.39871  -0.39816
 Alpha  occ. eigenvalues --   -0.39696  -0.39673  -0.39532  -0.39310  -0.39208
 Alpha  occ. eigenvalues --   -0.38776  -0.38687  -0.38667  -0.38402  -0.38322
 Alpha  occ. eigenvalues --   -0.38278  -0.38062  -0.38051  -0.37673  -0.37520
 Alpha  occ. eigenvalues --   -0.37470  -0.37378  -0.36968  -0.36864  -0.36769
 Alpha  occ. eigenvalues --   -0.36486  -0.36336  -0.36316  -0.36100  -0.35979
 Alpha  occ. eigenvalues --   -0.35937  -0.35854  -0.35827  -0.35662  -0.35407
 Alpha  occ. eigenvalues --   -0.35389  -0.34391  -0.34128  -0.33831  -0.33810
 Alpha  occ. eigenvalues --   -0.33140  -0.33115  -0.32816  -0.32736  -0.32200
 Alpha  occ. eigenvalues --   -0.32122  -0.31618  -0.31539  -0.31471  -0.31340
 Alpha  occ. eigenvalues --   -0.31161  -0.30702  -0.29445  -0.29436  -0.29168
 Alpha  occ. eigenvalues --   -0.28864  -0.28461  -0.28300  -0.27101  -0.26910
 Alpha  occ. eigenvalues --   -0.25857  -0.25816  -0.25797  -0.25527  -0.25491
 Alpha  occ. eigenvalues --   -0.25421  -0.25396  -0.25265  -0.21088  -0.20611
 Alpha  occ. eigenvalues --   -0.19087  -0.18639
 Alpha virt. eigenvalues --   -0.11492  -0.11018  -0.05028  -0.04761  -0.03706
 Alpha virt. eigenvalues --   -0.03352  -0.01900  -0.01816  -0.00281   0.00257
 Alpha virt. eigenvalues --    0.00774   0.01246   0.01362   0.01776   0.02029

 Mulliken charges:
               1
     1  Mg  12.000000
     2  C    6.000000
     3  C    6.000000
     4  C    6.000000
     5  C    6.000000
     6  N    7.000000
     7  C    6.000000
     8  C    6.000000
     9  C    6.000000
    10  C    6.000000
    11  C    6.000000
    12  C    6.000000
    13  C    6.000000
    14  H    1.000000
    15  N    7.000000
    16  C    6.000000
    17  C    6.000000
    18  C    6.000000
    19  C    6.000000
    20  C    6.000000
    21  C    6.000000
    22  O    8.000000
    23  C    6.000000
    24  N    7.000000
    25  C    6.000000
    26  C    6.000000
    27  C    6.000000
    28  C    6.000000
    29  C    6.000000
    30  C    6.000000
    31  C    6.000000
    32  N    7.000000
    33  C    6.000000
    34  C    6.000000
    35  C    6.000000
    36  C    6.000000
    37  C    6.000000
    38  C    6.000000
    39  O    8.000000
    40  C    6.000000
    41  C    6.000000
    42  O    8.000000
    43  O    8.000000
    44  C    6.000000
    45  H    1.000000
    46  H    1.000000
    47  H    1.000000
    48  H    1.000000
    49  H    1.000000
    50  H    1.000000
    51  H    1.000000
    52  H    1.000000
    53  H    1.000000
    54  H    1.000000
    55  H    1.000000
    56  H    1.000000
    57  H    1.000000
    58  H    1.000000
    59  H    1.000000
    60  H    1.000000
    61  H    1.000000
    62  H    1.000000
    63  H    1.000000
    64  H    1.000000
    65  H    1.000000
    66  H    1.000000
    67  H    1.000000
    68  H    1.000000
    69  H    1.000000
    70  H    1.000000
    71  H    1.000000
    72  H    1.000000
    73  H    1.000000
    74  H    1.000000
    75  H    1.000000
    76  H    1.000000
    77  H    1.000000
    78  H    1.000000
    79  H    1.000000
    80  Mg  12.000000
    81  C    6.000000
    82  C    6.000000
    83  C    6.000000
    84  C    6.000000
    85  N    7.000000
    86  C    6.000000
    87  C    6.000000
    88  C    6.000000
    89  C    6.000000
    90  C    6.000000
    91  C    6.000000
    92  C    6.000000
    93  H    1.000000
    94  N    7.000000
    95  C    6.000000
    96  C    6.000000
    97  C    6.000000
    98  C    6.000000
    99  C    6.000000
   100  C    6.000000
   101  O    8.000000
   102  C    6.000000
   103  N    7.000000
   104  C    6.000000
   105  C    6.000000
   106  C    6.000000
   107  C    6.000000
   108  C    6.000000
   109  C    6.000000
   110  C    6.000000
   111  N    7.000000
   112  C    6.000000
   113  C    6.000000
   114  C    6.000000
   115  C    6.000000
   116  C    6.000000
   117  C    6.000000
   118  O    8.000000
   119  C    6.000000
   120  C    6.000000
   121  O    8.000000
   122  O    8.000000
   123  C    6.000000
   124  H    1.000000
   125  H    1.000000
   126  H    1.000000
   127  H    1.000000
   128  H    1.000000
   129  H    1.000000
   130  H    1.000000
   131  H    1.000000
   132  H    1.000000
   133  H    1.000000
   134  H    1.000000
   135  H    1.000000
   136  H    1.000000
   137  H    1.000000
   138  H    1.000000
   139  H    1.000000
   140  H    1.000000
   141  H    1.000000
   142  H    1.000000
   143  H    1.000000
   144  H    1.000000
   145  H    1.000000
   146  H    1.000000
   147  H    1.000000
   148  H    1.000000
   149  H    1.000000
   150  H    1.000000
   151  H    1.000000
   152  H    1.000000
   153  H    1.000000
   154  H    1.000000
   155  H    1.000000
   156  H    1.000000
   157  H    1.000000
   158  H    1.000000
 Sum of Mulliken charges = 624.00000

 Dipole moment (field-independent basis, Debye):
    X=              0.0000    Y=              0.0000    Z=             -0.0000  Tot=              0.0000
 Quadrupole moment (field-independent basis, Debye-Ang):
   XX=             -0.0000   YY=              0.0000   ZZ=             -0.0000
   XY=              0.0000   XZ=             -0.0000   YZ=              0.0000

 Normal termination of Gaussian 16 at Thu Oct 14 13:26:23 2021.
